Title
82308
    1SAPS     N    1   4.135   6.810  11.235 -0.1842  0.3483 -0.0015
    1SAPS   HN1    2   4.222   6.801  11.291 -2.0310  0.0758  3.0501
    1SAPS   HN2    3   4.053   6.752  11.263 -1.0653 -0.1412 -3.2253
    1SAPS   HN3    4   4.150   6.794  11.134  0.5411 -2.0068  0.4285
    1SAPS   C12    5   4.090   6.953  11.261 -0.0050  0.0426 -0.8502
    1SAPS  H12A    6   4.032   6.978  11.174 -0.4409 -1.1677 -0.9166
    1SAPS   C13    7   4.002   6.977  11.391  0.1687  0.5554 -0.1308
    1SAPS  O13A    8   3.990   6.881  11.472  0.1118  0.6067  0.1507
    1SAPS  O13B    9   3.926   7.076  11.390  0.6736 -0.4603 -0.0044
    1SAPS   C11   10   4.216   7.043  11.279 -0.0935 -0.2158  0.1847
    1SAPS  H11A   11   4.270   7.010  11.371 -0.7874 -2.7698 -0.2258
    1SAPS  H11B   12   4.177   7.147  11.286  1.3404  0.5608 -2.4304
    1SAPS     P   13   4.390   7.150  11.116  0.0074  0.3911  0.1694
    1SAPS   O13   14   4.401   7.238  11.233  0.3274  0.6054 -0.1257
    1SAPS   O14   15   4.509   7.092  11.053 -1.1543 -0.4941  0.7507
    1SAPS   O12   16   4.302   7.028  11.159  0.3023  0.1057  0.3070
    1SAPS   O11   17   4.304   7.220  11.006 -0.3999  0.2336  0.0296
    1SAPS    C1   18   4.377   7.304  10.910 -0.5192 -0.2792 -0.1639
    1SAPS    HA   19   4.395   7.400  10.962 -3.1941 -0.1971  0.7301
    1SAPS    HB   20   4.476   7.258  10.886 -0.3864 -1.2490  2.0228
    1SAPS    C2   21   4.301   7.317  10.773 -0.6343  0.8490  0.4534
    1SAPS    HS   22   4.370   7.360  10.697 -0.3525 -3.6310 -2.1531
    1SAPS   O21   23   4.190   7.402  10.797 -0.0629  0.2653 -0.2519
    1SAPS   C21   24   4.210   7.533  10.756 -0.3725 -0.0119  0.0649
    1SAPS   O22   25   4.317   7.587  10.736  0.2528  0.4487  0.1807
    1SAPS   C22   26   4.075   7.595  10.730  0.2737 -0.6934  0.5352
    1SAPS   H2R   27   3.999   7.514  10.736 -0.3194 -0.1523  0.4027
    1SAPS   H2S   28   4.066   7.670  10.811  3.0536 -0.6500  0.8810
    1SAPS    C3   29   4.260   7.176  10.723 -0.0729  0.1558  0.4755
    1SAPS    HX   30   4.162   7.137  10.757 -0.9269  0.7586 -1.1675
    1SAPS    HY   31   4.339   7.118  10.774  0.6005  1.5159  1.0290
    1SAPS   O31   32   4.281   7.162  10.581 -0.2917  0.2493 -0.3995
    1SAPS   C31   33   4.173   7.166  10.507  0.2209  0.3798 -0.4423
    1SAPS   O32   34   4.056   7.170  10.552 -0.4012  0.9390  0.0621
    1SAPS   C32   35   4.218   7.179  10.360 -0.0751  0.1689 -0.6051
    1SAPS   H2X   36   4.326   7.157  10.348 -0.3059 -1.8685  0.5790
    1SAPS   H2Y   37   4.196   7.284  10.330  0.3965  0.0842 -1.2931
    1SAPS   C23   38   4.074   7.677  10.598 -0.1091  0.9181  0.0685
    1SAPS   H3R   39   4.145   7.763  10.595  1.8499 -0.6308 -1.7398
    1SAPS   H3S   40   3.969   7.713  10.592 -0.9506 -1.3526  0.2946
    1SAPS   C24   41   4.116   7.590  10.470 -0.3285 -0.5870 -0.5035
    1SAPS   H4R   42   4.213   7.540  10.491  0.5454  1.5472  0.9333
    1SAPS   H4S   43   4.138   7.666  10.392  1.2253 -0.2646  0.2251
    1SAPS   C25   44   4.016   7.486  10.434  0.7703  0.2905  0.5201
    1SAPS   H5R   45   4.009   7.401  10.504 -0.2553  0.0487  0.1451
    1SAPS   C26   46   3.935   7.486  10.327  0.6343 -0.4433  0.3307
    1SAPS   H6R   47   3.864   7.403  10.322 -1.8653  1.6048 -0.6574
    1SAPS   C27   48   3.927   7.588  10.209  0.6671 -0.4942  0.3071
    1SAPS   H7R   49   3.972   7.542  10.119 -1.0970 -0.5635 -0.5866
    1SAPS   H7S   50   3.997   7.671  10.233  0.0995 -0.6810  2.9933
    1SAPS   C28   51   3.786   7.646  10.175  0.5642 -0.3509 -0.0518
    1SAPS   H8R   52   3.732   7.684  10.263 -1.6619 -0.7570 -1.1773
    1SAPS   C29   53   3.731   7.658  10.052  0.1684  0.2334 -1.0086
    1SAPS   H9R   54   3.627   7.692  10.057  0.1410 -0.0101  1.3842
    1SAPS  C210   55   3.796   7.629   9.914  0.0734  0.2496  0.2431
    1SAPS  H10R   56   3.734   7.558   9.856  1.6647 -1.0560  0.0558
    1SAPS  H10S   57   3.894   7.576   9.919  0.3088  0.3807 -1.9115
    1SAPS  C211   58   3.810   7.765   9.847  0.1182  0.5103  0.6153
    1SAPS  H11R   59   3.807   7.858   9.905 -0.0658  1.6027 -1.0769
    1SAPS  C212   60   3.828   7.774   9.718  0.3496 -0.9318  0.6603
    1SAPS  H12R   61   3.833   7.872   9.670 -0.4524 -0.4201  1.5975
    1SAPS  C213   62   3.845   7.670   9.618 -0.4122  0.2393  0.1688
    1SAPS  H13R   63   3.880   7.574   9.662 -2.4773 -1.4457 -1.6482
    1SAPS  H13S   64   3.919   7.703   9.542 -1.7971  1.7616 -0.5845
    1SAPS  C214   65   3.711   7.630   9.553  0.3043  0.0016  0.3507
    1SAPS  H14R   66   3.640   7.580   9.620 -0.4427  0.4987 -0.0520
    1SAPS  C215   67   3.666   7.671   9.432  0.1718  0.2293 -1.3772
    1SAPS  H15R   68   3.563   7.660   9.395 -0.8531  1.2234  1.0114
    1SAPS  C216   69   3.754   7.761   9.347  0.0429 -0.1452 -0.1439
    1SAPS  H16R   70   3.864   7.755   9.361  0.1916  1.3105 -0.4946
    1SAPS  H16S   71   3.725   7.867   9.363 -0.4180 -0.3286  0.2748
    1SAPS  C217   72   3.742   7.742   9.193 -0.7348  0.1867 -0.5857
    1SAPS  H17R   73   3.824   7.672   9.164 -1.9100 -1.5368  0.1079
    1SAPS  H17S   74   3.764   7.840   9.145 -1.7042  1.1619  0.9082
    1SAPS  C218   75   3.607   7.701   9.142  0.2151  0.6650 -0.1387
    1SAPS  H18R   76   3.528   7.757   9.197  1.2133  1.9795 -0.0174
    1SAPS  H18S   77   3.598   7.592   9.162  1.0765  0.3190 -1.5421
    1SAPS  C219   78   3.591   7.713   8.986  0.2807  0.3511 -0.2653
    1SAPS  H19R   79   3.621   7.812   8.945 -1.4702  0.6183 -0.9466
    1SAPS  H19S   80   3.481   7.710   8.971  0.1724  1.1456  0.2792
    1SAPS  C220   81   3.657   7.608   8.896 -0.1427 -0.2263  0.3391
    1SAPS  H20R   82   3.636   7.626   8.789 -1.7851  0.4118  0.7437
    1SAPS  H20S   83   3.620   7.507   8.923 -0.5740  0.1565  1.2389
    1SAPS  H20T   84   3.768   7.614   8.892 -0.2579  2.4503 -1.0782
    1SAPS   C33   85   4.132   7.103  10.257 -0.2512  0.0288 -0.3895
    1SAPS   H3X   86   4.024   7.127  10.259  0.0556  1.6729  2.4465
    1SAPS   H3Y   87   4.141   6.997  10.286 -1.1519  0.4006  1.4014
    1SAPS   C34   88   4.179   7.128  10.111 -0.0790 -0.5528  0.3575
    1SAPS   H4X   89   4.289   7.127  10.101 -0.2419  0.4459 -1.9813
    1SAPS   H4Y   90   4.157   7.232  10.078 -1.2000 -0.8151  0.2328
    1SAPS   C35   91   4.112   7.036  10.008  0.3619  0.0474  1.0455
    1SAPS   H5X   92   4.013   7.076   9.978 -1.0746 -2.5159  2.0270
    1SAPS   H5Y   93   4.079   6.939  10.050 -0.5439  0.3526  1.0531
    1SAPS   C36   94   4.189   7.009   9.887  0.4672  0.7222  0.2606
    1SAPS   H6X   95   4.265   6.939   9.927 -0.3191  0.0444  0.5886
    1SAPS   H6Y   96   4.237   7.107   9.864  0.3200  1.0520  1.3276
    1SAPS   C37   97   4.111   6.971   9.767 -0.1651 -0.3445 -0.0340
    1SAPS   H7X   98   4.036   7.051   9.750 -0.1499 -0.5026 -0.8701
    1SAPS   H7Y   99   4.055   6.879   9.791  0.2951 -0.9469 -1.1777
    1SAPS   C38  100   4.188   6.957   9.639  0.2398 -0.6156 -0.6007
    1SAPS   H8X  101   4.261   6.876   9.660  0.4394  0.3181  2.8315
    1SAPS   H8Y  102   4.252   7.044   9.613 -1.0962  0.3159 -0.8843
    1SAPS   C39  103   4.106   6.935   9.511  0.0244  0.1195  0.3416
    1SAPS   H9X  104   4.064   7.037   9.496  1.1363  0.9886  2.6163
    1SAPS   H9Y  105   4.028   6.858   9.523  0.3021 -0.7195 -2.4535
    1SAPS  C310  106   4.192   6.910   9.392  0.0392 -0.5175 -0.7628
    1SAPS  H10X  107   4.249   6.816   9.410  0.5902 -0.3002 -1.3223
    1SAPS  H10Y  108   4.268   6.992   9.395 -0.7194  0.2063  2.6993
    1SAPS  C311  109   4.111   6.908   9.261  0.4919  0.3648 -0.1419
    1SAPS  H11X  110   4.051   7.002   9.261  0.2108  0.1956 -1.1370
    1SAPS  H11Y  111   4.039   6.825   9.272 -0.0619  0.8900  0.2834
    1SAPS  C312  112   4.197   6.902   9.140 -0.0879 -0.1978  0.2045
    1SAPS  H12X  113   4.252   6.805   9.139 -0.3376 -0.3442 -1.2776
    1SAPS  H12Y  114   4.274   6.981   9.148  0.0188  0.0493 -2.4566
    1SAPS  C313  115   4.122   6.929   8.999  0.0732 -0.2578 -0.0057
    1SAPS  H13X  116   4.195   6.983   8.936  0.0893  1.6352  1.5398
    1SAPS  H13Y  117   4.049   7.006   9.031  0.2651 -0.6177  1.3454
    1SAPS  C314  118   4.059   6.806   8.939  0.3354  1.0265 -0.0381
    1SAPS  H14X  119   3.971   6.786   9.003  0.7099 -1.6876 -0.2557
    1SAPS  H14Y  120   4.129   6.722   8.951  0.2252  1.1031  1.3153
    1SAPS  C315  121   4.033   6.824   8.797  0.0107  0.5818  0.3530
    1SAPS  H15X  122   4.126   6.844   8.739 -1.7405 -2.5823 -4.1220
    1SAPS  H15Y  123   3.957   6.906   8.794 -1.0822 -0.3148  2.0750
    1SAPS  C316  124   3.966   6.703   8.720  0.0873 -0.0107 -0.4851
    1SAPS  H16X  125   4.052   6.633   8.722  0.4871  0.4946  0.4394
    1SAPS  H16Y  126   3.930   6.732   8.619 -1.1830  0.4135  0.0709
    1SAPS  C317  127   3.839   6.637   8.787 -0.0949 -0.3014 -0.5438
    1SAPS  H17X  128   3.875   6.596   8.884  1.2118 -0.2273 -0.9778
    1SAPS  H17Y  129   3.812   6.549   8.726 -0.3986 -1.8941  1.7458
    1SAPS  C318  130   3.719   6.733   8.811 -0.4575  0.4394  0.2988
    1SAPS  H18X  131   3.646   6.684   8.878  0.7520 -2.2059 -0.1962
    1SAPS  H18Y  132   3.671   6.774   8.720  2.6154  0.9273 -1.2609
    1SAPS  H18Z  133   3.754   6.811   8.883 -0.1818  0.6654 -0.0761
    2SAPS     N  134   1.539   3.723  10.683 -0.1872 -0.0993 -0.0057
    2SAPS   HN1  135   1.619   3.713  10.618 -2.6232 -2.4263 -2.9222
    2SAPS   HN2  136   1.453   3.676  10.647 -1.3981  1.5359  0.6119
    2SAPS   HN3  137   1.521   3.824  10.700 -0.0924  0.3315 -2.2269
    2SAPS   C12  138   1.577   3.668  10.818 -0.1673 -0.0552  0.1790
    2SAPS  H12A  139   1.537   3.739  10.889  1.7601  0.0688  1.2192
    2SAPS   C13  140   1.532   3.523  10.857  0.1740 -0.4257  1.1589
    2SAPS  O13A  141   1.471   3.455  10.764  0.3680  0.4491 -0.1413
    2SAPS  O13B  142   1.552   3.465  10.963 -0.9070 -0.1654 -0.1571
    2SAPS   C11  143   1.729   3.672  10.842 -0.7690 -0.0319  0.5219
    2SAPS  H11A  144   1.764   3.588  10.778  0.3258  1.4766 -0.9473
    2SAPS  H11B  145   1.750   3.646  10.948 -0.4239 -1.0663  0.2164
    2SAPS     P  146   1.944   3.818  10.832  0.0444  0.2402  0.2586
    2SAPS   O13  147   1.980   3.958  10.795 -0.2667  0.3817 -0.3757
    2SAPS   O14  148   1.987   3.765  10.963  0.0870  0.0464 -0.2319
    2SAPS   O12  149   1.785   3.796  10.812 -0.6348  0.3364 -0.3194
    2SAPS   O11  150   1.999   3.717  10.722  0.1775 -0.3730  0.3750
    2SAPS    C1  151   2.069   3.764  10.607  0.3750 -0.9129  0.7302
    2SAPS    HA  152   2.141   3.843  10.636 -1.6855  2.1481 -1.7628
    2SAPS    HB  153   2.111   3.678  10.550 -2.6772 -0.7318 -2.1433
    2SAPS    C2  154   1.975   3.829  10.502 -0.1615  0.3997  0.3889
    2SAPS    HS  155   1.892   3.888  10.546 -0.7432 -0.0064 -0.1486
    2SAPS   O21  156   1.926   3.731  10.411  0.2448  0.5634  0.3355
    2SAPS   C21  157   1.809   3.672  10.429  0.5865  0.7993 -0.1995
    2SAPS   O22  158   1.742   3.680  10.531 -0.0059  0.3317  0.4776
    2SAPS   C22  159   1.773   3.588  10.300  0.2270 -0.3039 -0.8102
    2SAPS   H2R  160   1.770   3.480  10.327 -0.2669 -0.1515 -0.2425
    2SAPS   H2S  161   1.664   3.603  10.286  0.0437 -1.5303 -0.8026
    2SAPS    C3  162   2.066   3.933  10.425  0.8846  0.2813 -0.1662
    2SAPS    HX  163   2.142   3.873  10.371  2.5909  3.3890 -1.5052
    2SAPS    HY  164   2.122   4.009  10.483 -0.1973  0.6254  0.4552
    2SAPS   O31  165   1.982   4.014  10.324 -0.4724  0.2601 -0.2662
    2SAPS   C31  166   2.068   4.062  10.229  0.1356  0.2047 -0.1736
    2SAPS   O32  167   2.187   4.064  10.233 -0.0862 -0.1145  0.0409
    2SAPS   C32  168   1.985   4.122  10.111 -0.0884  0.0671 -0.7640
    2SAPS   H2X  169   1.899   4.180  10.150 -1.1600 -0.6971 -1.9236
    2SAPS   H2Y  170   1.937   4.037  10.058 -0.7440  1.0581 -1.7919
    2SAPS   C23  171   1.859   3.619  10.170 -0.2750 -0.0366  0.0587
    2SAPS   H3R  172   1.828   3.547  10.092 -0.9272  0.9877 -0.6511
    2SAPS   H3S  173   1.961   3.589  10.201 -0.6682  0.6363  2.2327
    2SAPS   C24  174   1.853   3.760  10.121 -0.6601 -0.7757  0.5070
    2SAPS   H4R  175   1.918   3.828  10.180  0.5242  0.2513 -1.8186
    2SAPS   H4S  176   1.756   3.813  10.127 -0.1749  0.8314 -3.0494
    2SAPS   C25  177   1.908   3.770   9.980 -0.2149  0.7110  0.4568
    2SAPS   H5R  178   2.017   3.762   9.971 -0.3176 -2.1940  0.8603
    2SAPS   C26  179   1.829   3.763   9.874  0.4734 -0.7928  0.0862
    2SAPS   H6R  180   1.886   3.761   9.779  0.9097 -2.2025  0.3588
    2SAPS   C27  181   1.678   3.748   9.873  0.2874 -0.1164  0.6017
    2SAPS   H7R  182   1.647   3.690   9.962  0.5864 -2.9588 -1.0535
    2SAPS   H7S  183   1.651   3.683   9.788  1.2719  0.8165 -0.4691
    2SAPS   C28  184   1.610   3.881   9.862 -0.6888  0.4072 -0.0731
    2SAPS   H8R  185   1.634   3.950   9.944  1.4121  2.0170 -1.9247
    2SAPS   C29  186   1.531   3.941   9.769  0.6423  0.1461  0.0632
    2SAPS   H9R  187   1.496   4.043   9.789 -1.4213  0.0848 -2.6724
    2SAPS  C210  188   1.479   3.883   9.643 -0.4352 -0.1892 -0.1579
    2SAPS  H10R  189   1.492   3.773   9.637  3.2690  0.1764 -0.9099
    2SAPS  H10S  190   1.528   3.935   9.558  0.0725  1.9254  1.3483
    2SAPS  C211  191   1.334   3.922   9.631 -0.1251  0.2943  0.0419
    2SAPS  H11R  192   1.271   3.900   9.719 -1.8464  0.8655 -1.0189
    2SAPS  C212  193   1.269   3.957   9.517  0.5717  0.4941 -0.4331
    2SAPS  H12R  194   1.161   3.979   9.521  0.4300 -0.2726  1.4080
    2SAPS  C213  195   1.320   3.961   9.375  0.1016 -0.9088 -0.7440
    2SAPS  H13R  196   1.402   3.886   9.362 -0.3724 -1.4103 -0.8490
    2SAPS  H13S  197   1.374   4.055   9.347  1.1682 -1.3115 -0.1038
    2SAPS  C214  198   1.198   3.930   9.275 -0.4105 -0.3222  0.7950
    2SAPS  H14R  199   1.126   3.856   9.313  0.0205 -0.3101  1.6625
    2SAPS  C215  200   1.174   3.972   9.151 -0.6113  0.5237 -0.0450
    2SAPS  H15R  201   1.087   3.920   9.108 -1.2096  1.4598 -0.0042
    2SAPS  C216  202   1.262   4.058   9.060 -0.4811  1.1112  0.8812
    2SAPS  H16R  203   1.353   4.094   9.113  0.8272 -0.2999 -0.3188
    2SAPS  H16S  204   1.210   4.148   9.020  0.5508  1.7533  0.9404
    2SAPS  C217  205   1.310   3.978   8.932  0.3844 -0.1165  0.5035
    2SAPS  H17R  206   1.216   3.938   8.887  0.1757 -0.8558  1.5488
    2SAPS  H17S  207   1.378   3.892   8.950 -0.3485 -0.5513  1.3170
    2SAPS  C218  208   1.381   4.079   8.835 -0.5216 -0.4074 -0.1704
    2SAPS  H18R  209   1.465   4.129   8.887 -1.2081  0.4589  0.1271
    2SAPS  H18S  210   1.307   4.150   8.792  0.5516 -0.0793 -1.5833
    2SAPS  C219  211   1.446   4.000   8.718 -0.0076  0.4173  0.2725
    2SAPS  H19R  212   1.370   3.928   8.680 -0.2179  1.4331 -1.3622
    2SAPS  H19S  213   1.528   3.937   8.759  0.0135 -0.2907 -0.7933
    2SAPS  C220  214   1.501   4.092   8.604 -0.1211  0.8677  0.1858
    2SAPS  H20R  215   1.510   4.034   8.510  0.4653  0.5778  0.4192
    2SAPS  H20S  216   1.597   4.138   8.633 -0.6523  0.4788  2.7969
    2SAPS  H20T  217   1.423   4.171   8.596 -0.6719  0.9313  4.1874
    2SAPS   C33  218   2.074   4.189  10.012  0.5251  0.4141  0.6971
    2SAPS   H3X  219   2.152   4.115   9.983  1.0183  0.4306  1.9471
    2SAPS   H3Y  220   2.126   4.274  10.061  0.5499 -0.2334  1.8238
    2SAPS   C34  221   2.005   4.237   9.878  0.3805 -0.1568  0.6168
    2SAPS   H4X  222   2.077   4.311   9.836  1.6291 -0.8665  1.4470
    2SAPS   H4Y  223   1.914   4.298   9.898 -1.2952  0.3132 -6.1607
    2SAPS   C35  224   1.980   4.134   9.771 -0.4453 -0.1983 -0.2392
    2SAPS   H5X  225   1.911   4.061   9.817  0.4028 -0.9587 -0.1332
    2SAPS   H5Y  226   2.076   4.085   9.745 -1.3197 -1.9632 -0.2687
    2SAPS   C36  227   1.915   4.192   9.642 -0.1638  0.3804 -0.4443
    2SAPS   H6X  228   1.949   4.120   9.565 -0.1074 -0.4322  0.3243
    2SAPS   H6Y  229   1.953   4.292   9.612  0.4175  1.1115  2.3584
    2SAPS   C37  230   1.765   4.191   9.650 -0.0893  0.3564  0.1984
    2SAPS   H7X  231   1.728   4.259   9.730  0.3102  2.3817 -1.2521
    2SAPS   H7Y  232   1.714   4.096   9.675 -1.3762  1.0058  0.0865
    2SAPS   C38  233   1.700   4.251   9.523 -0.5982  0.0064 -0.0930
    2SAPS   H8X  234   1.743   4.348   9.490  0.6448 -0.4539  0.1080
    2SAPS   H8Y  235   1.592   4.264   9.544 -0.4767  0.8368  0.0523
    2SAPS   C39  236   1.711   4.151   9.405 -0.4058 -0.5090  0.2586
    2SAPS   H9X  237   1.656   4.057   9.430 -0.6261 -1.1733 -2.4733
    2SAPS   H9Y  238   1.817   4.129   9.384 -0.4164 -0.4651  0.1604
    2SAPS  C310  239   1.642   4.212   9.283  0.3365 -0.7897  0.0024
    2SAPS  H10X  240   1.692   4.308   9.257 -0.2909 -0.6043 -0.5375
    2SAPS  H10Y  241   1.536   4.230   9.310  0.2796 -0.1388 -0.6223
    2SAPS  C311  242   1.647   4.116   9.162  0.6730  0.3403  0.0732
    2SAPS  H11X  243   1.589   4.156   9.076 -1.1706  0.0375  1.1340
    2SAPS  H11Y  244   1.612   4.014   9.189  0.5702  0.0058 -1.2314
    2SAPS  C312  245   1.786   4.088   9.103 -0.9427  0.0279 -0.1433
    2SAPS  H12X  246   1.862   4.034   9.163 -0.1338 -0.1264 -1.2593
    2SAPS  H12Y  247   1.832   4.189   9.091 -2.4423  0.7939  0.2764
    2SAPS  C313  248   1.772   4.013   8.964  0.6177 -0.3611  0.7969
    2SAPS  H13X  249   1.693   4.062   8.904  0.5313 -0.0422  1.1646
    2SAPS  H13Y  250   1.746   3.909   8.992  0.7148  0.1396  2.9390
    2SAPS  C314  251   1.896   4.025   8.878  0.0324 -0.7651  0.4604
    2SAPS  H14X  252   1.982   4.000   8.944  0.5887  3.0085  1.4160
    2SAPS  H14Y  253   1.917   4.132   8.860  3.8605 -1.6788 -1.3829
    2SAPS  C315  254   1.886   3.937   8.751 -0.3007  0.0595 -0.8892
    2SAPS  H15X  255   1.786   3.950   8.704 -0.4012  0.2113 -0.6332
    2SAPS  H15Y  256   1.901   3.832   8.784 -0.8183  0.8781  2.2360
    2SAPS  C316  257   1.992   3.971   8.647  0.2741 -0.1988 -0.5950
    2SAPS  H16X  258   1.966   4.074   8.613  1.3442  0.0514 -0.7065
    2SAPS  H16Y  259   1.989   3.900   8.562 -1.4841 -0.3902 -0.4055
    2SAPS  C317  260   2.143   3.966   8.699  0.2181  0.5298  0.3413
    2SAPS  H17X  261   2.164   3.857   8.704 -3.5578 -0.4741 -2.0778
    2SAPS  H17Y  262   2.153   4.015   8.798  1.1047  2.4203 -0.6399
    2SAPS  C318  263   2.232   4.038   8.593  0.8349  0.0785 -0.5359
    2SAPS  H18X  264   2.229   4.149   8.599 -1.6547  0.0349  0.2440
    2SAPS  H18Y  265   2.206   4.000   8.492 -1.9293 -1.1477  0.5189
    2SAPS  H18Z  266   2.342   4.026   8.603  0.6484 -0.7738  0.7431
    3SAPS     N  267   4.935   6.759  11.160  0.9058 -0.0421 -0.1068
    3SAPS   HN1  268   4.974   6.820  11.234  1.7136 -1.7995  1.0006
    3SAPS   HN2  269   4.851   6.810  11.128  1.3531  0.8683  0.1363
    3SAPS   HN3  270   4.921   6.664  11.199  1.1650 -0.6624 -1.4456
    3SAPS   C12  271   5.035   6.750  11.050 -0.4147 -0.4104 -0.3406
    3SAPS  H12A  272   5.069   6.847  11.017 -0.8376 -0.9173 -2.3744
    3SAPS   C13  273   5.164   6.676  11.098 -0.1052  0.3769  0.0948
    3SAPS  O13A  274   5.163   6.613  11.212 -0.2456 -0.0414  0.0367
    3SAPS  O13B  275   5.265   6.667  11.030 -0.3396  0.5089  0.2117
    3SAPS   C11  276   4.981   6.677  10.927  0.1936 -0.4615 -0.1840
    3SAPS  H11A  277   5.071   6.672  10.863  0.1348  1.4798 -0.4618
    3SAPS  H11B  278   4.903   6.745  10.886 -0.5431 -2.1784 -1.8127
    3SAPS     P  279   4.943   6.423  10.883  0.0705  0.1247 -0.1092
    3SAPS   O13  280   5.087   6.382  10.897 -0.6552 -0.0491 -0.0174
    3SAPS   O14  281   4.840   6.323  10.907  0.2706  0.6535  0.4288
    3SAPS   O12  282   4.918   6.552  10.976  0.3338 -0.1599  0.0342
    3SAPS   O11  283   4.921   6.474  10.734  0.7131 -0.5181 -0.0947
    3SAPS    C1  284   4.787   6.514  10.686 -0.6023  0.5266 -0.2491
    3SAPS    HA  285   4.704   6.441  10.701 -1.2270  1.2575 -0.0485
    3SAPS    HB  286   4.751   6.607  10.736  0.6911  0.6598  0.4635
    3SAPS    C2  287   4.797   6.543  10.532 -1.2372 -0.1244  0.2018
    3SAPS    HS  288   4.695   6.556  10.491 -1.0490 -1.2566 -0.6865
    3SAPS   O21  289   4.875   6.433  10.472  1.1769 -0.7242  0.0034
    3SAPS   C21  290   4.794   6.340  10.411  0.0915  0.1797 -0.0780
    3SAPS   O22  291   4.674   6.355  10.400 -0.1087 -0.5418 -0.2686
    3SAPS   C22  292   4.893   6.220  10.386  0.1723 -0.6426  0.0277
    3SAPS   H2R  293   4.969   6.266  10.320  0.4158 -0.8039  0.1944
    3SAPS   H2S  294   4.945   6.176  10.474  1.6144 -1.8490 -1.3719
    3SAPS    C3  295   4.861   6.682  10.491 -0.0307 -0.1294 -0.3275
    3SAPS    HX  296   4.959   6.692  10.543 -0.6971  2.0919  0.6147
    3SAPS    HY  297   4.791   6.751  10.544 -0.8150 -2.2650  1.5899
    3SAPS   O31  298   4.861   6.708  10.353  0.5617 -0.0757 -0.3760
    3SAPS   C31  299   4.977   6.693  10.291  0.3172  0.2211  0.2062
    3SAPS   O32  300   5.082   6.656  10.340 -0.4727  0.7175 -0.1197
    3SAPS   C32  301   4.967   6.736  10.141 -0.7339 -0.2446  0.3982
    3SAPS   H2X  302   5.036   6.823  10.129 -2.0252  0.8121  0.4132
    3SAPS   H2Y  303   4.865   6.779  10.131 -0.0695  1.8099  1.6798
    3SAPS   C23  304   4.819   6.102  10.309 -0.1746 -0.1799  0.0900
    3SAPS   H3R  305   4.727   6.084  10.367 -0.3589  0.5835  0.0421
    3SAPS   H3S  306   4.871   6.004  10.304  2.1905  0.9576  0.9134
    3SAPS   C24  307   4.792   6.143  10.162 -0.8799 -0.0340 -0.2266
    3SAPS   H4R  308   4.890   6.142  10.110 -1.8406  0.1956 -2.1381
    3SAPS   H4S  309   4.750   6.245  10.150 -0.2265  0.2052 -0.5666
    3SAPS   C25  310   4.694   6.047  10.099  0.0493  0.2043 -0.6165
    3SAPS   H5R  311   4.630   6.007  10.180  0.2291 -1.9869 -1.4684
    3SAPS   C26  312   4.690   5.989   9.974  0.4100 -0.3718 -0.5369
    3SAPS   H6R  313   4.600   5.932   9.949  0.6456 -1.3422  0.7437
    3SAPS   C27  314   4.786   6.027   9.864 -0.3721  0.3028  0.3314
    3SAPS   H7R  315   4.876   6.083   9.896 -0.4621  1.0585 -0.7262
    3SAPS   H7S  316   4.728   6.103   9.808 -0.0459  0.4704  0.2194
    3SAPS   C28  317   4.831   5.906   9.782  0.0725  0.4120  0.2369
    3SAPS   H8R  318   4.930   5.871   9.813  0.5607  0.6872 -0.9935
    3SAPS   C29  319   4.745   5.843   9.695  0.3324  0.3828 -0.3161
    3SAPS   H9R  320   4.771   5.749   9.643 -0.2960  0.4629 -0.7821
    3SAPS  C210  321   4.599   5.875   9.662  0.4636 -0.0781  0.3345
    3SAPS  H10R  322   4.605   5.934   9.568 -1.6826  0.4897  0.5014
    3SAPS  H10S  323   4.559   5.946   9.737  1.2311 -1.5135  2.1974
    3SAPS  C211  324   4.510   5.754   9.640 -0.3465 -0.5604 -0.2205
    3SAPS  H11R  325   4.461   5.725   9.734  0.2575 -0.6301  0.0747
    3SAPS  C212  326   4.503   5.683   9.523  0.1740 -0.4003  0.1536
    3SAPS  H12R  327   4.454   5.585   9.527  0.1094 -0.3450  0.7619
    3SAPS  C213  328   4.586   5.712   9.401 -0.0778  0.2323  0.4132
    3SAPS  H13R  329   4.635   5.621   9.363  0.1066 -2.2775  5.7789
    3SAPS  H13S  330   4.660   5.793   9.420  0.2162 -0.2140  1.2160
    3SAPS  C214  331   4.484   5.770   9.297  0.6274  0.2086 -0.4109
    3SAPS  H14R  332   4.471   5.879   9.294 -0.5125  0.0755 -0.7097
    3SAPS  C215  333   4.424   5.697   9.206  0.2810  0.4615 -0.0913
    3SAPS  H15R  334   4.353   5.740   9.134 -0.6009  0.8450  0.9846
    3SAPS  C216  335   4.449   5.546   9.194 -0.8398 -0.0017  0.1282
    3SAPS  H16R  336   4.354   5.489   9.188 -1.2154  0.5106  0.9343
    3SAPS  H16S  337   4.488   5.502   9.288  0.6128  1.1077  0.0932
    3SAPS  C217  338   4.552   5.522   9.084  0.4792  0.3221  0.1408
    3SAPS  H17R  339   4.657   5.526   9.119 -0.3444  0.0871  2.8638
    3SAPS  H17S  340   4.539   5.588   8.996 -1.0480  0.4446  0.4250
    3SAPS  C218  341   4.542   5.370   9.043 -0.1831 -0.5949  0.8030
    3SAPS  H18R  342   4.432   5.350   9.038 -0.0412 -1.4411  0.8598
    3SAPS  H18S  343   4.585   5.312   9.127  0.0728  0.6427  1.5373
    3SAPS  C219  344   4.595   5.340   8.896 -0.2735 -0.3633 -0.0124
    3SAPS  H19R  345   4.702   5.364   8.881 -0.3299  1.4551  2.1409
    3SAPS  H19S  346   4.545   5.419   8.836 -1.3608 -2.6875 -2.4161
    3SAPS  C220  347   4.547   5.208   8.847  0.7683 -0.1548 -0.3302
    3SAPS  H20R  348   4.614   5.126   8.882  0.6390 -0.5465 -0.9955
    3SAPS  H20S  349   4.527   5.201   8.738 -1.3410 -3.9748  0.1118
    3SAPS  H20T  350   4.453   5.188   8.904 -0.6921  0.7842 -2.3100
    3SAPS   C33  351   5.008   6.623  10.047 -0.3549  0.4065 -0.1722
    3SAPS   H3X  352   5.105   6.578  10.078 -0.7359  0.6677  1.4757
    3SAPS   H3Y  353   5.011   6.669   9.946 -0.4487 -3.0018 -1.8578
    3SAPS   C34  354   4.891   6.529  10.041  0.3070 -0.0092  0.6319
    3SAPS   H4X  355   4.794   6.579  10.019 -0.2745 -1.3927 -0.0899
    3SAPS   H4Y  356   4.891   6.479  10.140 -0.0576  1.2499  1.2924
    3SAPS   C35  357   4.909   6.424   9.932 -0.2006 -0.4402  0.1108
    3SAPS   H5X  358   4.822   6.356   9.941 -0.3830 -0.4153 -1.2608
    3SAPS   H5Y  359   5.005   6.376   9.958  0.4623  0.7810  0.0085
    3SAPS   C36  360   4.932   6.462   9.787 -0.1517 -0.4891 -0.0017
    3SAPS   H6X  361   5.030   6.514   9.773 -0.6080  0.3083 -0.2697
    3SAPS   H6Y  362   4.852   6.529   9.751 -0.9525 -1.3024  0.2191
    3SAPS   C37  363   4.929   6.341   9.689  0.1291  0.4894 -0.4666
    3SAPS   H7X  364   4.839   6.276   9.698  0.8372 -0.7668 -2.1173
    3SAPS   H7Y  365   4.997   6.280   9.752  1.0854  0.3654 -1.5998
    3SAPS   C38  366   4.963   6.345   9.539 -0.4017  0.8715  0.5818
    3SAPS   H8X  367   5.042   6.418   9.512  1.3815 -1.5612 -1.1663
    3SAPS   H8Y  368   4.875   6.384   9.483  0.7092  2.1914 -0.3220
    3SAPS   C39  369   5.004   6.206   9.484  0.5566  0.1115  0.0356
    3SAPS   H9X  370   4.915   6.140   9.490 -0.1711  0.9897 -0.8084
    3SAPS   H9Y  371   5.091   6.179   9.548  0.0327  1.0570  1.1898
    3SAPS  C310  372   5.044   6.219   9.340  0.5380  0.3773 -0.1877
    3SAPS  H10X  373   5.068   6.114   9.313 -0.6788 -0.0777  0.4172
    3SAPS  H10Y  374   5.122   6.294   9.320  0.9248  0.0657  0.1367
    3SAPS  C311  375   4.927   6.253   9.249  0.2915 -0.4701  0.0256
    3SAPS  H11X  376   4.971   6.275   9.149  1.7585  0.2202  0.7995
    3SAPS  H11Y  377   4.878   6.350   9.272 -0.3417  0.2808 -3.7306
    3SAPS  C312  378   4.810   6.148   9.222  0.8286 -0.1065  0.3082
    3SAPS  H12X  379   4.740   6.184   9.143  0.6159 -0.8519  0.1532
    3SAPS  H12Y  380   4.771   6.112   9.320  3.8317  0.7477  1.9468
    3SAPS  C313  381   4.869   6.023   9.154 -0.4948  0.9638  0.9798
    3SAPS  H13X  382   4.888   5.945   9.231  0.7410 -1.1758 -1.3535
    3SAPS  H13Y  383   4.961   6.044   9.095 -0.6682 -0.0397  0.3407
    3SAPS  C314  384   4.784   5.955   9.044 -0.0275  0.0595 -0.1661
    3SAPS  H14X  385   4.784   6.021   8.954  0.5455  0.0537 -0.1743
    3SAPS  H14Y  386   4.681   5.939   9.081 -0.1811 -0.2939 -0.7252
    3SAPS  C315  387   4.847   5.816   8.998 -1.5292 -0.2838 -1.0288
    3SAPS  H15X  388   4.836   5.751   9.088 -0.5501 -0.6731 -1.1881
    3SAPS  H15Y  389   4.953   5.833   8.972 -0.4489 -1.4105  2.1770
    3SAPS  C316  390   4.757   5.762   8.890  0.0258  0.0401  0.3555
    3SAPS  H16X  391   4.748   5.838   8.810  1.0002 -0.7792 -0.5629
    3SAPS  H16Y  392   4.655   5.743   8.928  1.1596 -1.2468  3.0163
    3SAPS  C317  393   4.813   5.633   8.829  0.3327 -0.1939  0.0126
    3SAPS  H17X  394   4.730   5.584   8.773 -0.5422  0.3069  0.8400
    3SAPS  H17Y  395   4.846   5.574   8.918  1.5720 -0.5493 -0.6682
    3SAPS  C318  396   4.931   5.667   8.740 -0.1356  1.2472 -0.3635
    3SAPS  H18X  397   5.011   5.710   8.803  1.3808 -1.0888 -0.5606
    3SAPS  H18Y  398   4.903   5.736   8.657 -2.0968 -0.5751 -1.3504
    3SAPS  H18Z  399   4.978   5.575   8.698  2.2899  3.1378 -2.1178
    4SAPS     N  400   5.434   2.495  10.895  0.0489 -0.3803 -1.1998
    4SAPS   HN1  401   5.434   2.394  10.921 -1.1175  0.1483  1.0758
    4SAPS   HN2  402   5.350   2.515  10.837  0.9575 -0.1507 -2.4913
    4SAPS   HN3  403   5.518   2.515  10.837  1.3056 -1.3329  0.2405
    4SAPS   C12  404   5.438   2.583  11.016 -0.3757  0.0368 -0.0088
    4SAPS  H12A  405   5.361   2.546  11.082  0.7395 -1.2509  0.6174
    4SAPS   C13  406   5.570   2.583  11.101  0.6513  0.1797 -1.1970
    4SAPS  O13A  407   5.640   2.478  11.086 -0.2934  0.4103 -0.3836
    4SAPS  O13B  408   5.580   2.659  11.197  0.3529  0.0439 -0.3333
    4SAPS   C11  409   5.400   2.732  10.973  0.4641  0.3405 -0.2079
    4SAPS  H11A  410   5.476   2.768  10.901 -1.2997  0.9044 -1.8889
    4SAPS  H11B  411   5.386   2.777  11.073  0.2680 -1.6059  0.6973
    4SAPS     P  412   5.220   2.842  10.815 -0.2688  0.0753  0.1552
    4SAPS   O13  413   5.080   2.817  10.778  0.1593 -0.4845 -0.5280
    4SAPS   O14  414   5.240   2.975  10.880  0.1200  0.6198 -0.3031
    4SAPS   O12  415   5.271   2.730  10.909 -0.9180  0.6985 -0.2936
    4SAPS   O11  416   5.302   2.846  10.684 -0.2459  0.3251 -0.2484
    4SAPS    C1  417   5.347   2.735  10.609 -0.2573  0.2499  0.1492
    4SAPS    HA  418   5.458   2.742  10.606 -0.3005  1.1712  0.2272
    4SAPS    HB  419   5.335   2.632  10.648  0.3485  0.0113 -0.2841
    4SAPS    C2  420   5.276   2.727  10.460 -0.7660 -0.5032 -1.1986
    4SAPS    HS  421   5.350   2.666  10.403 -0.8476 -2.5602  0.7596
    4SAPS   O21  422   5.266   2.858  10.402 -0.3043 -0.1952  0.1677
    4SAPS   C21  423   5.377   2.933  10.407  0.1958  0.4426  0.0936
    4SAPS   O22  424   5.493   2.900  10.413  0.3866  0.9414  0.7006
    4SAPS   C22  425   5.326   3.079  10.375 -0.2590  0.0822 -0.2840
    4SAPS   H2R  426   5.217   3.079  10.351 -0.5241 -0.7345  0.8575
    4SAPS   H2S  427   5.338   3.126  10.475  0.7813 -1.9438  0.5997
    4SAPS    C3  428   5.144   2.648  10.462 -0.2822 -0.2913 -0.8812
    4SAPS    HX  429   5.080   2.667  10.551  2.1578 -1.6887  1.2854
    4SAPS    HY  430   5.175   2.545  10.489  2.8454  1.0387  1.2394
    4SAPS   O31  431   5.080   2.632  10.330 -0.0327 -0.0106 -0.4074
    4SAPS   C31  432   5.006   2.743  10.308  0.2130  0.0664  0.0295
    4SAPS   O32  433   5.003   2.848  10.369  0.0940 -0.1205 -0.0207
    4SAPS   C32  434   4.904   2.701  10.199  0.1797 -0.1287 -0.1642
    4SAPS   H2X  435   4.841   2.625  10.250 -0.4440  0.9783  0.7421
    4SAPS   H2Y  436   4.952   2.652  10.111  1.3985  2.6302 -1.1464
    4SAPS   C23  437   5.411   3.162  10.277  0.1905 -0.7336 -0.1397
    4SAPS   H3R  438   5.519   3.134  10.276  0.2667 -0.6244  1.8960
    4SAPS   H3S  439   5.412   3.269  10.308  0.8320 -0.2757 -1.6128
    4SAPS   C24  440   5.353   3.153  10.134 -0.2817 -0.5293  0.3977
    4SAPS   H4R  441   5.243   3.153  10.149 -0.2752  0.0111  0.4737
    4SAPS   H4S  442   5.378   3.058  10.082  1.1544  0.1684 -0.2626
    4SAPS   C25  443   5.403   3.279  10.058  1.0564 -0.1979 -0.3565
    4SAPS   H5R  444   5.343   3.370  10.074 -1.3584 -1.3020 -2.5086
    4SAPS   C26  445   5.509   3.275   9.972  0.1517  0.2967  0.1200
    4SAPS   H6R  446   5.540   3.367   9.922  0.9849  0.4294  0.8542
    4SAPS   C27  447   5.588   3.150   9.945 -0.2964 -0.3553 -0.1231
    4SAPS   H7R  448   5.608   3.101  10.043  0.4319 -0.3109 -0.2442
    4SAPS   H7S  449   5.680   3.199   9.908  0.5115  0.1310  2.3245
    4SAPS   C28  450   5.520   3.069   9.833 -0.6063 -0.4194  0.1485
    4SAPS   H8R  451   5.495   3.127   9.742  2.1245 -2.9787 -2.4617
    4SAPS   C29  452   5.483   2.938   9.828  0.3279  0.0633 -0.4454
    4SAPS   H9R  453   5.438   2.900   9.735  1.0570  2.3444 -1.8152
    4SAPS  C210  454   5.507   2.837   9.938  0.7677  0.5138 -0.2536
    4SAPS  H10R  455   5.426   2.854  10.012  0.7581  0.7848 -0.3260
    4SAPS  H10S  456   5.599   2.855   9.997  0.3269  0.8112  0.3450
    4SAPS  C211  457   5.530   2.701   9.885 -0.3413  0.1836 -0.2671
    4SAPS  H11R  458   5.576   2.691   9.785  1.4392  2.5578  0.2398
    4SAPS  C212  459   5.508   2.591   9.955 -0.4223  0.4983  0.3038
    4SAPS  H12R  460   5.532   2.502   9.896  0.3491  0.7150  0.2898
    4SAPS  C213  461   5.451   2.578  10.095  0.4895  0.4659 -0.3203
    4SAPS  H13R  462   5.410   2.482  10.132  0.3098  1.2916  1.7867
    4SAPS  H13S  463   5.369   2.653  10.090 -0.1091 -0.0736  0.8759
    4SAPS  C214  464   5.554   2.622  10.194  0.1200  0.3690 -0.2563
    4SAPS  H14R  465   5.524   2.722  10.231  2.0784  0.3131  1.6676
    4SAPS  C215  466   5.674   2.569  10.234 -0.2661  0.6091 -0.0399
    4SAPS  H15R  467   5.734   2.630  10.304 -0.3122 -1.3109  1.7557
    4SAPS  C216  468   5.745   2.442  10.196  0.1113 -0.5678 -0.2480
    4SAPS  H16R  469   5.805   2.421  10.287 -1.0080  1.1253  0.9524
    4SAPS  H16S  470   5.810   2.466  10.110 -1.4451 -0.0231 -1.3190
    4SAPS  C217  471   5.675   2.316  10.148  0.0711 -0.0735 -1.1571
    4SAPS  H17R  472   5.626   2.344  10.052 -0.9207 -2.1541 -1.3045
    4SAPS  H17S  473   5.601   2.282  10.224  0.1628 -0.4051 -1.2164
    4SAPS  C218  474   5.752   2.190  10.119 -0.1724  0.5690 -0.6770
    4SAPS  H18R  475   5.733   2.118  10.201  0.6529  1.9645  0.7928
    4SAPS  H18S  476   5.861   2.211  10.126 -0.2510  0.4548  1.3151
    4SAPS  C219  477   5.721   2.129   9.985  0.0782  0.2943 -0.3844
    4SAPS  H19R  478   5.720   2.200   9.900  1.0857  1.0380  0.1972
    4SAPS  H19S  479   5.619   2.086   9.999  0.2454  0.8037  3.3592
    4SAPS  C220  480   5.817   2.019   9.944  0.2076  0.4514 -0.3314
    4SAPS  H20R  481   5.792   1.980   9.843 -0.9116 -0.6209  0.3241
    4SAPS  H20S  482   5.817   1.939  10.021 -1.4203  0.8243  0.0882
    4SAPS  H20T  483   5.918   2.065   9.938  0.8141 -0.6448  0.9570
    4SAPS   C33  484   4.809   2.804  10.133  0.4269 -0.4091  0.5415
    4SAPS   H3X  485   4.793   2.894  10.196  1.9577 -1.0567  1.9406
    4SAPS   H3Y  486   4.712   2.755  10.111 -0.5919  1.3841  0.8281
    4SAPS   C34  487   4.873   2.854   9.997  0.5005  0.6169 -0.1097
    4SAPS   H4X  488   4.805   2.927   9.949 -0.6893 -0.5289 -0.2407
    4SAPS   H4Y  489   4.876   2.767   9.929  0.9656 -0.7439  1.5682
    4SAPS   C35  490   5.008   2.923  10.015 -0.3866  0.0489 -0.5124
    4SAPS   H5X  491   5.085   2.855  10.057  0.2803  0.0425 -1.6837
    4SAPS   H5Y  492   4.994   3.010  10.082  0.8155  0.5953 -0.9351
    4SAPS   C36  493   5.069   2.973   9.882 -0.4670 -0.5235 -0.4894
    4SAPS   H6X  494   5.159   3.035   9.902 -1.0765  0.7187 -1.4576
    4SAPS   H6Y  495   4.997   3.040   9.831 -2.5771 -2.4210 -0.1524
    4SAPS   C37  496   5.106   2.867   9.779 -0.1636  0.0828 -0.4642
    4SAPS   H7X  497   5.011   2.818   9.750 -1.9742  2.2526  1.4191
    4SAPS   H7Y  498   5.170   2.794   9.834 -0.4189 -1.8543 -2.5754
    4SAPS   C38  499   5.175   2.910   9.648 -0.4033  0.4591  0.9001
    4SAPS   H8X  500   5.258   2.976   9.680  1.0528 -0.3653 -0.9856
    4SAPS   H8Y  501   5.100   2.968   9.590  0.6386  1.7878  0.8463
    4SAPS   C39  502   5.224   2.793   9.565 -0.1127 -0.0625  0.1335
    4SAPS   H9X  503   5.145   2.715   9.559  0.1487 -0.2566 -1.1969
    4SAPS   H9Y  504   5.311   2.756   9.623 -1.8246 -0.3228  2.6816
    4SAPS  C310  505   5.279   2.831   9.421  0.4937  0.3688  0.7900
    4SAPS  H10X  506   5.378   2.784   9.409  0.4250 -0.1009  1.9492
    4SAPS  H10Y  507   5.316   2.936   9.412  1.6133 -0.0535  0.3868
    4SAPS  C311  508   5.179   2.785   9.300  0.1145  0.0411  0.0220
    4SAPS  H11X  509   5.081   2.831   9.328  1.2034 -0.0916  4.9774
    4SAPS  H11Y  510   5.179   2.674   9.304 -1.1867  0.0479  1.0120
    4SAPS  C312  511   5.225   2.821   9.164 -0.4316 -0.5810  0.1499
    4SAPS  H12X  512   5.310   2.763   9.123  2.2251  1.8833  1.7859
    4SAPS  H12Y  513   5.255   2.927   9.156 -0.3763 -0.6238 -0.2110
    4SAPS  C313  514   5.101   2.809   9.065  0.3494  0.2395 -0.1439
    4SAPS  H13X  515   5.043   2.896   9.106  0.5115 -0.2447  1.1706
    4SAPS  H13Y  516   5.051   2.712   9.088  0.8589  0.1348  0.5460
    4SAPS  C314  517   5.129   2.815   8.912 -0.4107  0.1151  0.0221
    4SAPS  H14X  518   5.208   2.739   8.891 -0.1004  0.7153 -1.0881
    4SAPS  H14Y  519   5.175   2.914   8.890  1.2211 -0.6262 -0.0962
    4SAPS  C315  520   5.008   2.779   8.829  0.8688  0.4746 -0.2255
    4SAPS  H15X  521   4.954   2.688   8.861  1.2032 -0.8277 -3.0386
    4SAPS  H15Y  522   5.032   2.751   8.724 -1.2037  0.6933 -0.8086
    4SAPS  C316  523   4.904   2.891   8.838 -0.0655  0.2075  0.3588
    4SAPS  H16X  524   4.937   2.981   8.781  1.5782  0.9125  2.3410
    4SAPS  H16Y  525   4.871   2.920   8.940  0.0288  0.1691  0.4006
    4SAPS  C317  526   4.767   2.852   8.780  0.1323 -0.2131  0.3194
    4SAPS  H17X  527   4.690   2.925   8.814  0.9339  1.0027 -0.3934
    4SAPS  H17Y  528   4.734   2.750   8.809 -0.6236 -0.3370 -0.8719
    4SAPS  C318  529   4.780   2.854   8.623  0.2485  0.0410  0.0499
    4SAPS  H18X  530   4.692   2.798   8.585  2.3452 -2.0755 -2.0214
    4SAPS  H18Y  531   4.871   2.803   8.584  0.0783 -0.6355  0.5121
    4SAPS  H18Z  532   4.773   2.958   8.587  0.9257  0.6260  1.5373
    5SAPS     N  533   0.489   0.136  10.917 -0.7249 -0.2114  0.2865
    5SAPS   HN1  534   0.555   0.211  10.944  0.0909 -0.2755 -1.4184
    5SAPS   HN2  535   0.519   0.089  10.830 -1.9487  2.3415 -1.6321
    5SAPS   HN3  536   0.402   0.190  10.898 -1.5212 -2.0732 -1.7644
    5SAPS   C12  537   0.456   0.048  11.035  0.0797 -0.4274  0.4645
    5SAPS  H12A  538   0.552   0.005  11.059 -0.6294 -2.2600  0.1539
    5SAPS   C13  539   0.399   0.117  11.161 -0.0290  0.5779  0.3056
    5SAPS  O13A  540   0.395   0.248  11.160 -0.3308  0.6229 -0.8072
    5SAPS  O13B  541   0.391   0.048  11.266  0.0337 -0.6181  0.4070
    5SAPS   C11  542   0.357  -0.061  10.993  0.1702 -0.5728 -0.1618
    5SAPS  H11A  543   0.314  -0.111  11.082 -0.8208 -1.6880 -1.2302
    5SAPS  H11B  544   0.420  -0.129  10.930 -1.0825  0.2956 -2.4824
    5SAPS     P  545   0.137  -0.084  10.852  0.0089 -0.2343  0.1636
    5SAPS   O13  546   0.157  -0.231  10.868 -0.4002 -0.4793 -0.2650
    5SAPS   O14  547   0.012  -0.030  10.911 -0.1710  0.0964 -0.0896
    5SAPS   O12  548   0.257  -0.003  10.910  0.6995  0.8818 -0.0293
    5SAPS   O11  549   0.147  -0.040  10.700  0.2603  0.2001  0.2307
    5SAPS    C1  550   0.281  -0.015  10.647  0.1987  0.7139 -0.3152
    5SAPS    HA  551   0.315   0.084  10.684  0.8189  0.5069 -0.3291
    5SAPS    HB  552   0.358  -0.089  10.679 -2.1079 -1.5235  0.4021
    5SAPS    C2  553   0.281  -0.014  10.491  0.4218  0.0351  0.4949
    5SAPS    HS  554   0.386  -0.007  10.454  0.6484 -0.9044  0.9040
    5SAPS   O21  555   0.199   0.090  10.435  0.1445 -0.2794  0.3579
    5SAPS   C21  556   0.225   0.135  10.311 -0.6846  0.3295  0.0467
    5SAPS   O22  557   0.330   0.117  10.259 -0.3285 -0.5537 -0.0407
    5SAPS   C22  558   0.112   0.217  10.254  0.1327  0.2925 -0.2256
    5SAPS   H2R  559   0.035   0.153  10.207 -2.2223  0.4439  3.1000
    5SAPS   H2S  560   0.068   0.283  10.332  3.0491  2.0462  0.1293
    5SAPS    C3  561   0.227  -0.151  10.440 -0.3441  1.0119  0.3183
    5SAPS    HX  562   0.116  -0.143  10.434 -0.3523  3.0369  1.9379
    5SAPS    HY  563   0.246  -0.226  10.519 -0.0925 -0.7211 -1.3187
    5SAPS   O31  564   0.285  -0.192  10.310 -0.1952  0.4141 -0.4084
    5SAPS   C31  565   0.203  -0.185  10.206  1.0049 -0.0094 -0.4820
    5SAPS   O32  566   0.082  -0.150  10.213 -0.3196 -0.0751  0.1690
    5SAPS   C32  567   0.270  -0.238  10.080 -0.0816  0.1035  0.3101
    5SAPS   H2X  568   0.203  -0.316  10.038 -0.8899  1.5064 -1.1048
    5SAPS   H2Y  569   0.366  -0.289  10.104 -0.1395 -0.2745 -0.2361
    5SAPS   C23  570   0.169   0.310  10.140  0.3481  0.3957  0.2594
    5SAPS   H3R  571   0.222   0.251  10.062 -0.6475 -1.2897  0.7888
    5SAPS   H3S  572   0.248   0.379  10.176 -0.0472  1.4866 -0.9133
    5SAPS   C24  573   0.059   0.394  10.079 -1.1146  0.0471  0.3884
    5SAPS   H4R  574   0.002   0.443  10.160 -0.1559  1.5355  0.2130
    5SAPS   H4S  575  -0.003   0.318  10.027  2.1538 -3.9782  1.8709
    5SAPS   C25  576   0.122   0.503   9.986 -0.1360  0.6687  0.3947
    5SAPS   H5R  577   0.209   0.553  10.030  1.4882 -1.1445 -0.6191
    5SAPS   C26  578   0.095   0.517   9.857  0.5735 -0.9417 -0.4306
    5SAPS   H6R  579   0.142   0.595   9.796  1.0555 -0.5140  0.4585
    5SAPS   C27  580  -0.010   0.442   9.781 -0.1714  0.3888 -0.2734
    5SAPS   H7R  581  -0.028   0.501   9.688 -0.7939 -0.2218 -0.5468
    5SAPS   H7S  582  -0.109   0.432   9.830 -0.5422  0.8082 -0.9252
    5SAPS   C28  583   0.032   0.299   9.749  0.6256 -0.3286  0.7214
    5SAPS   H8R  584   0.092   0.255   9.829  0.7501 -0.5515  0.5058
    5SAPS   C29  585   0.006   0.237   9.631 -0.0241  0.1632 -0.4897
    5SAPS   H9R  586   0.042   0.136   9.607 -1.2381 -0.3793 -0.1039
    5SAPS  C210  587  -0.067   0.315   9.522 -0.2576  0.6634 -0.1051
    5SAPS  H10R  588   0.009   0.366   9.458  0.8869 -1.2567 -0.3679
    5SAPS  H10S  589  -0.128   0.398   9.563  2.4732  2.6913  0.1817
    5SAPS  C211  590  -0.142   0.215   9.438  0.3753 -0.6158 -0.1705
    5SAPS  H11R  591  -0.219   0.163   9.496  0.0430 -1.0624 -0.9979
    5SAPS  C212  592  -0.124   0.183   9.315  0.2740 -0.4669  0.0181
    5SAPS  H12R  593  -0.186   0.099   9.279 -2.7661  1.5365  0.1478
    5SAPS  C213  594  -0.037   0.245   9.203  0.7024 -0.2382 -0.0390
    5SAPS  H13R  595  -0.040   0.356   9.204  1.4037 -0.2051 -0.4961
    5SAPS  H13S  596  -0.100   0.218   9.116  1.0752  0.0609 -0.4079
    5SAPS  C214  597   0.102   0.211   9.195  0.4545 -0.0541 -1.1833
    5SAPS  H14R  598   0.146   0.190   9.294 -1.4389  1.3798  0.0233
    5SAPS  C215  599   0.170   0.195   9.086 -0.3072 -0.1854  0.5531
    5SAPS  H15R  600   0.274   0.159   9.088  0.1841  0.9224 -1.6443
    5SAPS  C216  601   0.123   0.211   8.945  0.1431  0.0133  0.3767
    5SAPS  H16R  602   0.201   0.278   8.902 -0.3848  0.8431  0.6727
    5SAPS  H16S  603   0.028   0.270   8.940 -0.9438 -1.7215 -0.1622
    5SAPS  C217  604   0.105   0.089   8.860 -0.2388  0.0919 -0.6709
    5SAPS  H17R  605   0.027   0.018   8.893  0.4054 -0.3260 -0.0139
    5SAPS  H17S  606   0.198   0.030   8.852 -1.4965 -1.8849 -1.2463
    5SAPS  C218  607   0.071   0.130   8.716  0.0474 -0.2202  0.1734
    5SAPS  H18R  608  -0.021   0.193   8.722 -1.0191 -1.4043 -2.0737
    5SAPS  H18S  609   0.155   0.197   8.690 -0.2619 -0.1993 -0.8110
    5SAPS  C219  610   0.044   0.022   8.606 -0.3408 -0.0086 -1.0857
    5SAPS  H19R  611  -0.041  -0.049   8.615  0.7478 -1.3834 -1.1880
    5SAPS  H19S  612   0.134  -0.043   8.596 -0.0913 -0.0222  0.9424
    5SAPS  C220  613   0.033   0.092   8.473 -0.4995  0.1340  0.2362
    5SAPS  H20R  614  -0.044   0.172   8.470 -1.0692 -0.4166  0.1759
    5SAPS  H20S  615   0.028   0.022   8.387  4.1777 -1.2873  0.8504
    5SAPS  H20T  616   0.129   0.144   8.451  0.5169 -2.0304 -0.6807
    5SAPS   C33  617   0.286  -0.129   9.975  0.5165 -0.1174  0.3498
    5SAPS   H3X  618   0.352  -0.046  10.008  0.0017  0.4771 -0.0915
    5SAPS   H3Y  619   0.192  -0.071   9.959 -1.0380 -2.9706 -1.6924
    5SAPS   C34  620   0.339  -0.192   9.848  0.5627  0.0490 -0.5120
    5SAPS   H4X  621   0.267  -0.263   9.803  0.1962  0.8070 -1.1587
    5SAPS   H4Y  622   0.432  -0.245   9.879  0.5531 -0.9034 -2.0027
    5SAPS   C35  623   0.364  -0.099   9.734  0.2743  0.0536  0.1018
    5SAPS   H5X  624   0.444  -0.023   9.751 -0.5971  0.8230  0.9090
    5SAPS   H5Y  625   0.274  -0.037   9.717  0.2085 -0.0769 -0.0230
    5SAPS   C36  626   0.379  -0.183   9.600 -0.8094  0.2569 -0.1482
    5SAPS   H6X  627   0.294  -0.254   9.593 -0.0138 -0.8725  1.1681
    5SAPS   H6Y  628   0.472  -0.241   9.615  0.4554  2.6445  1.9611
    5SAPS   C37  629   0.413  -0.106   9.469  0.4109 -0.0168  0.4366
    5SAPS   H7X  630   0.510  -0.054   9.484 -1.9423  4.8272  0.9143
    5SAPS   H7Y  631   0.345  -0.020   9.452  1.2451  0.4439 -0.7245
    5SAPS   C38  632   0.405  -0.196   9.342 -0.2283 -0.6596  0.1572
    5SAPS   H8X  633   0.302  -0.237   9.348 -1.0981  1.2846 -0.5982
    5SAPS   H8Y  634   0.476  -0.282   9.349  0.1920 -0.5333 -1.7859
    5SAPS   C39  635   0.415  -0.120   9.208 -0.2022  0.1452 -0.3488
    5SAPS   H9X  636   0.386  -0.014   9.222 -2.1132 -0.3785 -0.1563
    5SAPS   H9Y  637   0.347  -0.169   9.135  0.0072 -0.2423 -0.2890
    5SAPS  C310  638   0.556  -0.124   9.150  0.1998 -0.6567  0.1910
    5SAPS  H10X  639   0.586  -0.228   9.124 -2.0901 -1.2962 -0.1364
    5SAPS  H10Y  640   0.626  -0.087   9.228  0.3477  2.7221 -1.3683
    5SAPS  C311  641   0.577  -0.030   9.027 -0.3334  0.7066 -0.7755
    5SAPS  H11X  642   0.685  -0.025   9.004 -0.1359 -0.5891 -0.2097
    5SAPS  H11Y  643   0.545   0.071   9.060 -1.6421 -0.2035  0.9081
    5SAPS  C312  644   0.486  -0.077   8.907 -0.3793  0.5640 -0.4491
    5SAPS  H12X  645   0.378  -0.086   8.932 -0.4803  0.3049 -0.9621
    5SAPS  H12Y  646   0.522  -0.179   8.884 -1.9276  0.5610 -3.3461
    5SAPS  C313  647   0.494   0.019   8.789 -0.2313 -0.2206 -0.2875
    5SAPS  H13X  648   0.601   0.045   8.774  0.0983 -1.4174 -0.1007
    5SAPS  H13Y  649   0.430   0.103   8.823 -1.9781 -1.4851 -0.3656
    5SAPS  C314  650   0.434  -0.040   8.668  0.2588  0.2407 -0.1596
    5SAPS  H14X  651   0.437   0.033   8.585  0.1686 -0.3704 -0.7066
    5SAPS  H14Y  652   0.331  -0.081   8.680  0.7038 -0.4501  1.8155
    5SAPS  C315  653   0.507  -0.158   8.612 -0.4785  0.0511  0.1042
    5SAPS  H15X  654   0.456  -0.193   8.520  0.0651 -0.5681  0.0308
    5SAPS  H15Y  655   0.501  -0.244   8.683  0.3887  1.6469  2.2376
    5SAPS  C316  656   0.661  -0.147   8.582 -0.7759 -0.0171 -0.2813
    5SAPS  H16X  657   0.693  -0.249   8.553  0.1012  0.5741 -1.4800
    5SAPS  H16Y  658   0.727  -0.124   8.668 -2.2258 -3.4583  1.9846
    5SAPS  C317  659   0.678  -0.045   8.477  0.1383  0.4129  0.1727
    5SAPS  H17X  660   0.666   0.052   8.531 -1.3373 -0.0457  0.7013
    5SAPS  H17Y  661   0.600  -0.047   8.398  1.6290  2.4560 -1.4934
    5SAPS  C318  662   0.821  -0.046   8.425 -0.0728  0.0269 -0.2439
    5SAPS  H18X  663   0.859  -0.142   8.382  1.2888  0.3653  0.1351
    5SAPS  H18Y  664   0.882  -0.023   8.515 -0.3448  0.5607 -0.1960
    5SAPS  H18Z  665   0.828   0.033   8.348 -1.1544  0.8724  0.5136
    6SAPS     N  666   1.486   4.000  11.239  0.5523 -0.3178  1.0083
    6SAPS   HN1  667   1.438   4.031  11.153 -0.6821 -1.2850  1.3200
    6SAPS   HN2  668   1.476   3.896  11.240  0.4506 -0.3375 -0.4056
    6SAPS   HN3  669   1.442   4.052  11.317 -1.5938  0.5534 -0.6889
    6SAPS   C12  670   1.633   4.038  11.220 -0.1431  0.3010 -0.2734
    6SAPS  H12A  671   1.643   4.145  11.232 -0.6373  0.1119  2.4888
    6SAPS   C13  672   1.723   3.948  11.309  0.8511 -0.6027 -0.1503
    6SAPS  O13A  673   1.671   3.852  11.373 -0.4924 -0.6379  0.0419
    6SAPS  O13B  674   1.843   3.978  11.326 -0.4693 -0.5573 -0.0891
    6SAPS   C11  675   1.671   3.994  11.068  0.1138  0.2192  0.2536
    6SAPS  H11A  676   1.619   3.898  11.049  1.3056 -0.0102 -2.2790
    6SAPS  H11B  677   1.780   3.976  11.070  0.1845  0.5560 -0.2903
    6SAPS     P  678   1.508   4.105  10.895 -0.1136 -0.6014  0.3060
    6SAPS   O13  679   1.406   4.033  10.971 -0.2519 -0.0907 -0.3019
    6SAPS   O14  680   1.501   4.251  10.864 -0.3654  0.6315 -0.5185
    6SAPS   O12  681   1.648   4.082  10.952 -0.4798  0.0248 -0.3501
    6SAPS   O11  682   1.521   4.031  10.760 -0.6366 -0.0325  0.0451
    6SAPS    C1  683   1.613   4.061  10.653  0.4075  0.2191 -0.2214
    6SAPS    HA  684   1.660   4.157  10.684 -0.0917 -0.3197  2.4779
    6SAPS    HB  685   1.696   3.988  10.649  1.5211  1.3627  0.9557
    6SAPS    C2  686   1.564   4.087  10.507  0.1025  0.5066  0.1495
    6SAPS    HS  687   1.497   4.175  10.501  0.6342  0.8516 -1.0327
    6SAPS   O21  688   1.492   3.975  10.450 -0.1860  0.7780  0.9805
    6SAPS   C21  689   1.373   4.004  10.373 -0.0577  0.3880  0.0030
    6SAPS   O22  690   1.334   4.119  10.361  0.3168  0.0118  0.6025
    6SAPS   C22  691   1.321   3.876  10.301 -0.6299  0.0261 -0.3926
    6SAPS   H2R  692   1.366   3.793  10.360 -1.1736 -2.2210 -2.9626
    6SAPS   H2S  693   1.210   3.870  10.306 -0.7061  1.8601  2.0857
    6SAPS    C3  694   1.686   4.127  10.415  0.1002 -0.3613  0.3042
    6SAPS    HX  695   1.752   4.038  10.414  0.7754  0.0046 -3.8775
    6SAPS    HY  696   1.737   4.213  10.464 -2.3050  0.7542  1.0137
    6SAPS   O31  697   1.635   4.142  10.279  0.2169 -0.0068  0.2353
    6SAPS   C31  698   1.613   4.271  10.258  0.2820 -0.0959  0.1500
    6SAPS   O32  699   1.600   4.358  10.338 -0.6673 -0.1183  0.0798
    6SAPS   C32  700   1.600   4.299  10.110  0.3165 -0.2624 -0.3326
    6SAPS   H2X  701   1.689   4.254  10.061  0.3099 -2.7417  1.7449
    6SAPS   H2Y  702   1.599   4.410  10.100 -3.6330 -0.2613 -1.3620
    6SAPS   C23  703   1.381   3.877  10.158  0.0242 -0.1960 -0.3052
    6SAPS   H3R  704   1.492   3.870  10.166  0.4123  1.7717 -2.6644
    6SAPS   H3S  705   1.368   3.980  10.119  0.9223  0.3387  0.7621
    6SAPS   C24  706   1.322   3.775  10.062  0.5697 -0.4382 -0.5447
    6SAPS   H4R  707   1.376   3.783   9.965 -0.1012 -1.4730 -1.0125
    6SAPS   H4S  708   1.212   3.787  10.057  0.4630  0.3069  2.0779
    6SAPS   C25  709   1.347   3.638  10.118  0.4675  0.0290 -0.0881
    6SAPS   H5R  710   1.338   3.630  10.228 -0.5823 -0.6122 -0.2081
    6SAPS   C26  711   1.387   3.535  10.052 -0.7538  0.3751  0.3555
    6SAPS   H6R  712   1.380   3.440  10.108 -2.5673 -0.6435 -1.4718
    6SAPS   C27  713   1.410   3.526   9.899  0.2409  0.4243 -0.2954
    6SAPS   H7R  714   1.512   3.486   9.883 -0.1297 -0.3180 -0.8280
    6SAPS   H7S  715   1.394   3.622   9.845 -0.6061  1.6117  1.9292
    6SAPS   C28  716   1.314   3.417   9.847  0.3472  0.6048 -0.0754
    6SAPS   H8R  717   1.249   3.365   9.920 -0.7450 -1.3757 -2.3339
    6SAPS   C29  718   1.313   3.382   9.716 -0.4246  0.1305  0.3787
    6SAPS   H9R  719   1.242   3.306   9.680 -0.2208 -0.1799  0.6180
    6SAPS  C210  720   1.400   3.444   9.607  0.0475 -0.0035  0.9508
    6SAPS  H10R  721   1.447   3.361   9.551  0.6171  1.2821 -0.5587
    6SAPS  H10S  722   1.494   3.491   9.644  1.8585 -1.5307 -1.4525
    6SAPS  C211  723   1.315   3.538   9.520 -0.5275 -0.2882 -0.3631
    6SAPS  H11R  724   1.281   3.634   9.563  0.2087  0.7406 -1.9693
    6SAPS  C212  725   1.310   3.529   9.383  0.1239  0.0953  0.4711
    6SAPS  H12R  726   1.261   3.608   9.324  0.9928  0.5255  0.3180
    6SAPS  C213  727   1.371   3.418   9.300 -0.1593  0.1035  0.1748
    6SAPS  H13R  728   1.481   3.416   9.310 -0.2536 -1.3548  1.0994
    6SAPS  H13S  729   1.354   3.453   9.195 -0.3322 -1.7881 -0.4679
    6SAPS  C214  730   1.317   3.274   9.316  0.4430  0.1944  0.2642
    6SAPS  H14R  731   1.324   3.225   9.414  0.0873 -1.1546 -0.3501
    6SAPS  C215  732   1.245   3.204   9.222  0.0681  0.1241 -0.1653
    6SAPS  H15R  733   1.214   3.102   9.248 -0.3522 -0.5280 -2.9366
    6SAPS  C216  734   1.209   3.253   9.082  0.1309  0.4447 -0.4286
    6SAPS  H16R  735   1.257   3.349   9.052  1.0052  0.4420  0.8759
    6SAPS  H16S  736   1.099   3.264   9.082 -0.2948 -2.7514  1.1889
    6SAPS  C217  737   1.245   3.153   8.974 -0.1034 -0.1840 -0.2613
    6SAPS  H17R  738   1.196   3.055   8.993  1.6032 -1.3503 -1.5633
    6SAPS  H17S  739   1.351   3.120   8.974  0.3821  1.2924  0.7230
    6SAPS  C218  740   1.209   3.202   8.834 -0.5321 -0.0373 -0.6308
    6SAPS  H18R  741   1.266   3.291   8.801 -0.1867  0.2341  0.6376
    6SAPS  H18S  742   1.100   3.227   8.837 -0.1770  1.5328  0.0939
    6SAPS  C219  743   1.244   3.079   8.736 -0.3434 -0.8132 -0.4827
    6SAPS  H19R  744   1.194   3.101   8.639 -0.6344  0.4533 -0.0746
    6SAPS  H19S  745   1.203   2.979   8.760 -0.1495 -1.3208 -2.1455
    6SAPS  C220  746   1.396   3.071   8.714 -0.4707 -0.4893  0.3194
    6SAPS  H20R  747   1.445   3.170   8.700  0.0787 -0.1349  3.7244
    6SAPS  H20S  748   1.420   2.993   8.638  2.2824  0.1439  0.4028
    6SAPS  H20T  749   1.447   3.030   8.804 -1.4390  0.9480  1.5614
    6SAPS   C33  750   1.484   4.241  10.041 -0.6271  0.5625 -0.0925
    6SAPS   H3X  751   1.393   4.248  10.104 -0.9491  0.1225 -0.5047
    6SAPS   H3Y  752   1.497   4.132  10.022  1.6376  0.3455  2.1666
    6SAPS   C34  753   1.452   4.316   9.914  0.2153  0.0571  0.0606
    6SAPS   H4X  754   1.528   4.278   9.843 -0.4072 -0.5598 -0.2829
    6SAPS   H4Y  755   1.470   4.422   9.941  1.2734 -0.0171 -0.3107
    6SAPS   C35  756   1.318   4.298   9.851  0.8362  0.3926 -0.9643
    6SAPS   H5X  757   1.240   4.296   9.930  0.4162 -0.2402 -1.3940
    6SAPS   H5Y  758   1.327   4.205   9.792  0.9355  0.1031 -0.4948
    6SAPS   C36  759   1.282   4.409   9.759  0.4803  0.6025  0.9761
    6SAPS   H6X  760   1.353   4.416   9.674  0.8771  1.1260  1.3388
    6SAPS   H6Y  761   1.282   4.510   9.806 -0.8188  1.6625 -1.1396
    6SAPS   C37  762   1.145   4.376   9.680 -0.1798 -0.2814 -0.7950
    6SAPS   H7X  763   1.071   4.349   9.759  1.1483 -1.7534  0.0065
    6SAPS   H7Y  764   1.162   4.278   9.630 -1.1434 -0.7882 -0.1721
    6SAPS   C38  765   1.095   4.478   9.579  0.0499  0.4618  0.1004
    6SAPS   H8X  766   1.087   4.573   9.636 -2.1623  0.4688 -0.1662
    6SAPS   H8Y  767   0.999   4.439   9.539  1.0865  1.5488 -4.0316
    6SAPS   C39  768   1.185   4.516   9.457  0.0709  0.6569  0.1452
    6SAPS   H9X  769   1.286   4.554   9.482  0.3004  0.9481 -1.1466
    6SAPS   H9Y  770   1.122   4.588   9.401 -2.7126 -1.1757  0.6862
    6SAPS  C310  771   1.203   4.391   9.369  0.9799  0.3253  0.3073
    6SAPS  H10X  772   1.102   4.358   9.337 -0.1827  2.4538  1.5771
    6SAPS  H10Y  773   1.250   4.311   9.431 -1.1330 -1.1875  0.0677
    6SAPS  C311  774   1.297   4.407   9.250 -0.1286 -0.3286 -0.2968
    6SAPS  H11X  775   1.302   4.320   9.182  0.6641  0.4110 -1.2221
    6SAPS  H11Y  776   1.399   4.421   9.292 -0.2735  0.3690 -0.1634
    6SAPS  C312  777   1.259   4.535   9.163 -0.1014  0.5983  0.6943
    6SAPS  H12X  778   1.255   4.624   9.229  0.0676  1.2430 -0.1463
    6SAPS  H12Y  779   1.154   4.520   9.131 -0.9985  1.5306  3.0188
    6SAPS  C313  780   1.336   4.564   9.034 -0.1865  0.1996  0.9165
    6SAPS  H13X  781   1.444   4.573   9.059  0.0268 -0.8139  0.3804
    6SAPS  H13Y  782   1.307   4.665   8.998  1.9638  0.1819 -1.1043
    6SAPS  C314  783   1.317   4.455   8.926 -0.0116  0.1988 -0.2261
    6SAPS  H14X  784   1.208   4.458   8.903 -0.5680  1.3442  2.2089
    6SAPS  H14Y  785   1.351   4.356   8.962 -0.2082  0.0837 -0.3542
    6SAPS  C315  786   1.392   4.488   8.795  0.8488  0.3307  0.0404
    6SAPS  H15X  787   1.357   4.585   8.753 -0.9434 -0.3623 -0.1380
    6SAPS  H15Y  788   1.383   4.407   8.719  2.0618  0.7659 -0.5838
    6SAPS  C316  789   1.543   4.485   8.824  0.4846 -0.4555 -0.0149
    6SAPS  H16X  790   1.565   4.384   8.864 -1.8546 -0.1076  2.4384
    6SAPS  H16Y  791   1.569   4.553   8.908  0.1042 -0.2566 -0.0528
    6SAPS  C317  792   1.621   4.508   8.691 -0.0132 -0.1006 -0.2607
    6SAPS  H17X  793   1.591   4.609   8.657 -1.1643  0.5424  2.4496
    6SAPS  H17Y  794   1.587   4.430   8.619  3.0558 -2.4495  0.6072
    6SAPS  C318  795   1.771   4.490   8.707 -0.0385 -0.3531 -0.5362
    6SAPS  H18X  796   1.803   4.554   8.791 -2.1691 -0.1859  0.2082
    6SAPS  H18Y  797   1.827   4.512   8.613  1.8535  0.3342  0.7047
    6SAPS  H18Z  798   1.800   4.384   8.727 -2.6535 -1.2986 -1.3834
    7SAPS     N  799   0.653   3.966  10.760  0.3532 -0.1239 -0.2008
    7SAPS   HN1  800   0.593   3.962  10.675 -1.3251 -0.1787  0.9310
    7SAPS   HN2  801   0.744   3.915  10.755  1.7221  2.1054  0.5739
    7SAPS   HN3  802   0.602   3.912  10.833  1.9948 -0.1435  0.9884
    7SAPS   C12  803   0.680   4.106  10.800  0.0069 -0.2921 -0.1403
    7SAPS  H12A  804   0.587   4.140  10.842 -1.3393  0.8668 -3.6648
    7SAPS   C13  805   0.793   4.121  10.905 -0.3664 -0.4071  0.3784
    7SAPS  O13A  806   0.829   4.023  10.969  0.0882  0.7607 -0.1103
    7SAPS  O13B  807   0.800   4.231  10.963 -0.1612 -0.5105 -0.2341
    7SAPS   C11  808   0.707   4.193  10.677 -0.4349  0.1929 -0.2179
    7SAPS  H11A  809   0.812   4.177  10.643 -0.8448 -2.3236 -0.5557
    7SAPS  H11B  810   0.703   4.296  10.717  0.4287  0.1495  0.0244
    7SAPS     P  811   0.478   4.257  10.564  0.4172  0.3086  0.2699
    7SAPS   O13  812   0.387   4.188  10.469  0.6252  0.6414 -0.2753
    7SAPS   O14  813   0.421   4.282  10.695  0.0357 -0.6704 -0.3541
    7SAPS   O12  814   0.614   4.174  10.571  0.8225 -0.2979 -0.5575
    7SAPS   O11  815   0.507   4.385  10.491  0.5499 -0.1607 -0.5327
    7SAPS    C1  816   0.639   4.422  10.444  0.4851  0.5735 -0.1575
    7SAPS    HA  817   0.650   4.527  10.476 -2.4059  0.9929 -0.2805
    7SAPS    HB  818   0.723   4.364  10.486  1.4272  2.1261  0.1637
    7SAPS    C2  819   0.644   4.419  10.296 -0.3383  0.3169  0.3596
    7SAPS    HS  820   0.580   4.504  10.264  1.2312  1.1056 -0.8895
    7SAPS   O21  821   0.600   4.291  10.243 -0.0814  0.1656 -0.4706
    7SAPS   C21  822   0.492   4.302  10.165 -0.2859 -0.4537  0.6592
    7SAPS   O22  823   0.447   4.406  10.117 -0.0205 -0.5443  0.1651
    7SAPS   C22  824   0.434   4.170  10.119 -0.2216 -0.1745 -0.2816
    7SAPS   H2R  825   0.511   4.131  10.049 -1.9971 -1.3934 -1.6388
    7SAPS   H2S  826   0.433   4.100  10.205  0.1894  0.5185  0.3010
    7SAPS    C3  827   0.790   4.449  10.249 -0.0236  0.6576 -0.4718
    7SAPS    HX  828   0.843   4.352  10.259  0.2927  0.9694  1.0855
    7SAPS    HY  829   0.846   4.518  10.316  2.8069 -0.7572 -1.2249
    7SAPS   O31  830   0.784   4.500  10.115  0.0328  0.2157 -0.0736
    7SAPS   C31  831   0.748   4.627  10.095 -0.4372 -0.1955  0.3957
    7SAPS   O32  832   0.709   4.704  10.179 -0.1449 -0.6075 -0.4491
    7SAPS   C32  833   0.774   4.661   9.947 -0.2100  0.3011  0.8645
    7SAPS   H2X  834   0.703   4.609   9.880  0.1520  1.7763 -0.7419
    7SAPS   H2Y  835   0.865   4.616   9.903 -2.2270  0.4029 -3.9780
    7SAPS   C23  836   0.291   4.175  10.058 -0.4828  0.7100 -0.0218
    7SAPS   H3R  837   0.231   4.248  10.117 -0.7554 -0.2434  0.9118
    7SAPS   H3S  838   0.241   4.076  10.059  1.3568 -0.3169 -1.6873
    7SAPS   C24  839   0.294   4.214   9.906  0.0756  0.2153  0.8626
    7SAPS   H4R  840   0.360   4.139   9.859  0.5995  1.1608  0.0589
    7SAPS   H4S  841   0.346   4.312   9.906 -0.4314  0.5019 -0.3293
    7SAPS   C25  842   0.154   4.217   9.843  0.1884 -0.4257 -0.4163
    7SAPS   H5R  843   0.076   4.245   9.916  1.4889  3.7687 -0.3738
    7SAPS   C26  844   0.118   4.174   9.720  0.2979 -0.3326 -0.0872
    7SAPS   H6R  845   0.010   4.181   9.700  0.2805 -0.7108 -0.1372
    7SAPS   C27  846   0.222   4.139   9.617  0.6914  0.2974  0.6659
    7SAPS   H7R  847   0.187   4.064   9.543  0.1178 -1.7389  2.8651
    7SAPS   H7S  848   0.307   4.084   9.664 -0.2279 -2.0105 -0.2070
    7SAPS   C28  849   0.260   4.260   9.541 -0.7082 -0.1489  0.4204
    7SAPS   H8R  850   0.179   4.307   9.484  0.0870 -0.0844 -0.6963
    7SAPS   C29  851   0.384   4.307   9.522 -0.3249  0.1017 -0.1333
    7SAPS   H9R  852   0.380   4.395   9.456  2.4415  2.9970  3.1501
    7SAPS  C210  853   0.515   4.261   9.577  0.0488  0.3060 -0.3037
    7SAPS  H10R  854   0.550   4.189   9.500  2.1568  1.2621 -0.3213
    7SAPS  H10S  855   0.499   4.202   9.670  1.7086 -0.0550 -0.2074
    7SAPS  C211  856   0.598   4.376   9.613 -0.2520 -0.0086 -0.0229
    7SAPS  H11R  857   0.588   4.414   9.716 -1.5435 -1.8754  0.6076
    7SAPS  C212  858   0.706   4.412   9.544  0.6558  0.1214  0.3612
    7SAPS  H12R  859   0.774   4.487   9.586  1.3979  0.9142 -2.0680
    7SAPS  C213  860   0.754   4.349   9.417 -0.1926  0.8884 -0.3111
    7SAPS  H13R  861   0.665   4.309   9.363 -0.1717  0.3999  0.0216
    7SAPS  H13S  862   0.813   4.264   9.455 -0.9503  1.4074  2.1742
    7SAPS  C214  863   0.832   4.433   9.312  0.9948  0.2797  0.3033
    7SAPS  H14R  864   0.837   4.543   9.323 -2.6672  0.8917 -2.2415
    7SAPS  C215  865   0.868   4.378   9.198 -0.5934  0.5762  0.1789
    7SAPS  H15R  866   0.936   4.433   9.131  1.2933 -0.8043  0.8803
    7SAPS  C216  867   0.845   4.237   9.157  0.5993 -0.2093 -0.5977
    7SAPS  H16R  868   0.747   4.194   9.188  1.1882 -1.5493 -0.5085
    7SAPS  H16S  869   0.926   4.175   9.200  0.0821  0.2225  1.0737
    7SAPS  C217  870   0.845   4.203   9.007  0.3831  0.1797 -0.0695
    7SAPS  H17R  871   0.843   4.092   9.004 -2.1727  0.1509  0.8799
    7SAPS  H17S  872   0.929   4.245   8.948  1.3058 -1.6752 -0.1364
    7SAPS  C218  873   0.711   4.225   8.935 -0.6138  0.3260  0.5673
    7SAPS  H18R  874   0.638   4.184   9.008  0.8417 -0.5130  1.6019
    7SAPS  H18S  875   0.698   4.172   8.839  0.5370 -0.1376  0.6468
    7SAPS  C219  876   0.675   4.372   8.917  0.1836 -0.3932  0.2400
    7SAPS  H19R  877   0.667   4.426   9.013 -1.3586  0.6188 -0.4126
    7SAPS  H19S  878   0.575   4.377   8.870  0.5054  1.3745 -0.3107
    7SAPS  C220  879   0.775   4.437   8.822 -0.1646  0.4812  0.3823
    7SAPS  H20R  880   0.780   4.386   8.723  1.1536  0.8597  0.2395
    7SAPS  H20S  881   0.878   4.434   8.862  0.7203 -1.7846 -1.7907
    7SAPS  H20T  882   0.741   4.540   8.797 -1.2364  0.0549  0.0144
    7SAPS   C33  883   0.769   4.804   9.918 -0.7628  0.0904 -0.0588
    7SAPS   H3X  884   0.862   4.848   9.960  0.1933 -1.2879 -0.6368
    7SAPS   H3Y  885   0.678   4.849   9.964  0.9837  0.1620  3.7499
    7SAPS   C34  886   0.766   4.843   9.766  0.6024 -0.0728  0.7906
    7SAPS   H4X  887   0.862   4.812   9.719  0.1662 -1.4052  0.7390
    7SAPS   H4Y  888   0.772   4.952   9.745  1.9360 -0.3790 -0.6044
    7SAPS   C35  889   0.646   4.786   9.688 -0.0152  0.6366  0.0470
    7SAPS   H5X  890   0.555   4.832   9.732  0.1615  1.6807 -0.6426
    7SAPS   H5Y  891   0.625   4.679   9.709  0.4447  0.7528  1.1500
    7SAPS   C36  892   0.659   4.805   9.534  0.3255 -0.0397  0.1525
    7SAPS   H6X  893   0.753   4.767   9.489 -1.5551 -1.3472 -3.0639
    7SAPS   H6Y  894   0.653   4.916   9.521  0.3374 -0.2087 -1.5754
    7SAPS   C37  895   0.540   4.747   9.453 -0.2348 -0.2139 -0.1050
    7SAPS   H7X  896   0.445   4.762   9.507 -0.5383  0.5942 -0.8498
    7SAPS   H7Y  897   0.561   4.638   9.447 -1.9549 -1.1632  5.5341
    7SAPS   C38  898   0.525   4.807   9.312 -0.0287  0.3233 -0.3627
    7SAPS   H8X  899   0.627   4.799   9.268 -0.0154  2.5060 -0.8306
    7SAPS   H8Y  900   0.492   4.913   9.325  2.0372  0.7448  2.4634
    7SAPS   C39  901   0.421   4.736   9.227  0.5998 -0.6101 -0.1661
    7SAPS   H9X  902   0.397   4.796   9.137  0.3144 -1.0222 -0.3669
    7SAPS   H9Y  903   0.327   4.725   9.285  1.5898 -0.0380  1.6416
    7SAPS  C310  904   0.462   4.589   9.191  0.8876 -0.1130  0.2480
    7SAPS  H10X  905   0.464   4.525   9.281 -1.4708  0.0542  0.5012
    7SAPS  H10Y  906   0.567   4.600   9.156  0.6420  0.7956 -0.2492
    7SAPS  C311  907   0.384   4.527   9.077 -0.5487 -0.4239  0.3121
    7SAPS  H11X  908   0.424   4.424   9.062 -1.7394 -1.1687  2.0310
    7SAPS  H11Y  909   0.416   4.592   8.992  0.3664  1.5292  2.0625
    7SAPS  C312  910   0.236   4.517   9.098  0.5199 -0.0059  0.2860
    7SAPS  H12X  911   0.198   4.596   9.167 -1.3671  0.2857 -1.0030
    7SAPS  H12Y  912   0.194   4.423   9.141  0.4542  0.4191  1.1807
    7SAPS  C313  913   0.149   4.543   8.970 -0.1941  0.0061 -0.0206
    7SAPS  H13X  914   0.128   4.652   8.970  0.8580  0.2250 -0.0316
    7SAPS  H13Y  915   0.050   4.494   8.974 -0.0472 -0.3780 -0.8849
    7SAPS  C314  916   0.212   4.487   8.839 -0.4116 -0.9518  0.1238
    7SAPS  H14X  917   0.231   4.378   8.850  2.5174 -0.5650 -0.4164
    7SAPS  H14Y  918   0.307   4.536   8.812  0.1722 -2.9947 -1.7872
    7SAPS  C315  919   0.112   4.514   8.724 -0.5069 -0.3457 -0.1667
    7SAPS  H15X  920   0.104   4.622   8.700 -1.5789 -0.6663 -1.3238
    7SAPS  H15Y  921   0.013   4.493   8.770 -0.3864 -0.2997  0.1169
    7SAPS  C316  922   0.145   4.451   8.592 -0.1565  0.4513 -0.1231
    7SAPS  H16X  923   0.134   4.341   8.602  0.1933  0.4862  0.7055
    7SAPS  H16Y  924   0.247   4.477   8.559  0.4984  0.2424  1.6098
    7SAPS  C317  925   0.049   4.497   8.478  0.9526 -0.2780  0.0376
    7SAPS  H17X  926   0.039   4.606   8.492  0.0524 -0.6080  2.4891
    7SAPS  H17Y  927  -0.057   4.470   8.498  0.5841  2.0671  1.7090
    7SAPS  C318  928   0.101   4.455   8.341 -0.1831 -0.2371 -0.1493
    7SAPS  H18X  929   0.200   4.503   8.322 -0.1692  0.1411  0.8271
    7SAPS  H18Y  930   0.024   4.487   8.267 -0.2194  0.2927  0.1141
    7SAPS  H18Z  931   0.094   4.344   8.334  1.5834 -0.3593 -0.3879
    8SAPS     N  932   0.451   1.830  10.929  0.0405  0.2208 -0.8757
    8SAPS   HN1  933   0.468   1.755  10.860  1.9751 -1.1950  1.0187
    8SAPS   HN2  934   0.363   1.884  10.915 -0.1109  0.1641 -0.2146
    8SAPS   HN3  935   0.533   1.893  10.922  0.9138 -0.8395 -0.3417
    8SAPS   C12  936   0.463   1.782  11.073  0.2072 -0.1739 -1.1145
    8SAPS  H12A  937   0.565   1.753  11.094 -0.2939  0.5465  3.0733
    8SAPS   C13  938   0.421   1.887  11.184  0.7109 -0.0370  0.0704
    8SAPS  O13A  939   0.385   2.002  11.143 -0.0992 -0.2908  0.1626
    8SAPS  O13B  940   0.444   1.851  11.301  0.0879 -0.7361  1.2087
    8SAPS   C11  941   0.365   1.659  11.099 -0.4768  0.4010 -0.3720
    8SAPS  H11A  942   0.379   1.635  11.207  0.5079 -1.7429 -0.9262
    8SAPS  H11B  943   0.402   1.572  11.041 -1.2346  0.9976 -1.8233
    8SAPS     P  944   0.128   1.574  11.065 -0.1696 -0.4089 -0.0040
    8SAPS   O13  945   0.192   1.445  11.101 -0.2192 -0.4694 -0.0423
    8SAPS   O14  946  -0.001   1.618  11.125  0.3319  0.1860 -0.0066
    8SAPS   O12  947   0.230   1.690  11.074  0.0897 -0.4892 -0.2182
    8SAPS   O11  948   0.107   1.567  10.905 -0.4926  0.0565  0.1598
    8SAPS    C1  949   0.212   1.537  10.812  0.4551  0.2217 -0.1205
    8SAPS    HA  950   0.241   1.626  10.752 -1.0031 -0.9086 -2.6768
    8SAPS    HB  951   0.300   1.491  10.861 -1.8549 -1.5738  2.5989
    8SAPS    C2  952   0.170   1.416  10.716 -0.0963  0.2505 -0.5392
    8SAPS    HS  953   0.154   1.329  10.784 -0.0632  1.2508  0.7929
    8SAPS   O21  954   0.288   1.385  10.639  0.0580  0.0833  0.2486
    8SAPS   C21  955   0.292   1.258  10.587 -0.7480  0.5915 -0.0389
    8SAPS   O22  956   0.215   1.169  10.612  0.1483 -0.6235  0.6361
    8SAPS   C22  957   0.415   1.234  10.498  0.5532 -0.0228  1.0290
    8SAPS   H2R  958   0.467   1.329  10.476 -1.2625  0.6621 -0.4585
    8SAPS   H2S  959   0.471   1.151  10.548  1.8891 -0.2112 -0.6873
    8SAPS    C3  960   0.043   1.436  10.633  0.0467 -0.7136  0.0414
    8SAPS    HX  961  -0.032   1.463  10.710  1.5925 -1.4023  1.8849
    8SAPS    HY  962   0.015   1.340  10.583  2.2028 -0.4846 -1.7665
    8SAPS   O31  963   0.070   1.541  10.549  0.1499 -0.7028 -0.4895
    8SAPS   C31  964   0.123   1.517  10.430  0.2503  0.0742 -0.5414
    8SAPS   O32  965   0.125   1.408  10.376 -0.3275  0.0665 -0.1981
    8SAPS   C32  966   0.156   1.654  10.357  0.0082  0.3433 -0.2032
    8SAPS   H2X  967   0.197   1.722  10.434  2.4367 -0.3448 -0.8076
    8SAPS   H2Y  968   0.062   1.701  10.320  0.0496  0.7534  0.2132
    8SAPS   C23  969   0.374   1.179  10.361  0.7819 -0.5415 -0.4986
    8SAPS   H3R  970   0.264   1.170  10.347  0.5676  0.9418  0.0580
    8SAPS   H3S  971   0.397   1.071  10.366 -0.6628 -0.8332  0.5053
    8SAPS   C24  972   0.437   1.254  10.244  0.7912 -0.0259 -0.5243
    8SAPS   H4R  973   0.406   1.361  10.237  0.7555 -0.0770 -1.2221
    8SAPS   H4S  974   0.404   1.216  10.145  0.1366 -0.0438 -0.2996
    8SAPS   C25  975   0.583   1.236  10.244  0.0126 -0.7398 -0.2854
    8SAPS   H5R  976   0.610   1.131  10.261  0.5235 -0.8069 -1.4380
    8SAPS   C26  977   0.677   1.334  10.240  0.0516 -0.0589 -0.3085
    8SAPS   H6R  978   0.780   1.296  10.237 -0.3054 -1.2475  1.3579
    8SAPS   C27  979   0.645   1.483  10.231  0.5703  0.3949  0.3862
    8SAPS   H7R  980   0.611   1.521  10.330 -0.4314  1.1920 -0.2409
    8SAPS   H7S  981   0.557   1.501  10.166 -0.6171 -0.7241  1.6289
    8SAPS   C28  982   0.752   1.567  10.176  0.3139  0.0718 -0.0351
    8SAPS   H8R  983   0.781   1.652  10.240  0.5704  0.0065 -0.0654
    8SAPS   C29  984   0.792   1.578  10.048 -0.5362  1.9452  0.4980
    8SAPS   H9R  985   0.870   1.650  10.022  1.7872 -1.1670 -1.8592
    8SAPS  C210  986   0.741   1.480   9.943  0.0813  0.0329  0.0679
    8SAPS  H10R  987   0.693   1.386   9.980 -0.9217  0.7034  0.4984
    8SAPS  H10S  988   0.838   1.454   9.894  0.9114  1.0588  1.1214
    8SAPS  C211  989   0.640   1.563   9.865 -0.4806  0.3387  0.1930
    8SAPS  H11R  990   0.577   1.631   9.924 -1.4055 -0.5513  0.2657
    8SAPS  C212  991   0.639   1.580   9.730 -0.3424 -0.4658  0.3334
    8SAPS  H12R  992   0.556   1.638   9.688  0.1853  2.0600  2.4644
    8SAPS  C213  993   0.723   1.508   9.624  0.5124  0.0005 -0.4956
    8SAPS  H13R  994   0.654   1.429   9.587  1.9775 -2.0332  0.9049
    8SAPS  H13S  995   0.807   1.460   9.679  0.0289  1.6939  1.8552
    8SAPS  C214  996   0.768   1.591   9.508 -0.1235  0.4810  0.0362
    8SAPS  H14R  997   0.870   1.631   9.523 -0.0737  0.9940 -1.5095
    8SAPS  C215  998   0.696   1.629   9.403 -0.0044  0.1641 -0.8596
    8SAPS  H15R  999   0.750   1.694   9.333  2.2479 -0.8081 -0.1017
    8SAPS  C216 1000   0.557   1.577   9.359 -0.3664  0.1973  0.4068
    8SAPS  H16R 1001   0.501   1.659   9.311 -0.1078 -0.5009 -1.1333
    8SAPS  H16S 1002   0.489   1.545   9.441 -2.0407 -1.6645 -1.5987
    8SAPS  C217 1003   0.560   1.460   9.252  0.4494  0.2323  0.0070
    8SAPS  H17R 1004   0.456   1.425   9.232  0.5912  0.3865 -1.0855
    8SAPS  H17S 1005   0.619   1.373   9.290 -0.1761  0.1182  0.7367
    8SAPS  C218 1006   0.627   1.503   9.118  0.2014 -0.0611  0.0505
    8SAPS  H18R 1007   0.730   1.462   9.124 -0.1192 -0.6190  2.7472
    8SAPS  H18S 1008   0.636   1.614   9.111 -0.2029 -0.0067  0.3777
    8SAPS  C219 1009   0.555   1.447   8.987 -0.0322 -0.3697  1.0685
    8SAPS  H19R 1010   0.555   1.337   9.000 -0.5020 -0.2289  2.3318
    8SAPS  H19S 1011   0.617   1.472   8.898 -0.5290  2.0197  1.3270
    8SAPS  C220 1012   0.413   1.508   8.965 -0.4572  0.1357  0.0868
    8SAPS  H20R 1013   0.361   1.460   8.879 -1.1070  0.2053  0.4344
    8SAPS  H20S 1014   0.431   1.616   8.944 -2.1356  0.4316  0.0368
    8SAPS  H20T 1015   0.353   1.501   9.058  1.1896 -0.7831  1.1093
    8SAPS   C33 1016   0.254   1.648  10.234 -0.2022 -0.0603 -0.1222
    8SAPS   H3X 1017   0.354   1.608  10.263  0.9176  2.3147 -0.5093
    8SAPS   H3Y 1018   0.278   1.751  10.203 -1.2855  0.6362  1.2182
    8SAPS   C34 1019   0.211   1.574  10.104  0.0382  0.0836 -0.3303
    8SAPS   H4X 1020   0.102   1.583  10.084 -0.1263 -0.6736  0.1976
    8SAPS   H4Y 1021   0.234   1.466  10.099 -1.4535 -0.2115 -1.4823
    8SAPS   C35 1022   0.261   1.649   9.982 -0.5814  0.6651 -0.1095
    8SAPS   H5X 1023   0.370   1.654  10.001 -0.9759 -0.3715  3.1201
    8SAPS   H5Y 1024   0.226   1.755   9.981  0.7537  1.1516  1.0524
    8SAPS   C36 1025   0.223   1.582   9.854  0.1735 -0.0137 -0.4088
    8SAPS   H6X 1026   0.116   1.554   9.857  0.2259 -0.1230  1.0547
    8SAPS   H6Y 1027   0.276   1.484   9.850 -0.5712 -0.5533  1.6963
    8SAPS   C37 1028   0.260   1.669   9.742  0.2595 -0.4541  0.0220
    8SAPS   H7X 1029   0.367   1.693   9.756  0.0958  1.0050 -1.0354
    8SAPS   H7Y 1030   0.197   1.761   9.745 -1.2235 -1.4556  1.1402
    8SAPS   C38 1031   0.248   1.610   9.595  0.2014 -0.8853 -0.4708
    8SAPS   H8X 1032   0.320   1.527   9.582  1.3777  0.2781 -1.5303
    8SAPS   H8Y 1033   0.272   1.696   9.530 -0.6653  1.1074  1.6799
    8SAPS   C39 1034   0.112   1.556   9.554 -1.1204 -0.0388  0.1188
    8SAPS   H9X 1035   0.042   1.642   9.563 -0.5792  0.4941 -0.7035
    8SAPS   H9Y 1036   0.085   1.478   9.629 -0.4295 -0.5155 -0.1209
    8SAPS  C310 1037   0.102   1.493   9.408 -0.1677 -0.6086  0.1619
    8SAPS  H10X 1038   0.137   1.570   9.336 -1.3821 -0.5187 -0.3515
    8SAPS  H10Y 1039  -0.002   1.460   9.388 -0.8378  0.2888  1.9361
    8SAPS  C311 1040   0.181   1.359   9.394 -0.3629  0.1826  0.1658
    8SAPS  H11X 1041   0.142   1.286   9.468 -2.5092  1.1184  0.0311
    8SAPS  H11Y 1042   0.291   1.371   9.391 -0.5454  2.0119 -0.4162
    8SAPS  C312 1043   0.137   1.291   9.262 -0.1001 -0.6536 -0.3373
    8SAPS  H12X 1044   0.172   1.361   9.183  0.6458 -0.3438  0.2610
    8SAPS  H12Y 1045   0.028   1.272   9.248  0.1920 -1.3207 -1.9655
    8SAPS  C313 1046   0.209   1.157   9.237 -0.7721  0.5948  0.5683
    8SAPS  H13X 1047   0.151   1.062   9.241  1.7728 -1.3216 -2.4540
    8SAPS  H13Y 1048   0.289   1.141   9.312 -2.7532 -1.8965  2.3113
    8SAPS  C314 1049   0.279   1.148   9.100 -0.3061  0.7100  0.5543
    8SAPS  H14X 1050   0.347   1.234   9.084  2.7493 -1.7275 -0.6380
    8SAPS  H14Y 1051   0.205   1.132   9.019 -0.7073  0.3299  0.9893
    8SAPS  C315 1052   0.377   1.028   9.092  0.5016 -0.0763  0.0939
    8SAPS  H15X 1053   0.319   0.934   9.096  0.7451 -0.3784 -2.2522
    8SAPS  H15Y 1054   0.447   1.015   9.177  1.0217 -0.0281 -0.3208
    8SAPS  C316 1055   0.455   1.029   8.964  0.5181  0.2056  0.3512
    8SAPS  H16X 1056   0.529   1.112   8.960 -0.3312  0.9333 -1.5702
    8SAPS  H16Y 1057   0.386   1.044   8.878  1.3681 -1.3640 -0.6436
    8SAPS  C317 1058   0.526   0.897   8.936  0.5035 -0.5873 -0.1966
    8SAPS  H17X 1059   0.443   0.825   8.917 -0.4935  0.7353 -1.0521
    8SAPS  H17Y 1060   0.581   0.869   9.028 -1.1527  0.3189  1.1353
    8SAPS  C318 1061   0.619   0.918   8.823 -0.5539 -0.1863 -0.0505
    8SAPS  H18X 1062   0.682   1.008   8.827 -1.9262  1.0593 -3.2651
    8SAPS  H18Y 1063   0.577   0.930   8.721  4.6858  0.4147 -2.4590
    8SAPS  H18Z 1064   0.683   0.828   8.839 -1.4206 -0.4004  2.8886
    9SAPS     N 1065   3.117   2.059   6.163 -0.3078 -0.7574 -0.1381
    9SAPS   HN1 1066   3.044   1.985   6.164  1.8569 -3.0275  0.6628
    9SAPS   HN2 1067   3.100   2.125   6.242  0.6741  0.2581 -0.7434
    9SAPS   HN3 1068   3.111   2.106   6.070 -3.1524  0.8273  0.7190
    9SAPS   C12 1069   3.231   1.975   6.188  0.6629  0.0332  0.2902
    9SAPS  H12A 1070   3.224   1.910   6.102  1.4704 -0.0382  0.2783
    9SAPS   C13 1071   3.375   2.034   6.184  0.3145  0.3484  0.6973
    9SAPS  O13A 1072   3.390   2.152   6.154 -0.1424 -0.3145  0.3705
    9SAPS  O13B 1073   3.464   1.951   6.200 -0.2941 -0.0062 -0.0934
    9SAPS   C11 1074   3.206   1.908   6.320 -0.3163 -0.6317 -0.1438
    9SAPS  H11A 1075   3.179   1.990   6.390  0.3486  2.0324 -2.7641
    9SAPS  H11B 1076   3.294   1.851   6.355 -0.4479  0.3883  1.9776
    9SAPS     P 1077   3.047   1.728   6.435  0.0342 -0.0172  0.1001
    9SAPS   O13 1078   2.915   1.782   6.480  0.2686  0.6074 -0.4373
    9SAPS   O14 1079   3.063   1.584   6.406 -0.1157 -0.1286 -0.0297
    9SAPS   O12 1080   3.094   1.813   6.306 -0.2990 -0.4122  0.4055
    9SAPS   O11 1081   3.155   1.772   6.542 -0.1118 -0.1934  0.0545
    9SAPS    C1 1082   3.203   1.684   6.651  0.0962  0.0465 -0.1786
    9SAPS    HA 1083   3.147   1.590   6.669 -0.4891  0.2916 -0.6999
    9SAPS    HB 1084   3.309   1.659   6.628 -0.2450 -0.8587 -0.7772
    9SAPS    C2 1085   3.206   1.756   6.789 -0.3319  0.2025 -0.4290
    9SAPS    HS 1086   3.101   1.756   6.824 -0.3356 -1.2172 -0.4062
    9SAPS   O21 1087   3.256   1.888   6.766 -0.4931 -0.0399 -0.1214
    9SAPS   C21 1088   3.182   1.983   6.747  0.3143  0.2507  0.2193
    9SAPS   O22 1089   3.063   1.985   6.762  0.1390 -0.3785  0.4617
    9SAPS   C22 1090   3.265   2.105   6.735  0.4436 -0.1002  0.7491
    9SAPS   H2R 1091   3.327   2.082   6.647 -1.1327  1.2892 -0.7896
    9SAPS   H2S 1092   3.206   2.192   6.701  1.3067  0.0204 -0.4750
    9SAPS    C3 1093   3.292   1.693   6.900  0.2997  0.2419 -0.0920
    9SAPS    HX 1094   3.284   1.774   6.976  1.0881 -0.3134  0.5943
    9SAPS    HY 1095   3.397   1.687   6.864  0.4510  0.3020  0.3345
    9SAPS   O31 1096   3.246   1.557   6.938 -0.4885 -0.3531 -0.2170
    9SAPS   C31 1097   3.174   1.564   7.047  0.2211  0.1435 -0.0979
    9SAPS   O32 1098   3.169   1.658   7.122  0.3750 -0.0226 -0.0678
    9SAPS   C32 1099   3.106   1.429   7.074 -0.2906  0.4585 -0.3483
    9SAPS   H2X 1100   3.165   1.337   7.052  0.7588  1.5316 -2.2500
    9SAPS   H2Y 1101   3.024   1.404   7.003  0.8627 -2.2867 -0.8374
    9SAPS   C23 1102   3.348   2.144   6.856  1.2895  0.3521 -0.2071
    9SAPS   H3R 1103   3.439   2.200   6.824  1.5607 -0.3971 -0.7786
    9SAPS   H3S 1104   3.381   2.059   6.920  0.0931  0.0642  0.0419
    9SAPS   C24 1105   3.257   2.240   6.939  0.2912  0.0525  0.2430
    9SAPS   H4R 1106   3.214   2.310   6.864  1.1725  3.4294  2.6479
    9SAPS   H4S 1107   3.321   2.298   7.008 -0.1633  0.7777  0.0708
    9SAPS   C25 1108   3.147   2.177   7.018 -0.3895  0.1115  0.3877
    9SAPS   H5R 1109   3.085   2.103   6.965 -0.9131  0.5282  0.4128
    9SAPS   C26 1110   3.105   2.218   7.139 -1.8493  0.1563  0.3645
    9SAPS   H6R 1111   3.017   2.172   7.187 -0.6803 -0.9738  1.5057
    9SAPS   C27 1112   3.186   2.323   7.214 -0.8776 -0.2178 -0.3422
    9SAPS   H7R 1113   3.178   2.416   7.153  0.0672  0.3008  0.3034
    9SAPS   H7S 1114   3.293   2.298   7.226 -1.1873 -1.0643  0.8948
    9SAPS   C28 1115   3.129   2.335   7.350 -0.1723 -0.0190  1.0650
    9SAPS   H8R 1116   3.020   2.325   7.353 -0.1584 -0.0632  3.4061
    9SAPS   C29 1117   3.188   2.344   7.473 -0.1659  0.3782  0.4659
    9SAPS   H9R 1118   3.117   2.373   7.553 -1.0691 -0.7528  0.0988
    9SAPS  C210 1119   3.332   2.333   7.502  0.1308  0.7016  0.2924
    9SAPS  H10R 1120   3.363   2.428   7.550 -2.4763  1.2595  1.0227
    9SAPS  H10S 1121   3.396   2.308   7.414  2.9521  2.3376  1.7368
    9SAPS  C211 1122   3.350   2.228   7.607  0.5144 -0.3232 -0.5794
    9SAPS  H11R 1123   3.312   2.264   7.704  0.7809  1.9279 -1.2534
    9SAPS  C212 1124   3.418   2.118   7.597  0.2240  0.8932 -0.6654
    9SAPS  H12R 1125   3.422   2.047   7.681 -1.5587 -0.2987 -1.5100
    9SAPS  C213 1126   3.483   2.071   7.469 -0.1654 -0.9015  0.1393
    9SAPS  H13R 1127   3.564   2.000   7.497  0.2674 -0.8439 -0.9060
    9SAPS  H13S 1128   3.543   2.154   7.426 -2.1951 -0.6461 -2.4123
    9SAPS  C214 1129   3.390   2.017   7.366  0.1906 -0.3806 -0.9864
    9SAPS  H14R 1130   3.286   2.000   7.397  0.3224  0.5283  0.0091
    9SAPS  C215 1131   3.424   1.988   7.243  0.0455  0.1368 -0.1526
    9SAPS  H15R 1132   3.353   1.930   7.182 -0.3642  0.9286 -0.4360
    9SAPS  C216 1133   3.566   1.999   7.186  0.5491 -0.0279  0.1982
    9SAPS  H16R 1134   3.641   2.027   7.263  0.3800  1.0134 -0.0018
    9SAPS  H16S 1135   3.553   2.084   7.116  0.5259 -0.1761  0.0241
    9SAPS  C217 1136   3.617   1.877   7.112 -0.0746  0.1152  0.1528
    9SAPS  H17R 1137   3.569   1.881   7.012 -0.1307  2.8772  0.1993
    9SAPS  H17S 1138   3.587   1.783   7.162  0.0652 -0.0486 -0.0717
    9SAPS  C218 1139   3.767   1.879   7.079  0.9643 -0.1405  0.0130
    9SAPS  H18R 1140   3.820   1.901   7.174  0.4142  0.7546  0.1232
    9SAPS  H18S 1141   3.795   1.960   7.009  0.4062 -1.2069 -1.4909
    9SAPS  C219 1142   3.824   1.738   7.028 -0.6640 -0.6791  0.1687
    9SAPS  H19R 1143   3.776   1.702   6.935 -0.3986  3.4670 -1.8127
    9SAPS  H19S 1144   3.791   1.674   7.112  1.1674  0.2926  1.7066
    9SAPS  C220 1145   3.973   1.727   7.039  0.2599  0.8781 -0.8968
    9SAPS  H20R 1146   3.995   1.767   7.140  0.1266 -1.3160  0.0625
    9SAPS  H20S 1147   4.029   1.779   6.959  3.5467 -0.5260  0.3099
    9SAPS  H20T 1148   4.020   1.626   7.038  2.0097  1.6469 -0.0365
    9SAPS   C33 1149   3.048   1.431   7.215  0.3995  0.8168 -0.5261
    9SAPS   H3X 1150   2.975   1.514   7.222 -0.1804  0.3844 -1.3116
    9SAPS   H3Y 1151   3.129   1.437   7.290  0.8159 -0.6688 -0.8260
    9SAPS   C34 1152   2.961   1.308   7.269 -0.3163  0.2135 -0.4566
    9SAPS   H4X 1153   3.016   1.214   7.247  0.2474  0.4148  0.0630
    9SAPS   H4Y 1154   2.861   1.298   7.221  0.2732 -0.1829 -1.6272
    9SAPS   C35 1155   2.943   1.318   7.421 -0.6077  0.9541 -0.3052
    9SAPS   H5X 1156   3.041   1.340   7.467 -0.7443  2.2532 -0.6036
    9SAPS   H5Y 1157   2.923   1.225   7.479  2.1304  1.8080  2.2101
    9SAPS   C36 1158   2.855   1.429   7.469 -0.6899 -0.2447  0.4490
    9SAPS   H6X 1159   2.752   1.393   7.450 -0.3698 -0.9425  0.0144
    9SAPS   H6Y 1160   2.880   1.514   7.401  1.5017 -1.3175 -0.1857
    9SAPS   C37 1161   2.847   1.448   7.622  0.1957 -0.9428  0.1166
    9SAPS   H7X 1162   2.755   1.505   7.648  0.3594 -1.3222  1.6171
    9SAPS   H7Y 1163   2.934   1.516   7.640 -0.2898 -0.1724 -0.4143
    9SAPS   C38 1164   2.827   1.327   7.708 -0.2834  0.3147  0.1533
    9SAPS   H8X 1165   2.916   1.261   7.709 -1.5886 -1.6930 -2.5926
    9SAPS   H8Y 1166   2.748   1.266   7.659 -0.6793  1.0976 -0.2027
    9SAPS   C39 1167   2.771   1.359   7.848 -0.0945  0.0709  0.0120
    9SAPS   H9X 1168   2.713   1.274   7.891 -2.0118  1.1116 -0.4178
    9SAPS   H9Y 1169   2.693   1.437   7.846  0.6192  0.8560  1.3513
    9SAPS  C310 1170   2.867   1.396   7.961  0.3067  0.1928  0.5119
    9SAPS  H10X 1171   2.937   1.478   7.936  1.4375 -1.0559 -0.6162
    9SAPS  H10Y 1172   2.941   1.318   7.988  0.3794  0.3887  0.8853
    9SAPS  C311 1173   2.783   1.430   8.079  0.2923  0.2032 -0.7386
    9SAPS  H11X 1174   2.714   1.346   8.100 -0.0845  0.5067 -0.7463
    9SAPS  H11Y 1175   2.721   1.519   8.055 -0.3206 -0.2532 -0.8856
    9SAPS  C312 1176   2.866   1.450   8.200  0.3473 -0.2281  0.0868
    9SAPS  H12X 1177   2.955   1.510   8.172  1.7545 -1.7190  1.1920
    9SAPS  H12Y 1178   2.896   1.352   8.242 -0.1418 -0.2073  0.5001
    9SAPS  C313 1179   2.797   1.530   8.314 -0.0749 -1.1512 -0.0860
    9SAPS  H13X 1180   2.867   1.534   8.401 -0.3798  2.6280  0.1323
    9SAPS  H13Y 1181   2.701   1.481   8.340 -0.4388 -0.6411 -0.4608
    9SAPS  C314 1182   2.764   1.670   8.266 -0.3785 -0.4889 -0.3153
    9SAPS  H14X 1183   2.682   1.670   8.191 -0.1146 -0.4923 -0.6056
    9SAPS  H14Y 1184   2.854   1.719   8.222 -1.3202  2.5266  0.8421
    9SAPS  C315 1185   2.728   1.763   8.383 -0.7115 -0.1725 -0.0872
    9SAPS  H15X 1186   2.817   1.777   8.449  0.4226  1.9078 -1.9107
    9SAPS  H15Y 1187   2.656   1.712   8.451 -0.6647  0.9663  0.8523
    9SAPS  C316 1188   2.684   1.906   8.348 -0.0082 -0.9854 -0.0310
    9SAPS  H16X 1189   2.757   1.949   8.276 -0.9009  2.9936  1.2216
    9SAPS  H16Y 1190   2.697   1.969   8.438 -1.6114 -0.9513  0.2142
    9SAPS  C317 1191   2.547   1.903   8.298  0.4733  0.2758 -0.0786
    9SAPS  H17X 1192   2.485   1.865   8.382  1.3882  1.2734  1.0858
    9SAPS  H17Y 1193   2.545   1.831   8.213  0.1674  0.8228 -0.5456
    9SAPS  C318 1194   2.488   2.037   8.258 -0.5668  0.1694 -0.0220
    9SAPS  H18X 1195   2.559   2.093   8.193  1.5082 -2.4423 -0.1494
    9SAPS  H18Y 1196   2.471   2.109   8.341 -0.5652  2.2248 -1.7201
    9SAPS  H18Z 1197   2.393   2.034   8.199 -0.1554 -1.4740 -0.6491
   10SAPS     N 1198   6.176   6.003   6.084  0.0402  0.4704  0.5586
   10SAPS   HN1 1199   6.153   5.922   6.145  1.2722  0.1289  0.5852
   10SAPS   HN2 1200   6.141   5.965   5.994  0.4910  0.6140  0.3199
   10SAPS   HN3 1201   6.279   6.014   6.078  0.1438 -0.8089 -0.3039
   10SAPS   C12 1202   6.098   6.123   6.132 -0.5428 -0.2229  0.3023
   10SAPS  H12A 1203   6.154   6.168   6.212  0.8471 -1.7654  0.2635
   10SAPS   C13 1204   6.084   6.234   6.025 -0.6494 -0.0961  0.0345
   10SAPS  O13A 1205   6.115   6.209   5.904  0.0851 -0.2294  0.2320
   10SAPS  O13B 1206   6.032   6.343   6.059 -0.3785 -0.0840  0.1208
   10SAPS   C11 1207   5.956   6.079   6.172  0.1264  0.5679 -0.9797
   10SAPS  H11A 1208   5.908   6.012   6.097 -0.7838  0.7847 -0.6107
   10SAPS  H11B 1209   5.890   6.168   6.182 -0.9306 -0.2141 -0.8100
   10SAPS     P 1210   5.930   6.071   6.442  0.1090 -0.2076 -0.0482
   10SAPS   O13 1211   5.813   6.000   6.507 -0.2743  0.0810  0.2475
   10SAPS   O14 1212   6.055   6.060   6.516  0.0217  0.7820  0.4443
   10SAPS   O12 1213   5.956   6.012   6.295 -0.3256  0.0809  0.1861
   10SAPS   O11 1214   5.887   6.216   6.423 -0.1947 -0.8369  0.4503
   10SAPS    C1 1215   5.759   6.262   6.454  0.0409 -0.7572 -0.1977
   10SAPS    HA 1216   5.744   6.346   6.383  1.3623  1.7771  2.3021
   10SAPS    HB 1217   5.680   6.188   6.428  1.8123 -1.8992 -2.7784
   10SAPS    C2 1218   5.738   6.315   6.600  1.3190  0.4732  0.1524
   10SAPS    HS 1219   5.628   6.324   6.614  0.7708 -0.4586 -2.8437
   10SAPS   O21 1220   5.790   6.448   6.606  0.3632  1.4456  0.2209
   10SAPS   C21 1221   5.728   6.524   6.691 -0.2508  0.4232 -0.5044
   10SAPS   O22 1222   5.627   6.502   6.752 -0.7083 -0.1369  0.0979
   10SAPS   C22 1223   5.823   6.640   6.730 -0.0320 -0.6874 -0.1155
   10SAPS   H2R 1224   5.872   6.605   6.824  2.0417 -2.7770 -1.8662
   10SAPS   H2S 1225   5.892   6.652   6.645 -1.1986 -0.2268 -1.0301
   10SAPS    C3 1226   5.797   6.225   6.712  0.5522  0.2787  0.3166
   10SAPS    HX 1227   5.904   6.219   6.686  0.1626  0.2163 -1.4037
   10SAPS    HY 1228   5.747   6.127   6.697  0.7682  0.3180 -0.7270
   10SAPS   O31 1229   5.777   6.264   6.857  0.3836 -0.7079 -0.0130
   10SAPS   C31 1230   5.661   6.242   6.917  0.6386  0.2084  0.2501
   10SAPS   O32 1231   5.567   6.179   6.875 -0.3380 -0.3300 -0.5954
   10SAPS   C32 1232   5.670   6.291   7.065 -0.6940  0.7943  0.3783
   10SAPS   H2X 1233   5.753   6.236   7.113  0.9292  2.2805 -0.6025
   10SAPS   H2Y 1234   5.574   6.270   7.117  0.1667 -1.9971  1.0293
   10SAPS   C23 1235   5.745   6.772   6.750  0.0157  0.8603  0.0515
   10SAPS   H3R 1236   5.659   6.784   6.681 -0.6058  2.1971  1.0115
   10SAPS   H3S 1237   5.817   6.854   6.729  0.0794  0.9895  0.7471
   10SAPS   C24 1238   5.701   6.795   6.897  0.1182 -0.0324  0.1083
   10SAPS   H4R 1239   5.649   6.701   6.926 -0.2313  0.4438  1.0507
   10SAPS   H4S 1240   5.631   6.880   6.897  0.1824  0.0371 -1.2036
   10SAPS   C25 1241   5.819   6.810   6.987 -0.4205  0.6025  0.5872
   10SAPS   H5R 1242   5.876   6.716   6.996 -0.5917  0.4059 -0.2556
   10SAPS   C26 1243   5.859   6.919   7.060 -0.0327  0.0838 -0.6557
   10SAPS   H6R 1244   5.951   6.927   7.119 -1.0704 -0.5186  1.1505
   10SAPS   C27 1245   5.768   7.043   7.065  0.1723 -0.0360  0.6408
   10SAPS   H7R 1246   5.702   7.032   7.153  0.3140 -0.2841  0.7145
   10SAPS   H7S 1247   5.693   7.048   6.983 -0.3112  0.3022  1.0959
   10SAPS   C28 1248   5.848   7.165   7.069  1.1098  0.2051  0.5323
   10SAPS   H8R 1249   5.885   7.196   6.970  1.5128 -5.3044 -1.3978
   10SAPS   C29 1250   5.921   7.212   7.170  0.1887  0.7101  0.1476
   10SAPS   H9R 1251   5.972   7.308   7.156  0.0020  0.8227  0.2410
   10SAPS  C210 1252   5.932   7.153   7.306 -0.1323  0.2205  0.1080
   10SAPS  H10R 1253   6.029   7.181   7.351 -0.4712  0.5205  0.6652
   10SAPS  H10S 1254   5.937   7.042   7.305 -1.2506  0.1390 -1.6555
   10SAPS  C211 1255   5.820   7.186   7.399  0.8429 -0.1059  0.2646
   10SAPS  H11R 1256   5.724   7.207   7.349  0.4136  0.5735  1.3454
   10SAPS  C212 1257   5.827   7.200   7.536 -0.3750  0.4066  1.4005
   10SAPS  H12R 1258   5.729   7.213   7.584 -0.5025 -1.1361  1.6225
   10SAPS  C213 1259   5.954   7.176   7.611  0.3028  0.1515 -0.3383
   10SAPS  H13R 1260   6.030   7.113   7.559 -0.1253 -0.1466 -0.6057
   10SAPS  H13S 1261   5.951   7.113   7.702  1.6592  0.1217 -0.2950
   10SAPS  C214 1262   6.008   7.309   7.641 -0.0241  0.3796  0.2972
   10SAPS  H14R 1263   6.032   7.382   7.562  0.6923 -0.4641 -0.2819
   10SAPS  C215 1264   6.025   7.362   7.764 -0.3708 -0.3798 -0.1548
   10SAPS  H15R 1265   6.049   7.469   7.769  2.7875 -0.9712 -0.7792
   10SAPS  C216 1266   5.995   7.291   7.888 -0.5973  0.3125 -0.1958
   10SAPS  H16R 1267   6.046   7.192   7.896 -1.2756  0.0581  1.3271
   10SAPS  H16S 1268   5.891   7.252   7.881 -0.5120  0.1823 -0.8391
   10SAPS  C217 1269   6.045   7.378   8.010  0.0605  0.3297  0.1585
   10SAPS  H17R 1270   6.004   7.481   8.007 -0.0129  0.2911 -2.2757
   10SAPS  H17S 1271   6.156   7.383   8.000 -0.0935  0.9720 -1.5350
   10SAPS  C218 1272   6.009   7.293   8.132  1.1498  0.6910  0.3721
   10SAPS  H18R 1273   6.056   7.324   8.227  0.2249 -1.8661  1.7497
   10SAPS  H18S 1274   6.049   7.190   8.128 -1.7096 -0.5810  1.9318
   10SAPS  C219 1275   5.864   7.269   8.180 -0.2645  0.1564  0.4539
   10SAPS  H19R 1276   5.861   7.176   8.241  1.5706  0.1420  0.6013
   10SAPS  H19S 1277   5.796   7.245   8.096 -0.3078 -2.8509  1.2167
   10SAPS  C220 1278   5.806   7.387   8.261 -0.3543 -0.8099  0.2070
   10SAPS  H20R 1279   5.867   7.406   8.352 -0.3238  2.0536 -0.3194
   10SAPS  H20S 1280   5.711   7.355   8.310  0.0652 -2.3491  0.0627
   10SAPS  H20T 1281   5.793   7.477   8.198 -0.4293 -0.4284  0.7564
   10SAPS   C33 1282   5.694   6.443   7.070  0.2500 -0.5538  0.0080
   10SAPS   H3X 1283   5.628   6.484   6.989 -1.9734  0.7222  2.3127
   10SAPS   H3Y 1284   5.798   6.472   7.047  0.2026 -1.4157 -1.4393
   10SAPS   C34 1285   5.640   6.499   7.201  0.3102 -0.6837 -0.6425
   10SAPS   H4X 1286   5.535   6.463   7.200 -0.1949  0.6252  0.7406
   10SAPS   H4Y 1287   5.627   6.609   7.190 -0.6567 -0.6233  0.8633
   10SAPS   C35 1288   5.715   6.473   7.327  0.3556  0.1276 -0.3814
   10SAPS   H5X 1289   5.817   6.516   7.315  0.4910  0.0479  0.4010
   10SAPS   H5Y 1290   5.727   6.362   7.331 -1.3784 -0.0516  0.5952
   10SAPS   C36 1291   5.641   6.503   7.454 -0.0025 -0.1912  0.0318
   10SAPS   H6X 1292   5.536   6.474   7.433 -0.2515  2.3055 -2.7099
   10SAPS   H6Y 1293   5.649   6.609   7.485  0.5421  0.2418 -1.4878
   10SAPS   C37 1294   5.679   6.425   7.579 -0.2256  0.0126 -0.7893
   10SAPS   H7X 1295   5.614   6.475   7.654  0.4675  0.0491 -0.1986
   10SAPS   H7Y 1296   5.786   6.446   7.600 -1.0768  2.3943  1.7105
   10SAPS   C38 1297   5.658   6.273   7.566  0.7409  0.5364 -0.2727
   10SAPS   H8X 1298   5.731   6.217   7.503 -1.7848 -2.2191 -0.9415
   10SAPS   H8Y 1299   5.558   6.270   7.519  0.1620 -0.8679  0.9811
   10SAPS   C39 1300   5.653   6.209   7.706 -0.2359  0.4511  0.7230
   10SAPS   H9X 1301   5.757   6.223   7.745 -0.0320  1.9319 -0.2826
   10SAPS   H9Y 1302   5.626   6.103   7.693  1.4357 -0.0515  1.0321
   10SAPS  C310 1303   5.545   6.276   7.801  0.1353  0.6340  0.5516
   10SAPS  H10X 1304   5.455   6.292   7.739 -0.5704 -1.7459  0.8560
   10SAPS  H10Y 1305   5.588   6.375   7.829  0.3467  0.7602 -0.1831
   10SAPS  C311 1306   5.518   6.195   7.924  0.3868  0.3380 -0.5230
   10SAPS  H11X 1307   5.492   6.089   7.905 -2.7652  0.8335  0.4559
   10SAPS  H11Y 1308   5.434   6.238   7.983  1.5003  0.6017  0.9339
   10SAPS  C312 1309   5.632   6.202   8.025  0.1904  0.1854 -0.2730
   10SAPS  H12X 1310   5.724   6.160   7.978  0.6594  0.2048  0.5942
   10SAPS  H12Y 1311   5.595   6.139   8.110 -0.3036 -0.3579 -0.8813
   10SAPS  C313 1312   5.674   6.343   8.082  0.3978  0.9509  0.8464
   10SAPS  H13X 1313   5.585   6.397   8.122 -1.4009 -1.9771  1.0663
   10SAPS  H13Y 1314   5.708   6.400   7.993  0.5295  0.3319  0.4946
   10SAPS  C314 1315   5.779   6.320   8.192 -0.2745  0.9616  0.3208
   10SAPS  H14X 1316   5.846   6.240   8.155 -3.7260 -2.4305  0.7141
   10SAPS  H14Y 1317   5.733   6.264   8.276 -0.9947 -2.1239 -1.9573
   10SAPS  C315 1318   5.863   6.443   8.219  0.6527  0.1489  0.9004
   10SAPS  H15X 1319   5.797   6.532   8.218 -0.1090 -0.4047  0.7076
   10SAPS  H15Y 1320   5.942   6.452   8.141  0.0411 -2.8339 -0.1978
   10SAPS  C316 1321   5.921   6.454   8.365  0.3037  0.1568  0.4197
   10SAPS  H16X 1322   5.965   6.353   8.383 -2.4272 -1.1580  0.2718
   10SAPS  H16Y 1323   5.836   6.458   8.437  0.5696  0.2693  0.7317
   10SAPS  C317 1324   6.019   6.568   8.379 -0.6843 -0.4135 -0.5247
   10SAPS  H17X 1325   5.968   6.666   8.366 -2.0328 -0.9699  0.3125
   10SAPS  H17Y 1326   6.103   6.563   8.306 -0.9021  2.7406 -1.1134
   10SAPS  C318 1327   6.083   6.566   8.520 -0.2188 -0.7044  0.4496
   10SAPS  H18X 1328   6.177   6.626   8.517  0.9833 -2.4804 -3.4102
   10SAPS  H18Y 1329   6.105   6.459   8.543  2.3595 -0.3013  0.2368
   10SAPS  H18Z 1330   6.013   6.611   8.594 -1.9636 -2.7884  0.1552
   11SAPS     N 1331   5.481   1.163   6.055 -0.3372 -0.0252 -0.7159
   11SAPS   HN1 1332   5.434   1.136   6.143  2.0742 -0.5605  0.4827
   11SAPS   HN2 1333   5.548   1.240   6.073  0.0625 -0.2558 -1.1757
   11SAPS   HN3 1334   5.406   1.201   5.993 -0.4814 -2.1580 -1.9653
   11SAPS   C12 1335   5.538   1.043   5.984  0.3851  0.0448 -0.5363
   11SAPS  H12A 1336   5.451   0.982   5.967 -2.1211  2.6353  1.6817
   11SAPS   C13 1337   5.613   1.057   5.852 -0.2799 -0.1679 -0.0871
   11SAPS  O13A 1338   5.620   1.168   5.796  0.3591 -0.5474  0.2111
   11SAPS  O13B 1339   5.632   0.951   5.783 -0.2361 -0.1687 -0.1052
   11SAPS   C11 1340   5.628   0.965   6.078 -0.1681  0.0134 -0.6707
   11SAPS  H11A 1341   5.678   0.882   6.023 -0.8083 -1.9286  1.5361
   11SAPS  H11B 1342   5.568   0.911   6.154  0.8379 -1.3639 -0.8093
   11SAPS     P 1343   5.856   0.997   6.183  0.2436 -0.0997  0.4834
   11SAPS   O13 1344   5.908   0.916   6.066  0.6774 -0.3856 -0.2574
   11SAPS   O14 1345   5.940   1.115   6.221  0.1119 -0.4570  0.5816
   11SAPS   O12 1346   5.713   1.054   6.140 -0.6820 -0.2844  0.3131
   11SAPS   O11 1347   5.836   0.914   6.316 -0.4818  0.1316  0.0385
   11SAPS    C1 1348   5.767   0.790   6.308 -0.2940  0.2266  0.4782
   11SAPS    HA 1349   5.657   0.803   6.316 -0.3257 -0.7769  2.1474
   11SAPS    HB 1350   5.784   0.742   6.209 -0.7428  0.8304  0.0980
   11SAPS    C2 1351   5.796   0.692   6.430 -0.0031  0.0076  0.8816
   11SAPS    HS 1352   5.742   0.600   6.398  1.2316  0.2756 -2.4761
   11SAPS   O21 1353   5.752   0.760   6.548  0.1748 -0.2639  0.0092
   11SAPS   C21 1354   5.722   0.684   6.648  0.0078 -0.0587  0.2810
   11SAPS   O22 1355   5.727   0.563   6.649 -0.9446  0.5259  0.0769
   11SAPS   C22 1356   5.688   0.778   6.762 -0.2733  0.1180 -0.8997
   11SAPS   H2R 1357   5.709   0.730   6.860  0.9709 -0.7012 -1.5394
   11SAPS   H2S 1358   5.769   0.854   6.757 -0.3999  0.3462  0.2556
   11SAPS    C3 1359   5.950   0.660   6.434  1.1024  0.2055  0.4211
   11SAPS    HX 1360   5.998   0.760   6.433 -0.2232  0.8490 -0.3480
   11SAPS    HY 1361   5.979   0.614   6.337  0.5861 -1.8010  1.1672
   11SAPS   O31 1362   5.998   0.585   6.547  0.4974  0.0308  0.1293
   11SAPS   C31 1363   6.006   0.457   6.524 -0.4422 -0.0220 -0.7556
   11SAPS   O32 1364   5.974   0.398   6.422 -0.0100  0.3062  0.0454
   11SAPS   C32 1365   6.075   0.391   6.645 -1.3637 -0.0673  0.0659
   11SAPS   H2X 1366   6.052   0.442   6.741  1.0496  0.3617  0.4807
   11SAPS   H2Y 1367   6.184   0.411   6.635 -1.0872 -1.4055  0.1817
   11SAPS   C23 1368   5.552   0.849   6.752 -0.3561  0.1097 -0.0089
   11SAPS   H3R 1369   5.481   0.764   6.743  1.5549 -1.7726  1.6361
   11SAPS   H3S 1370   5.562   0.905   6.657  4.1644 -0.4934 -0.1110
   11SAPS   C24 1371   5.522   0.946   6.866  0.1906  0.1639  0.7224
   11SAPS   H4R 1372   5.513   0.890   6.962  0.2420 -1.5587 -0.2440
   11SAPS   H4S 1373   5.420   0.987   6.848 -0.3970 -1.9966 -1.4985
   11SAPS   C25 1374   5.631   1.048   6.861 -0.9423 -0.2774 -0.1554
   11SAPS   H5R 1375   5.627   1.123   6.781  1.2596  0.0181 -0.0595
   11SAPS   C26 1376   5.723   1.072   6.959  0.1555  0.3634 -0.4024
   11SAPS   H6R 1377   5.786   1.159   6.937 -1.3080  1.7783  0.7324
   11SAPS   C27 1378   5.750   1.001   7.086  0.3014  0.0792  0.6121
   11SAPS   H7R 1379   5.679   0.916   7.079 -0.7925  0.9014  1.2921
   11SAPS   H7S 1380   5.704   1.056   7.172  3.1459  3.0372  0.4361
   11SAPS   C28 1381   5.885   0.946   7.119 -0.3755  0.7389  0.1214
   11SAPS   H8R 1382   5.960   0.935   7.039 -0.7178  1.9831 -0.3947
   11SAPS   C29 1383   5.920   0.914   7.243 -0.2993  0.0049  0.3101
   11SAPS   H9R 1384   6.026   0.886   7.254 -0.5898 -0.7860  1.2406
   11SAPS  C210 1385   5.831   0.923   7.366 -0.2515 -0.4081 -0.0296
   11SAPS  H10R 1386   5.727   0.949   7.340  0.3659  1.3719 -0.9007
   11SAPS  H10S 1387   5.860   1.005   7.435 -1.4928 -1.1860  1.4666
   11SAPS  C211 1388   5.830   0.780   7.421  0.3982  0.1545  0.3073
   11SAPS  H11R 1389   5.850   0.701   7.348 -0.3262  1.6716 -1.6213
   11SAPS  C212 1390   5.797   0.749   7.549  0.1144 -0.5652 -0.0645
   11SAPS  H12R 1391   5.783   0.641   7.564  2.1304 -1.0054 -1.0530
   11SAPS  C213 1392   5.762   0.852   7.650  0.1486 -0.4919 -0.4326
   11SAPS  H13R 1393   5.681   0.808   7.712  0.7468 -2.0630 -0.7327
   11SAPS  H13S 1394   5.711   0.939   7.604  0.1417 -0.0642  0.3677
   11SAPS  C214 1395   5.878   0.911   7.733  0.3617 -0.1779  0.4574
   11SAPS  H14R 1396   5.945   0.974   7.673 -0.6231  0.5299  0.0702
   11SAPS  C215 1397   5.892   0.903   7.862  0.0906 -0.3161 -0.7478
   11SAPS  H15R 1398   5.989   0.928   7.906 -0.7701 -0.3473  1.3053
   11SAPS  C216 1399   5.793   0.838   7.959  0.0855  0.0802 -0.4493
   11SAPS  H16R 1400   5.838   0.797   8.052  0.0088 -0.9937 -0.8799
   11SAPS  H16S 1401   5.762   0.742   7.913 -2.3424  0.8411 -0.5449
   11SAPS  C217 1402   5.665   0.916   7.999  0.6081  0.5934 -0.0692
   11SAPS  H17R 1403   5.596   0.839   8.040  2.0523 -1.4150 -1.2376
   11SAPS  H17S 1404   5.633   0.973   7.909 -0.2673  0.8073  0.3677
   11SAPS  C218 1405   5.683   1.013   8.117  0.2487  0.5950  0.7740
   11SAPS  H18R 1406   5.772   1.078   8.100  0.6711 -0.0325  0.5204
   11SAPS  H18S 1407   5.709   0.942   8.199 -1.6329  0.0262  0.9264
   11SAPS  C219 1408   5.551   1.076   8.157 -0.1954  0.4276  1.0146
   11SAPS  H19R 1409   5.463   1.008   8.157 -1.1051  1.5468 -0.2635
   11SAPS  H19S 1410   5.519   1.134   8.068  0.0740 -1.2595 -0.2205
   11SAPS  C220 1411   5.539   1.169   8.282  0.5073  0.1458 -0.5866
   11SAPS  H20R 1412   5.587   1.112   8.364  3.4064  1.5438 -1.1717
   11SAPS  H20S 1413   5.434   1.194   8.311  0.7205  1.2666 -0.7086
   11SAPS  H20T 1414   5.591   1.265   8.261  0.3992  0.5652  0.9171
   11SAPS   C33 1415   6.059   0.244   6.662 -0.4712  0.4559 -0.0604
   11SAPS   H3X 1416   6.107   0.196   6.574 -0.5794  0.5814 -0.1898
   11SAPS   H3Y 1417   5.950   0.220   6.660  0.0981 -2.4212  0.0350
   11SAPS   C34 1418   6.122   0.189   6.794 -0.1609 -0.2672  0.2742
   11SAPS   H4X 1419   6.092   0.082   6.796  2.2324 -1.0138  0.2276
   11SAPS   H4Y 1420   6.075   0.243   6.878  0.3411 -0.7707  0.8914
   11SAPS   C35 1421   6.275   0.201   6.815 -0.1028 -0.4428  0.2802
   11SAPS   H5X 1422   6.318   0.299   6.785 -0.3192 -0.7619 -1.1303
   11SAPS   H5Y 1423   6.326   0.136   6.741  2.7061  0.2593  1.4608
   11SAPS   C36 1424   6.321   0.170   6.958 -0.0387  1.1522 -0.3837
   11SAPS   H6X 1425   6.427   0.139   6.947 -0.4851 -0.6394  0.0857
   11SAPS   H6Y 1426   6.271   0.076   6.990 -0.4350  0.9065 -1.6646
   11SAPS   C37 1427   6.310   0.279   7.063  0.0949 -0.3255 -0.5851
   11SAPS   H7X 1428   6.203   0.306   7.047  0.1443 -1.6665 -4.0006
   11SAPS   H7Y 1429   6.378   0.364   7.041 -1.0020  0.1743 -2.1814
   11SAPS   C38 1430   6.315   0.234   7.209 -0.2188  0.2727  0.2005
   11SAPS   H8X 1431   6.407   0.173   7.216  0.1057  0.5362 -1.3834
   11SAPS   H8Y 1432   6.229   0.175   7.249 -0.5057  0.7864  0.3593
   11SAPS   C39 1433   6.336   0.355   7.302 -0.0806 -0.8625  0.6655
   11SAPS   H9X 1434   6.237   0.404   7.289 -0.1789 -1.4242 -0.9625
   11SAPS   H9Y 1435   6.416   0.417   7.255 -2.6374  1.7528 -0.5064
   11SAPS  C310 1436   6.366   0.320   7.443  0.3830  0.2685  0.0278
   11SAPS  H10X 1437   6.451   0.248   7.448 -1.1632 -1.9431 -2.6683
   11SAPS  H10Y 1438   6.281   0.259   7.481  0.0805 -0.4031 -1.6660
   11SAPS  C311 1439   6.395   0.435   7.547  0.1934  0.5762 -0.1109
   11SAPS  H11X 1440   6.296   0.485   7.559 -1.3279 -2.2234 -0.2599
   11SAPS  H11Y 1441   6.481   0.495   7.511 -0.1451  2.0200  1.3433
   11SAPS  C312 1442   6.432   0.372   7.682 -0.2233 -0.4134 -0.0495
   11SAPS  H12X 1443   6.535   0.330   7.678 -0.6560 -1.7355  1.4915
   11SAPS  H12Y 1444   6.364   0.284   7.689 -1.4134  0.5762  1.7873
   11SAPS  C313 1445   6.426   0.463   7.804 -0.2791  0.3150 -0.3575
   11SAPS  H13X 1446   6.339   0.531   7.788 -0.7659 -0.0003  0.8186
   11SAPS  H13Y 1447   6.524   0.514   7.796  1.0941 -2.1627 -0.2841
   11SAPS  C314 1448   6.417   0.384   7.938  0.2094 -0.2761  0.0863
   11SAPS  H14X 1449   6.481   0.295   7.917  1.8027  0.8486 -0.0257
   11SAPS  H14Y 1450   6.311   0.361   7.961  0.3497 -0.6522  0.3680
   11SAPS  C315 1451   6.477   0.453   8.059  0.4548 -0.8091  1.1079
   11SAPS  H15X 1452   6.420   0.546   8.081  0.7816 -0.3418  0.0319
   11SAPS  H15Y 1453   6.584   0.474   8.039 -0.1025 -1.6608 -4.1258
   11SAPS  C316 1454   6.480   0.369   8.193 -0.0100 -0.3811  0.1852
   11SAPS  H16X 1455   6.509   0.263   8.182 -0.0681 -0.4701  0.8099
   11SAPS  H16Y 1456   6.376   0.381   8.232 -0.0183  1.6069 -0.3225
   11SAPS  C317 1457   6.561   0.431   8.308 -0.1932  0.1503 -1.1780
   11SAPS  H17X 1458   6.557   0.542   8.319 -0.8626  0.0108  0.3055
   11SAPS  H17Y 1459   6.668   0.409   8.290  0.1726  0.1490  0.7880
   11SAPS  C318 1460   6.533   0.375   8.448  0.0042 -0.6250  0.6787
   11SAPS  H18X 1461   6.515   0.266   8.459 -1.0518 -0.2480  3.6570
   11SAPS  H18Y 1462   6.457   0.445   8.489  0.3006  0.3017 -0.3143
   11SAPS  H18Z 1463   6.629   0.399   8.499  0.1345  1.5082 -0.4568
   12SAPS     N 1464   0.914   2.467   6.186  0.4327  0.2024  0.1652
   12SAPS   HN1 1465   0.857   2.382   6.165 -0.1775  0.9343 -1.2306
   12SAPS   HN2 1466   1.017   2.454   6.188  0.3264 -0.7224 -0.0024
   12SAPS   HN3 1467   0.869   2.496   6.275 -0.4475 -2.2053  0.5872
   12SAPS   C12 1468   0.871   2.564   6.077  0.1134  0.5801 -0.6223
   12SAPS  H12A 1469   0.879   2.664   6.115 -0.0885 -0.2787  1.8512
   12SAPS   C13 1470   0.950   2.559   5.951  0.0321  0.1687  0.3961
   12SAPS  O13A 1471   1.067   2.517   5.955 -0.0563  0.5257  0.1508
   12SAPS  O13B 1472   0.906   2.625   5.851  0.1925 -0.0500 -0.7251
   12SAPS   C11 1473   0.725   2.543   6.039 -0.7125 -0.2435 -0.1691
   12SAPS  H11A 1474   0.712   2.440   6.000  1.3391 -1.0323  1.0345
   12SAPS  H11B 1475   0.693   2.612   5.958  0.0477 -1.5035 -1.5998
   12SAPS     P 1476   0.497   2.518   6.155  0.2563 -0.2456  0.4695
   12SAPS   O13 1477   0.418   2.607   6.064 -0.2562  0.3484 -0.5236
   12SAPS   O14 1478   0.484   2.380   6.114 -0.6560  0.4366  0.0422
   12SAPS   O12 1479   0.646   2.560   6.158 -1.0485 -0.2641  0.5560
   12SAPS   O11 1480   0.453   2.543   6.306  0.2351  0.8014 -0.3178
   12SAPS    C1 1481   0.541   2.538   6.421  0.4448  0.0206  0.3811
   12SAPS    HA 1482   0.585   2.436   6.428 -1.6909 -0.9839  0.1499
   12SAPS    HB 1483   0.610   2.625   6.416 -0.8088  1.1058  1.0684
   12SAPS    C2 1484   0.462   2.568   6.552  0.5527  0.4512  0.0044
   12SAPS    HS 1485   0.389   2.485   6.564  1.2093  0.1457  2.4186
   12SAPS   O21 1486   0.395   2.695   6.546  0.0128  0.3323  0.1343
   12SAPS   C21 1487   0.267   2.692   6.504  0.4511 -0.0841  0.3730
   12SAPS   O22 1488   0.204   2.590   6.479 -0.2483 -0.4778  0.0521
   12SAPS   C22 1489   0.219   2.837   6.515  0.3872  0.1569 -0.3216
   12SAPS   H2R 1490   0.278   2.895   6.588  0.7698  0.5078 -0.8971
   12SAPS   H2S 1491   0.234   2.885   6.416 -0.3603 -1.3464 -1.2104
   12SAPS    C3 1492   0.551   2.572   6.685  0.5964 -0.3721  0.1536
   12SAPS    HX 1493   0.487   2.593   6.773 -0.0088 -1.0546 -0.1051
   12SAPS    HY 1494   0.609   2.666   6.677  1.3354 -0.8775 -0.5716
   12SAPS   O31 1495   0.637   2.461   6.704  0.2618  0.5395  0.3929
   12SAPS   C31 1496   0.586   2.366   6.795  0.6110  0.1739  0.1340
   12SAPS   O32 1497   0.466   2.352   6.818 -0.3467 -0.3125  0.0956
   12SAPS   C32 1498   0.703   2.284   6.851  0.6151  0.2955 -0.0475
   12SAPS   H2X 1499   0.779   2.363   6.872 -1.4723  3.3544 -2.9319
   12SAPS   H2Y 1500   0.744   2.233   6.761  0.1250 -0.7204  0.2903
   12SAPS   C23 1501   0.073   2.862   6.540  0.5763  0.3189 -0.1593
   12SAPS   H3R 1502   0.008   2.807   6.469  1.6637  2.3704 -2.9014
   12SAPS   H3S 1503   0.044   2.969   6.531  0.1730  0.2743  0.5180
   12SAPS   C24 1504   0.044   2.832   6.695  0.8751 -0.4797 -0.0284
   12SAPS   H4R 1505  -0.066   2.843   6.707  0.2147 -5.9452  1.8305
   12SAPS   H4S 1506   0.095   2.913   6.752  3.1862 -1.5169 -0.5094
   12SAPS   C25 1507   0.067   2.685   6.735 -0.3132  0.1262 -0.3735
   12SAPS   H5R 1508   0.001   2.613   6.685 -0.3961 -1.4115  1.8190
   12SAPS   C26 1509   0.145   2.637   6.829  0.1855  0.5181  0.6444
   12SAPS   H6R 1510   0.147   2.527   6.832  0.2519  0.4070 -1.5618
   12SAPS   C27 1511   0.237   2.705   6.934  0.7552 -0.4689  0.6718
   12SAPS   H7R 1512   0.176   2.775   6.996 -0.0015  1.4440 -2.0164
   12SAPS   H7S 1513   0.297   2.779   6.877 -2.1839  3.9508  2.7890
   12SAPS   C28 1514   0.313   2.613   7.018 -0.6928  0.1188  0.5696
   12SAPS   H8R 1515   0.334   2.520   6.963  0.7077  2.3281 -2.9960
   12SAPS   C29 1516   0.360   2.637   7.137  0.2066 -0.0610 -0.3897
   12SAPS   H9R 1517   0.413   2.554   7.185 -0.6908 -0.2233  0.3658
   12SAPS  C210 1518   0.345   2.756   7.231  0.7906 -0.0790  0.7405
   12SAPS  H10R 1519   0.357   2.844   7.164  3.2963 -1.7691 -1.2309
   12SAPS  H10S 1520   0.434   2.762   7.297  0.0644  1.3004  1.6328
   12SAPS  C211 1521   0.214   2.746   7.301  0.0060  0.1194 -0.3947
   12SAPS  H11R 1522   0.123   2.767   7.243 -0.3764 -0.0693  0.1314
   12SAPS  C212 1523   0.194   2.709   7.433  0.4004 -0.6522  1.0472
   12SAPS  H12R 1524   0.087   2.701   7.457  0.3504  2.0876  2.1192
   12SAPS  C213 1525   0.286   2.662   7.543 -0.3382 -0.0186 -0.7672
   12SAPS  H13R 1526   0.375   2.611   7.499  0.4653  0.6635  0.0260
   12SAPS  H13S 1527   0.227   2.597   7.612 -1.6681 -1.3478 -3.0314
   12SAPS  C214 1528   0.340   2.777   7.623 -0.0169 -0.0134  0.1644
   12SAPS  H14R 1529   0.430   2.812   7.570  1.6125 -5.3690 -1.1866
   12SAPS  C215 1530   0.295   2.829   7.740 -0.3109  0.6516  0.8728
   12SAPS  H15R 1531   0.358   2.899   7.797 -0.7601  1.7583  0.0455
   12SAPS  C216 1532   0.177   2.789   7.825 -0.6202 -0.6379  0.3413
   12SAPS  H16R 1533   0.108   2.725   7.766 -1.7000  0.3806  0.4791
   12SAPS  H16S 1534   0.120   2.878   7.857  0.7496  0.3025  0.2561
   12SAPS  C217 1535   0.219   2.716   7.949 -0.0941 -0.9252 -0.0747
   12SAPS  H17R 1536   0.278   2.787   8.011 -0.6078 -1.0187  0.5387
   12SAPS  H17S 1537   0.281   2.627   7.926  2.3593  0.8692 -0.6753
   12SAPS  C218 1538   0.091   2.681   8.025 -0.1154  0.4670 -0.0101
   12SAPS  H18R 1539   0.016   2.628   7.962  0.7145  1.4660 -1.9296
   12SAPS  H18S 1540   0.036   2.770   8.066  0.4926  1.1836 -0.7240
   12SAPS  C219 1541   0.105   2.591   8.154 -0.2287  0.0196 -0.6115
   12SAPS  H19R 1542   0.107   2.483   8.128 -1.5667 -0.4787  1.1869
   12SAPS  H19S 1543   0.015   2.586   8.218 -0.5996  0.8672 -1.0541
   12SAPS  C220 1544   0.235   2.620   8.232 -0.3520  0.4291  0.2698
   12SAPS  H20R 1545   0.236   2.730   8.248  0.3167  0.6875 -1.3875
   12SAPS  H20S 1546   0.326   2.580   8.183 -1.3123 -0.7309 -0.6236
   12SAPS  H20T 1547   0.234   2.570   8.331  1.2513 -0.3945 -0.0943
   12SAPS   C33 1548   0.683   2.197   6.981 -0.6460 -0.3566  0.7623
   12SAPS   H3X 1549   0.772   2.132   6.994  1.0553  2.1066  2.2230
   12SAPS   H3Y 1550   0.590   2.137   6.968  0.6638 -2.6104  1.3105
   12SAPS   C34 1551   0.669   2.287   7.108  0.1417 -0.3848 -0.5019
   12SAPS   H4X 1552   0.569   2.332   7.088 -0.4430 -1.4952 -0.1600
   12SAPS   H4Y 1553   0.752   2.361   7.110  1.4506 -1.7943 -0.5804
   12SAPS   C35 1554   0.667   2.202   7.235  0.2442 -0.5972  0.0851
   12SAPS   H5X 1555   0.758   2.139   7.249 -0.9057 -2.2764  0.2646
   12SAPS   H5Y 1556   0.586   2.128   7.217  0.5353 -1.0879  0.7221
   12SAPS   C36 1557   0.644   2.292   7.356  0.4170 -0.0562  0.4641
   12SAPS   H6X 1558   0.632   2.227   7.445  0.9216 -1.6270 -0.5752
   12SAPS   H6Y 1559   0.549   2.347   7.342  1.2366  0.8820 -1.9040
   12SAPS   C37 1560   0.763   2.382   7.404  0.1640 -0.1793 -0.2859
   12SAPS   H7X 1561   0.791   2.466   7.337 -0.3123 -0.1295 -0.4263
   12SAPS   H7Y 1562   0.842   2.309   7.431  1.7534  1.0268 -1.5219
   12SAPS   C38 1563   0.732   2.457   7.542  0.0715  0.8929  0.5667
   12SAPS   H8X 1564   0.647   2.527   7.547  0.8807  1.8315  1.8141
   12SAPS   H8Y 1565   0.830   2.504   7.568  0.5079  0.8458 -0.9293
   12SAPS   C39 1566   0.710   2.356   7.659  1.0704  0.3649 -0.0217
   12SAPS   H9X 1567   0.755   2.255   7.650  0.3263  0.1077 -0.9639
   12SAPS   H9Y 1568   0.600   2.350   7.650  0.9753 -0.0353  1.2362
   12SAPS  C310 1569   0.758   2.412   7.792 -0.6384  0.3857  0.0300
   12SAPS  H10X 1570   0.731   2.518   7.810  1.4967  1.1348 -0.8080
   12SAPS  H10Y 1571   0.869   2.411   7.790 -0.6232 -0.9879  0.1535
   12SAPS  C311 1572   0.708   2.327   7.908  0.0165  0.1477  0.2734
   12SAPS  H11X 1573   0.734   2.219   7.914  0.0347  0.2371  2.9162
   12SAPS  H11Y 1574   0.600   2.333   7.885  0.1635  1.1463 -0.2407
   12SAPS  C312 1575   0.742   2.384   8.043 -0.1750 -0.3757 -0.0554
   12SAPS  H12X 1576   0.770   2.491   8.029 -0.4303 -0.2115  0.6646
   12SAPS  H12Y 1577   0.836   2.331   8.068 -0.1132 -0.3832 -0.2978
   12SAPS  C313 1578   0.630   2.367   8.151 -0.4122  0.0268  0.4939
   12SAPS  H13X 1579   0.531   2.394   8.107 -2.5196 -2.3568  3.4058
   12SAPS  H13Y 1580   0.639   2.450   8.224 -1.8617  2.2699 -1.6999
   12SAPS  C314 1581   0.592   2.230   8.210  0.2535 -0.5848 -0.4917
   12SAPS  H14X 1582   0.526   2.171   8.143 -0.2919 -3.0024  2.0109
   12SAPS  H14Y 1583   0.530   2.240   8.302 -0.7562  5.8428 -1.3952
   12SAPS  C315 1584   0.716   2.151   8.250  0.2284  0.0790 -0.6962
   12SAPS  H15X 1585   0.777   2.127   8.161 -0.2775 -0.6373 -0.8553
   12SAPS  H15Y 1586   0.685   2.056   8.299 -0.4685 -1.4768 -3.8987
   12SAPS  C316 1587   0.791   2.224   8.361 -0.1827  0.2224  0.4843
   12SAPS  H16X 1588   0.732   2.249   8.452  1.8434 -1.0240  2.2308
   12SAPS  H16Y 1589   0.830   2.320   8.321  3.9088 -1.8442 -1.0579
   12SAPS  C317 1590   0.908   2.137   8.419 -0.3268 -0.1146  0.0394
   12SAPS  H17X 1591   0.986   2.130   8.341  0.5391  0.2247  0.8609
   12SAPS  H17Y 1592   0.855   2.040   8.431 -1.0204  0.1862 -0.5116
   12SAPS  C318 1593   0.961   2.190   8.554 -0.5333  0.1120  0.0493
   12SAPS  H18X 1594   0.870   2.221   8.610 -1.4338  0.2494 -1.4152
   12SAPS  H18Y 1595   1.029   2.278   8.550 -2.0740  1.3464 -0.3798
   12SAPS  H18Z 1596   1.017   2.111   8.607 -2.6982 -2.0537 -0.6980
   13SAPS     N 1597   6.132   5.267   6.167  0.1717  0.4317  0.4875
   13SAPS   HN1 1598   6.182   5.321   6.240 -2.0044  1.1727  1.5106
   13SAPS   HN2 1599   6.041   5.231   6.203 -0.6663 -0.2192 -2.0597
   13SAPS   HN3 1600   6.191   5.184   6.146  0.2515  0.8799 -1.2458
   13SAPS   C12 1601   6.116   5.351   6.041 -0.4931  0.2568 -0.2925
   13SAPS  H12A 1602   6.209   5.382   5.996  0.2007  0.5553  1.2692
   13SAPS   C13 1603   6.036   5.273   5.934 -0.5746 -0.9240  0.1843
   13SAPS  O13A 1604   5.983   5.162   5.963  0.2282 -0.0300  0.1933
   13SAPS  O13B 1605   6.006   5.339   5.831 -0.0509  0.0734 -0.3085
   13SAPS   C11 1606   6.043   5.479   6.087 -0.2019 -0.5303  0.8463
   13SAPS  H11A 1607   5.939   5.451   6.116 -1.5191  0.5451 -2.3263
   13SAPS  H11B 1608   6.025   5.549   6.002 -3.9279 -1.2088  0.8995
   13SAPS     P 1609   6.034   5.691   6.251 -0.1099 -0.4813  0.2662
   13SAPS   O13 1610   6.141   5.794   6.244 -0.5534  0.0900 -0.3004
   13SAPS   O14 1611   5.899   5.704   6.194 -0.9242 -0.0708 -0.0909
   13SAPS   O12 1612   6.096   5.552   6.198 -0.4127 -0.1267 -0.3892
   13SAPS   O11 1613   6.012   5.655   6.405  0.1156 -0.6732  0.2773
   13SAPS    C1 1614   5.894   5.588   6.448 -0.0668 -0.6905 -0.0250
   13SAPS    HA 1615   5.809   5.657   6.434  1.7932  1.0993 -4.2658
   13SAPS    HB 1616   5.865   5.508   6.376  2.4986 -0.8291 -1.0127
   13SAPS    C2 1617   5.905   5.532   6.592  0.5966 -0.0216 -0.3153
   13SAPS    HS 1618   5.804   5.492   6.616  0.3648  1.9104  2.3013
   13SAPS   O21 1619   5.932   5.640   6.682 -0.0567 -0.3859 -0.4549
   13SAPS   C21 1620   5.831   5.718   6.710  0.2382 -0.0323 -0.6697
   13SAPS   O22 1621   5.713   5.705   6.680  0.9591 -0.2342  0.6072
   13SAPS   C22 1622   5.881   5.826   6.812 -0.0244 -0.2072  0.2863
   13SAPS   H2R 1623   5.953   5.786   6.887 -0.7116  2.3492  2.4410
   13SAPS   H2S 1624   5.932   5.901   6.748 -1.1529  2.2231  2.0859
   13SAPS    C3 1625   6.011   5.416   6.591 -0.3682 -0.1662 -1.1602
   13SAPS    HX 1626   6.110   5.464   6.578 -1.4244  2.0405 -1.6471
   13SAPS    HY 1627   6.024   5.352   6.502  0.2232 -1.0057 -0.4854
   13SAPS   O31 1628   6.001   5.328   6.710 -0.2490  0.5447  0.1215
   13SAPS   C31 1629   5.926   5.226   6.702 -0.0539 -1.3506  0.4269
   13SAPS   O32 1630   5.863   5.192   6.605 -0.3925 -0.8533  0.1252
   13SAPS   C32 1631   5.934   5.157   6.840 -0.4682  0.2657  0.1097
   13SAPS   H2X 1632   6.039   5.120   6.844  0.1499  1.9855  2.0172
   13SAPS   H2Y 1633   5.872   5.066   6.835  0.4516 -0.3008 -3.7237
   13SAPS   C23 1634   5.769   5.903   6.886  0.0125  0.3953 -0.6081
   13SAPS   H3R 1635   5.687   5.936   6.819  0.3698  0.8713 -0.8153
   13SAPS   H3S 1636   5.813   5.995   6.932 -1.1638  0.0590  1.3324
   13SAPS   C24 1637   5.694   5.827   6.998 -0.2632 -0.0551 -0.2411
   13SAPS   H4R 1638   5.766   5.768   7.059 -1.4606 -1.7218 -0.3897
   13SAPS   H4S 1639   5.634   5.741   6.961 -1.4102 -0.2798  1.9704
   13SAPS   C25 1640   5.599   5.922   7.074  0.6784 -0.6012 -0.2299
   13SAPS   H5R 1641   5.503   5.934   7.022  0.0398 -0.0699  1.0199
   13SAPS   C26 1642   5.607   5.981   7.191 -0.2898 -0.5929  0.2131
   13SAPS   H6R 1643   5.519   6.038   7.225  0.0978  1.1843 -1.5557
   13SAPS   C27 1644   5.724   5.969   7.289 -0.2628 -0.9196 -0.5043
   13SAPS   H7R 1645   5.784   6.062   7.297  0.4862 -1.1374 -2.7223
   13SAPS   H7S 1646   5.793   5.894   7.245 -2.5422 -1.6028 -3.2597
   13SAPS   C28 1647   5.666   5.921   7.415  0.6976 -1.3759  0.0076
   13SAPS   H8R 1648   5.556   5.930   7.424  0.6367 -1.0606 -0.9159
   13SAPS   C29 1649   5.730   5.876   7.528  0.2592  0.0479 -0.0218
   13SAPS   H9R 1650   5.673   5.844   7.617 -1.3876  1.5828 -0.4562
   13SAPS  C210 1651   5.878   5.863   7.530  0.2346  0.9511 -0.5990
   13SAPS  H10R 1652   5.933   5.932   7.463 -0.6505  2.9325  0.6134
   13SAPS  H10S 1653   5.895   5.766   7.478 -2.4020  0.3835 -0.5630
   13SAPS  C211 1654   5.942   5.869   7.664  0.6545  0.5290 -0.0943
   13SAPS  H11R 1655   5.926   5.958   7.728  1.6389  1.3383 -0.9385
   13SAPS  C212 1656   6.028   5.778   7.719  0.0915  0.0541 -0.5362
   13SAPS  H12R 1657   6.068   5.795   7.820 -0.7871 -1.3353  0.0703
   13SAPS  C213 1658   6.083   5.649   7.651  0.6148  1.0191  0.2160
   13SAPS  H13R 1659   6.190   5.631   7.675  0.7375  2.1261  0.5462
   13SAPS  H13S 1660   6.097   5.671   7.544  2.1331  0.8099  0.3561
   13SAPS  C214 1661   5.990   5.526   7.662  0.2921  0.3819  0.1987
   13SAPS  H14R 1662   5.881   5.542   7.667  0.5099  2.2282 -0.1597
   13SAPS  C215 1663   6.045   5.401   7.644 -0.3841  0.5573 -0.2933
   13SAPS  H15R 1664   5.976   5.316   7.650 -0.5460  0.5783 -1.5476
   13SAPS  C216 1665   6.197   5.363   7.632 -0.0002  0.3100 -0.2139
   13SAPS  H16R 1666   6.258   5.453   7.610 -1.6623  1.4780 -0.2580
   13SAPS  H16S 1667   6.207   5.317   7.531 -2.2509  0.3238 -0.4960
   13SAPS  C217 1668   6.247   5.262   7.731 -0.7501  0.5493 -0.4939
   13SAPS  H17R 1669   6.337   5.204   7.702 -1.2143 -2.9974  3.9319
   13SAPS  H17S 1670   6.169   5.185   7.750  1.0171 -1.1757  0.0856
   13SAPS  C218 1671   6.284   5.334   7.860  0.3194 -0.0082 -0.4941
   13SAPS  H18R 1672   6.195   5.391   7.896  1.4815  0.8623  1.1301
   13SAPS  H18S 1673   6.357   5.414   7.831 -1.4176  2.5255  1.6246
   13SAPS  C219 1674   6.356   5.251   7.971 -0.0238 -0.8955 -0.3457
   13SAPS  H19R 1675   6.306   5.157   8.002  1.4662 -1.6165  0.0039
   13SAPS  H19S 1676   6.345   5.307   8.067 -3.1878 -0.9703 -0.5600
   13SAPS  C220 1677   6.511   5.224   7.951 -0.0987  0.0385 -0.8107
   13SAPS  H20R 1678   6.531   5.156   7.866 -1.9099  0.4042 -1.5954
   13SAPS  H20S 1679   6.552   5.177   8.043 -2.7549  2.1437  1.6427
   13SAPS  H20T 1680   6.568   5.318   7.936  0.4527  0.1141  1.4928
   13SAPS   C33 1681   5.911   5.247   6.966  0.7888  0.6293  0.3277
   13SAPS   H3X 1682   5.993   5.322   6.967  0.1192  1.3938 -0.5016
   13SAPS   H3Y 1683   5.928   5.177   7.051 -0.7433  1.4559  1.3782
   13SAPS   C34 1684   5.772   5.312   6.969 -0.0046 -0.0630 -0.4910
   13SAPS   H4X 1685   5.683   5.246   6.966 -0.3803  0.3774  0.5624
   13SAPS   H4Y 1686   5.758   5.390   6.890  1.4047 -0.5636 -1.2609
   13SAPS   C35 1687   5.755   5.382   7.110  0.5490  0.1873 -0.1167
   13SAPS   H5X 1688   5.838   5.451   7.139  0.0691  0.9580 -0.5407
   13SAPS   H5Y 1689   5.759   5.297   7.182  1.5195 -0.7529 -1.2321
   13SAPS   C36 1690   5.623   5.442   7.120  0.8373 -0.1590  0.5651
   13SAPS   H6X 1691   5.542   5.367   7.116 -0.5120  1.2897 -2.4829
   13SAPS   H6Y 1692   5.602   5.496   7.025 -1.4637 -1.4770  0.2507
   13SAPS   C37 1693   5.594   5.531   7.243 -0.2150  0.5141 -0.0755
   13SAPS   H7X 1694   5.491   5.570   7.228  0.1903  0.9222 -1.9458
   13SAPS   H7Y 1695   5.660   5.618   7.260  1.0301 -0.7131  1.8559
   13SAPS   C38 1696   5.597   5.450   7.371  0.6702  0.1928  0.2184
   13SAPS   H8X 1697   5.682   5.379   7.376  1.1743  0.3164 -3.4929
   13SAPS   H8Y 1698   5.501   5.396   7.387 -0.2641  2.4681  3.3476
   13SAPS   C39 1699   5.599   5.535   7.495  0.1172 -0.0816  0.1068
   13SAPS   H9X 1700   5.522   5.615   7.485  0.1385  0.0606  0.9975
   13SAPS   H9Y 1701   5.693   5.593   7.512 -1.7582  2.7802  1.6527
   13SAPS  C310 1702   5.573   5.456   7.624 -0.3816  0.3908  0.7862
   13SAPS  H10X 1703   5.642   5.369   7.632 -2.3174 -1.4782 -1.3425
   13SAPS  H10Y 1704   5.470   5.416   7.628 -0.1255 -0.7528 -1.7190
   13SAPS  C311 1705   5.601   5.541   7.749 -0.6296 -0.6725  0.2871
   13SAPS  H11X 1706   5.529   5.625   7.763 -0.7778 -0.7745  0.1487
   13SAPS  H11Y 1707   5.701   5.588   7.755 -0.8962  0.0400 -0.6117
   13SAPS  C312 1708   5.585   5.448   7.874 -0.3269  0.0097 -0.9043
   13SAPS  H12X 1709   5.637   5.350   7.867 -2.1502 -1.0985  0.1281
   13SAPS  H12Y 1710   5.478   5.421   7.890 -0.2451  0.9503  1.5610
   13SAPS  C313 1711   5.639   5.512   8.007 -0.1662 -0.4387  0.0805
   13SAPS  H13X 1712   5.652   5.622   8.003 -0.7829 -0.3900 -0.9172
   13SAPS  H13Y 1713   5.736   5.457   8.016 -0.9449 -1.8022  0.3862
   13SAPS  C314 1714   5.569   5.455   8.136  0.7436 -0.2625  0.3798
   13SAPS  H14X 1715   5.587   5.346   8.150 -0.4351 -0.6015 -0.6117
   13SAPS  H14Y 1716   5.460   5.448   8.117  0.9429 -1.0127 -0.5066
   13SAPS  C315 1717   5.611   5.522   8.267 -0.1497  0.3251 -0.7915
   13SAPS  H15X 1718   5.565   5.623   8.259 -0.5448  0.3309  1.1148
   13SAPS  H15Y 1719   5.721   5.528   8.280 -0.0026 -0.4562 -1.5424
   13SAPS  C316 1720   5.546   5.457   8.391  1.2450 -0.3785 -1.1365
   13SAPS  H16X 1721   5.579   5.351   8.384  1.7437 -0.2587 -0.6386
   13SAPS  H16Y 1722   5.437   5.454   8.370  1.6970  0.7879 -4.1297
   13SAPS  C317 1723   5.565   5.519   8.536  0.0458 -0.7380 -0.0196
   13SAPS  H17X 1724   5.549   5.629   8.542 -1.2507 -0.8298 -1.1930
   13SAPS  H17Y 1725   5.673   5.508   8.562  0.3642 -0.0898 -0.9937
   13SAPS  C318 1726   5.474   5.457   8.642 -0.2579 -0.0788  0.6447
   13SAPS  H18X 1727   5.370   5.470   8.603  0.5760 -0.1082 -1.7497
   13SAPS  H18Y 1728   5.491   5.505   8.740  0.6654 -1.1526  1.0339
   13SAPS  H18Z 1729   5.493   5.347   8.640 -0.4427 -0.1098  0.4218
   14SAPS     N 1730   1.052   5.791   6.129 -0.4636  0.0082 -0.4908
   14SAPS   HN1 1731   1.108   5.767   6.213 -0.9538  1.7118  0.3625
   14SAPS   HN2 1732   1.002   5.877   6.158 -0.0416  0.1127 -0.0682
   14SAPS   HN3 1733   0.981   5.716   6.121 -0.7226  0.2313 -0.3285
   14SAPS   C12 1734   1.121   5.804   6.002  0.1603 -0.0735  0.0308
   14SAPS  H12A 1735   1.134   5.707   5.956 -0.8200 -0.3043  0.2087
   14SAPS   C13 1736   1.043   5.892   5.904  0.0003  0.3228 -0.5121
   14SAPS  O13A 1737   0.920   5.911   5.916 -0.1759  0.7027 -0.8158
   14SAPS  O13B 1738   1.100   5.928   5.793  0.6855  0.0882  0.4548
   14SAPS   C11 1739   1.259   5.864   6.026 -1.5341  0.3202  0.0828
   14SAPS  H11A 1740   1.262   5.969   6.062  0.8029  1.9599 -4.2105
   14SAPS  H11B 1741   1.296   5.868   5.922 -0.0269  1.3657  0.6293
   14SAPS     P 1742   1.454   5.829   6.184 -0.0105  0.0115 -0.3792
   14SAPS   O13 1743   1.544   5.720   6.230 -0.0974  0.2017 -0.1267
   14SAPS   O14 1744   1.512   5.945   6.114  0.2470 -0.9531 -0.0144
   14SAPS   O12 1745   1.334   5.774   6.100 -0.5691  0.3976 -0.4343
   14SAPS   O11 1746   1.373   5.888   6.307  0.5173  0.4922  0.3067
   14SAPS    C1 1747   1.409   6.002   6.380  0.0829  0.1730  0.0009
   14SAPS    HA 1748   1.498   5.970   6.439  1.8145 -1.8977 -3.4116
   14SAPS    HB 1749   1.446   6.084   6.315  0.1765 -0.5693 -0.8941
   14SAPS    C2 1750   1.296   6.049   6.466 -0.1218  0.3167 -0.4271
   14SAPS    HS 1751   1.322   6.132   6.535 -2.5963  0.0225  0.9711
   14SAPS   O21 1752   1.250   5.937   6.548 -0.5783 -0.5251 -0.3582
   14SAPS   C21 1753   1.320   5.918   6.660  1.1868 -0.6946  0.2589
   14SAPS   O22 1754   1.404   5.992   6.698 -0.3866 -0.4242  0.3569
   14SAPS   C22 1755   1.263   5.799   6.730  0.3863  0.3014  0.0199
   14SAPS   H2R 1756   1.166   5.822   6.781 -2.1072 -2.9250 -2.7710
   14SAPS   H2S 1757   1.227   5.725   6.655 -2.5573  0.2377  1.3442
   14SAPS    C3 1758   1.183   6.095   6.376  0.2591  0.7203 -0.2780
   14SAPS    HX 1759   1.166   6.010   6.306 -1.5822  0.2624  0.6419
   14SAPS    HY 1760   1.227   6.185   6.328  0.5824  0.3192 -0.7445
   14SAPS   O31 1761   1.063   6.131   6.455  0.2378 -0.0018  0.1960
   14SAPS   C31 1762   0.965   6.039   6.471 -0.0689  0.1363  1.3537
   14SAPS   O32 1763   0.978   5.922   6.437 -0.1016 -0.1957  0.0709
   14SAPS   C32 1764   0.848   6.102   6.540 -0.2386 -0.4081  0.3154
   14SAPS   H2X 1765   0.771   6.106   6.460  2.2307  2.6831 -2.2098
   14SAPS   H2Y 1766   0.878   6.206   6.564  1.3444 -0.9582  0.8196
   14SAPS   C23 1767   1.358   5.713   6.813 -0.2883 -0.2550  0.2741
   14SAPS   H3R 1768   1.453   5.694   6.759  0.5113  3.3350  0.1636
   14SAPS   H3S 1769   1.299   5.624   6.842  0.6049 -1.0527 -0.2686
   14SAPS   C24 1770   1.412   5.767   6.946 -1.2618  0.1306 -0.2562
   14SAPS   H4R 1771   1.467   5.859   6.915 -1.1888 -0.1533 -1.0027
   14SAPS   H4S 1772   1.486   5.692   6.981 -0.0957  1.7950  1.0572
   14SAPS   C25 1773   1.312   5.805   7.052  0.7553  0.9427 -0.4620
   14SAPS   H5R 1774   1.222   5.860   7.020 -0.4007 -1.1502 -1.0032
   14SAPS   C26 1775   1.315   5.759   7.180  0.0926 -0.0457 -0.3093
   14SAPS   H6R 1776   1.236   5.784   7.252  1.8203 -0.0032  1.6518
   14SAPS   C27 1777   1.423   5.670   7.238  0.3332  0.0540  0.1703
   14SAPS   H7R 1778   1.471   5.717   7.326  0.4633 -0.3497  0.3198
   14SAPS   H7S 1779   1.510   5.639   7.177  1.7765 -2.6177  3.2315
   14SAPS   C28 1780   1.377   5.534   7.280 -0.2724  0.3227  0.2927
   14SAPS   H8R 1781   1.370   5.461   7.198  1.8013  2.1742 -1.6945
   14SAPS   C29 1782   1.349   5.490   7.405 -0.1862  0.2798  1.3484
   14SAPS   H9R 1783   1.336   5.381   7.414  0.6235  0.1784  1.3522
   14SAPS  C210 1784   1.362   5.573   7.531 -0.0884  0.1763  0.3202
   14SAPS  H10R 1785   1.263   5.619   7.553 -0.4334 -0.3580 -0.1005
   14SAPS  H10S 1786   1.426   5.664   7.521 -2.2777  2.1318  2.6718
   14SAPS  C211 1787   1.410   5.482   7.646  0.4199 -0.7267 -0.4122
   14SAPS  H11R 1788   1.455   5.384   7.626  0.5199 -0.9474  0.8315
   14SAPS  C212 1789   1.422   5.522   7.773 -0.2586  0.3061 -0.2428
   14SAPS  H12R 1790   1.457   5.450   7.849  0.6448 -1.0787 -1.8921
   14SAPS  C213 1791   1.382   5.661   7.819  0.9463 -0.3960  0.8065
   14SAPS  H13R 1792   1.280   5.686   7.785  0.3832 -0.9359  2.0412
   14SAPS  H13S 1793   1.452   5.733   7.772 -2.1924  1.9239 -0.6392
   14SAPS  C214 1794   1.377   5.673   7.966 -0.5920 -0.1849  0.1048
   14SAPS  H14R 1795   1.275   5.688   8.007 -0.3095  2.1925  0.0708
   14SAPS  C215 1796   1.486   5.678   8.045  0.4826 -0.0647  0.2241
   14SAPS  H15R 1797   1.472   5.694   8.153 -1.2365  1.6300 -0.2070
   14SAPS  C216 1798   1.628   5.675   8.006  0.0081  0.3492 -0.0751
   14SAPS  H16R 1799   1.642   5.682   7.896 -0.3294 -0.3080 -0.1655
   14SAPS  H16S 1800   1.673   5.580   8.043  0.9997  1.2622  1.0980
   14SAPS  C217 1801   1.705   5.797   8.076  0.2967 -0.2895  0.1978
   14SAPS  H17R 1802   1.686   5.798   8.185 -0.0987  2.9827  0.1973
   14SAPS  H17S 1803   1.668   5.897   8.044 -0.7864 -0.6316  0.3537
   14SAPS  C218 1804   1.853   5.778   8.055 -0.3015 -0.3129 -0.0151
   14SAPS  H18R 1805   1.865   5.765   7.945 -2.0788 -1.7440 -0.0882
   14SAPS  H18S 1806   1.877   5.684   8.108  1.2938 -1.7251 -2.9711
   14SAPS  C219 1807   1.951   5.894   8.079 -0.5363 -0.0220 -0.1308
   14SAPS  H19R 1808   2.050   5.861   8.041  1.0783  1.2330  2.6481
   14SAPS  H19S 1809   1.963   5.908   8.189  0.3134 -0.7854 -0.1149
   14SAPS  C220 1810   1.917   6.023   8.001 -0.0080 -0.2932 -0.3666
   14SAPS  H20R 1811   2.006   6.089   8.008  1.1201 -1.7492 -0.5882
   14SAPS  H20S 1812   1.827   6.073   8.044  1.4798  1.0533  1.3465
   14SAPS  H20T 1813   1.896   6.008   7.893 -1.7912 -0.5938 -0.0207
   14SAPS   C33 1814   0.803   6.024   6.656  0.5373  0.5795  0.1725
   14SAPS   H3X 1815   0.785   5.917   6.634 -1.1660  1.2798 -2.0807
   14SAPS   H3Y 1816   0.709   6.075   6.683 -0.1764 -0.0594 -1.0356
   14SAPS   C34 1817   0.893   6.045   6.773  0.4139  0.7414 -0.2948
   14SAPS   H4X 1818   0.907   6.145   6.819 -3.6897  1.0788  0.6346
   14SAPS   H4Y 1819   0.985   5.985   6.759 -0.4544 -0.8198  0.4246
   14SAPS   C35 1820   0.829   5.978   6.896 -0.2819 -0.3676 -0.6269
   14SAPS   H5X 1821   0.804   5.875   6.863  1.9738 -1.3876  0.6389
   14SAPS   H5Y 1822   0.732   6.024   6.926  0.3875 -1.2440  3.5747
   14SAPS   C36 1823   0.919   5.978   7.018 -0.4642  0.1851  0.7897
   14SAPS   H6X 1824   0.961   6.078   7.043  2.9549 -1.2573  1.4227
   14SAPS   H6Y 1825   1.010   5.919   6.992 -1.1956  0.4499 -2.9282
   14SAPS   C37 1826   0.855   5.915   7.140  0.8344  0.4939 -0.4670
   14SAPS   H7X 1827   0.814   5.814   7.116  0.2493  0.3752  0.9486
   14SAPS   H7Y 1828   0.768   5.974   7.174 -0.3495 -2.8288  2.9682
   14SAPS   C38 1829   0.962   5.886   7.253 -0.1641  0.0339 -0.2836
   14SAPS   H8X 1830   1.008   5.980   7.289  1.9810 -2.0679  3.0408
   14SAPS   H8Y 1831   1.049   5.832   7.209  0.4013  1.3199 -0.7876
   14SAPS   C39 1832   0.909   5.824   7.386 -0.0327 -0.3798 -0.2780
   14SAPS   H9X 1833   0.883   5.717   7.377 -2.3024  0.0249  0.8151
   14SAPS   H9Y 1834   0.821   5.872   7.435  0.8973 -0.0380  1.1129
   14SAPS  C310 1835   1.024   5.822   7.488  0.1301  0.2307  0.5442
   14SAPS  H10X 1836   1.039   5.930   7.510  1.5142  0.6304 -1.9996
   14SAPS  H10Y 1837   1.123   5.796   7.443  0.1904 -0.9262  1.2871
   14SAPS  C311 1838   0.999   5.746   7.613  0.1327  0.0093 -0.6508
   14SAPS  H11X 1839   1.096   5.745   7.667 -0.1476 -1.1654 -0.1256
   14SAPS  H11Y 1840   0.969   5.641   7.590 -0.4428  0.4632 -2.0971
   14SAPS  C312 1841   0.907   5.822   7.716 -0.6159 -0.3311  0.7029
   14SAPS  H12X 1842   0.802   5.831   7.681 -0.4592 -0.1483  0.2787
   14SAPS  H12Y 1843   0.953   5.923   7.710  0.8017 -0.9629  0.4832
   14SAPS  C313 1844   0.913   5.764   7.866  0.1683 -0.5632  0.1620
   14SAPS  H13X 1845   1.021   5.739   7.880  0.8595  0.4850 -2.5876
   14SAPS  H13Y 1846   0.855   5.670   7.876 -0.0788 -0.3551  0.6712
   14SAPS  C314 1847   0.864   5.859   7.976 -1.0105 -0.2300 -0.1276
   14SAPS  H14X 1848   0.767   5.902   7.942 -1.0986 -1.9768 -2.3421
   14SAPS  H14Y 1849   0.925   5.950   7.996 -0.8854 -0.5229  0.9149
   14SAPS  C315 1850   0.839   5.794   8.116 -0.2287 -0.1874  0.6779
   14SAPS  H15X 1851   0.932   5.785   8.176  0.6057  0.5067 -0.4959
   14SAPS  H15Y 1852   0.808   5.690   8.090  0.9177  0.0734 -1.9837
   14SAPS  C316 1853   0.731   5.862   8.189  0.1635 -0.1989 -0.1168
   14SAPS  H16X 1854   0.630   5.863   8.141  0.6343 -0.4810 -1.1406
   14SAPS  H16Y 1855   0.758   5.965   8.220 -1.1224 -0.7524  3.3081
   14SAPS  C317 1856   0.700   5.798   8.323 -0.1248 -0.8178  0.5825
   14SAPS  H17X 1857   0.686   5.689   8.302  0.0634 -0.6545 -0.4799
   14SAPS  H17Y 1858   0.606   5.848   8.354  0.2400 -0.0343  0.4471
   14SAPS  C318 1859   0.808   5.815   8.428 -0.3554  0.0573  0.3935
   14SAPS  H18X 1860   0.910   5.792   8.392 -0.1538  2.6840 -0.9299
   14SAPS  H18Y 1861   0.779   5.762   8.521 -0.8739  1.5954  1.1358
   14SAPS  H18Z 1862   0.820   5.919   8.463 -1.0449  0.0156  0.7692
   15SAPS     N 1863   5.870   1.573   5.936  0.1055 -0.0239  0.0653
   15SAPS   HN1 1864   5.964   1.576   5.890  1.5006  0.1732  2.7477
   15SAPS   HN2 1865   5.873   1.506   6.015  2.7371 -0.9208 -0.6792
   15SAPS   HN3 1866   5.791   1.549   5.872 -1.6464  1.9111  1.3837
   15SAPS   C12 1867   5.835   1.714   5.972  0.1490  0.6542 -0.5464
   15SAPS  H12A 1868   5.929   1.752   6.007  1.0270 -2.0920  0.2983
   15SAPS   C13 1869   5.791   1.794   5.855  0.5530 -0.0526  0.0237
   15SAPS  O13A 1870   5.753   1.750   5.743  0.6037  0.0259 -0.0429
   15SAPS  O13B 1871   5.773   1.922   5.873 -0.1503 -0.3219 -0.2448
   15SAPS   C11 1872   5.727   1.702   6.078  0.7037  0.0744 -0.1275
   15SAPS  H11A 1873   5.641   1.651   6.030  1.5472 -1.7768  0.2126
   15SAPS  H11B 1874   5.692   1.798   6.121  1.4029  0.8683 -1.3012
   15SAPS     P 1875   5.848   1.638   6.314  0.2559  0.1280 -0.2544
   15SAPS   O13 1876   5.920   1.512   6.340 -0.1607 -0.7038  0.1039
   15SAPS   O14 1877   5.928   1.757   6.295  0.1207 -0.1234  0.0529
   15SAPS   O12 1878   5.767   1.610   6.184  0.2443 -0.0566 -0.1353
   15SAPS   O11 1879   5.747   1.664   6.430  0.3220  0.5001  0.1008
   15SAPS    C1 1880   5.643   1.578   6.471  0.2653 -0.6127 -0.4477
   15SAPS    HA 1881   5.547   1.629   6.446  0.9243  1.2149  0.5395
   15SAPS    HB 1882   5.657   1.480   6.420 -0.5479 -0.6676 -0.5738
   15SAPS    C2 1883   5.644   1.551   6.632 -0.4050 -0.7695 -0.9703
   15SAPS    HS 1884   5.542   1.514   6.657 -0.6747 -0.4854 -1.6088
   15SAPS   O21 1885   5.673   1.664   6.709 -0.5396 -0.8728  0.4905
   15SAPS   C21 1886   5.598   1.773   6.699 -1.1005  0.2629 -0.6592
   15SAPS   O22 1887   5.503   1.788   6.623  0.0046 -0.2571  0.0753
   15SAPS   C22 1888   5.642   1.875   6.807  0.3801  0.0162  0.3225
   15SAPS   H2R 1889   5.750   1.865   6.832  0.9827  1.1158 -1.6725
   15SAPS   H2S 1890   5.628   1.973   6.758 -1.8917 -0.9862 -1.1868
   15SAPS    C3 1891   5.750   1.442   6.664 -0.0533  0.3635 -0.7083
   15SAPS    HX 1892   5.847   1.451   6.610 -0.9507 -0.6987 -2.6226
   15SAPS    HY 1893   5.713   1.348   6.618 -0.3225  0.9436 -1.7155
   15SAPS   O31 1894   5.765   1.418   6.806  0.4567 -0.0965 -0.2782
   15SAPS   C31 1895   5.854   1.490   6.871 -0.8869 -0.6466 -0.6120
   15SAPS   O32 1896   5.935   1.567   6.824 -0.3784 -0.0424 -0.4072
   15SAPS   C32 1897   5.857   1.449   7.017  0.6651 -0.6757  0.2568
   15SAPS   H2X 1898   5.862   1.338   7.011  0.8198 -0.6031 -1.7310
   15SAPS   H2Y 1899   5.758   1.480   7.057 -0.1762  2.6807 -3.7039
   15SAPS   C23 1900   5.563   1.873   6.936  0.2180  0.2328  1.0288
   15SAPS   H3R 1901   5.459   1.912   6.925  0.4809  0.9576  1.0582
   15SAPS   H3S 1902   5.620   1.949   6.993  0.5206  1.3306 -0.6355
   15SAPS   C24 1903   5.566   1.734   6.997  0.3273 -0.4310 -0.7370
   15SAPS   H4R 1904   5.674   1.716   7.017 -0.0334 -0.7884  1.0565
   15SAPS   H4S 1905   5.514   1.668   6.924 -1.2868 -2.5715  2.1585
   15SAPS   C25 1906   5.498   1.720   7.123 -0.0073 -0.2976 -0.2663
   15SAPS   H5R 1907   5.399   1.673   7.124 -0.9402  1.5605  0.8388
   15SAPS   C26 1908   5.541   1.763   7.240 -0.1186 -1.3683 -0.1477
   15SAPS   H6R 1909   5.473   1.759   7.327  0.1220  0.0397  0.1313
   15SAPS   C27 1910   5.664   1.838   7.275 -0.1797  0.4488 -0.3486
   15SAPS   H7R 1911   5.707   1.897   7.191 -1.9643  2.4337  0.0464
   15SAPS   H7S 1912   5.744   1.770   7.312  0.0493  1.7977  1.8295
   15SAPS   C28 1913   5.646   1.951   7.371 -0.3778  0.0317 -0.5578
   15SAPS   H8R 1914   5.615   2.050   7.335 -0.7760  0.2722  0.4148
   15SAPS   C29 1915   5.662   1.939   7.504  0.3584 -0.6542  0.0316
   15SAPS   H9R 1916   5.648   2.026   7.569 -1.5436  0.2921 -1.5391
   15SAPS  C210 1917   5.710   1.819   7.581  0.8260  0.4679  0.2710
   15SAPS  H10R 1918   5.810   1.792   7.542  0.3651 -0.0351 -0.5875
   15SAPS  H10S 1919   5.646   1.732   7.554 -0.1364  1.6993 -1.6659
   15SAPS  C211 1920   5.695   1.830   7.731 -0.7292 -0.2276 -0.5951
   15SAPS  H11R 1921   5.771   1.898   7.772  1.5737 -1.1237 -3.0302
   15SAPS  C212 1922   5.629   1.762   7.823  0.6087 -0.1036  0.2268
   15SAPS  H12R 1923   5.636   1.804   7.924  1.7679 -3.1530  1.5474
   15SAPS  C213 1924   5.538   1.643   7.808  0.2474  1.1492 -0.4442
   15SAPS  H13R 1925   5.582   1.593   7.719 -1.4739 -1.1288 -0.1073
   15SAPS  H13S 1926   5.435   1.677   7.783  0.0392  0.5686 -0.3905
   15SAPS  C214 1927   5.532   1.552   7.931 -0.0446  0.3436  0.3805
   15SAPS  H14R 1928   5.481   1.588   8.022 -0.2123  2.2487 -0.4366
   15SAPS  C215 1929   5.584   1.430   7.943  0.0175  0.6066  0.3261
   15SAPS  H15R 1930   5.583   1.375   8.039  1.3418  1.9913  1.1753
   15SAPS  C216 1931   5.647   1.342   7.836 -0.6619  0.0927 -0.0717
   15SAPS  H16R 1932   5.730   1.283   7.881 -0.5402  1.8229  2.1231
   15SAPS  H16S 1933   5.705   1.419   7.781 -0.9957  1.8153  1.9042
   15SAPS  C217 1934   5.542   1.268   7.752  0.7105  0.0742 -1.3721
   15SAPS  H17R 1935   5.456   1.335   7.729  0.6574 -0.4171 -2.6692
   15SAPS  H17S 1936   5.499   1.179   7.802  1.1873  1.0131  0.8565
   15SAPS  C218 1937   5.589   1.237   7.612  0.5582 -0.1725  0.0536
   15SAPS  H18R 1938   5.554   1.136   7.582 -0.5010 -0.1530  1.1419
   15SAPS  H18S 1939   5.699   1.224   7.615  0.6049  0.2620  0.4029
   15SAPS  C219 1940   5.552   1.342   7.495  0.0674  0.3594 -0.6032
   15SAPS  H19R 1941   5.596   1.441   7.520 -0.2690 -0.0456  1.8931
   15SAPS  H19S 1942   5.443   1.359   7.481  0.0494 -0.3978 -1.5044
   15SAPS  C220 1943   5.595   1.281   7.365  0.1372  1.5304  0.4167
   15SAPS  H20R 1944   5.599   1.358   7.285 -0.9017  1.0896 -0.0917
   15SAPS  H20S 1945   5.519   1.212   7.321  0.8421  0.0110  1.5055
   15SAPS  H20T 1946   5.697   1.238   7.368 -0.0566  0.4564 -3.1914
   15SAPS   C33 1947   5.970   1.509   7.106 -0.6675 -0.8248 -0.8694
   15SAPS   H3X 1948   5.958   1.617   7.130 -1.0200 -1.1996  0.7579
   15SAPS   H3Y 1949   6.073   1.488   7.070  1.3179  0.9231  3.0350
   15SAPS   C34 1950   5.967   1.445   7.244 -0.2006 -0.0888 -0.6840
   15SAPS   H4X 1951   5.862   1.424   7.272  0.2481 -0.9615  0.4651
   15SAPS   H4Y 1952   6.014   1.517   7.315  0.6343  0.8786 -2.1570
   15SAPS   C35 1953   6.037   1.312   7.254  0.2469 -0.4031  0.8279
   15SAPS   H5X 1954   6.138   1.313   7.206 -0.6664  1.7847 -1.2549
   15SAPS   H5Y 1955   5.979   1.232   7.202 -1.4234  0.9066  0.5850
   15SAPS   C36 1956   6.045   1.260   7.400 -0.1182  0.4076 -0.3002
   15SAPS   H6X 1957   6.096   1.162   7.400 -0.0067  0.4551 -1.4131
   15SAPS   H6Y 1958   5.941   1.246   7.437 -1.4663  2.0417 -3.1577
   15SAPS   C37 1959   6.117   1.349   7.495 -0.0938 -0.1767  0.0762
   15SAPS   H7X 1960   6.139   1.453   7.461  1.7932 -0.0896  1.4520
   15SAPS   H7Y 1961   6.219   1.306   7.495  0.5217  1.1756 -1.1241
   15SAPS   C38 1962   6.061   1.333   7.637 -0.5825  0.2456  0.3686
   15SAPS   H8X 1963   6.052   1.225   7.657  2.6515 -1.1088 -3.8127
   15SAPS   H8Y 1964   5.963   1.385   7.642 -1.7015 -1.4043 -2.1718
   15SAPS   C39 1965   6.164   1.391   7.725  0.4813 -0.2134 -0.4023
   15SAPS   H9X 1966   6.187   1.493   7.687  0.1658 -0.9614 -2.7784
   15SAPS   H9Y 1967   6.254   1.326   7.725  0.1100 -0.9528  3.5440
   15SAPS  C310 1968   6.105   1.416   7.866 -0.3916 -0.4972 -0.4501
   15SAPS  H10X 1969   6.022   1.484   7.841  0.1036 -0.7258 -2.9886
   15SAPS  H10Y 1970   6.177   1.471   7.930 -1.2428 -0.5281  0.5523
   15SAPS  C311 1971   6.057   1.284   7.937  1.0143  0.4812  0.6841
   15SAPS  H11X 1972   6.143   1.215   7.952 -1.2321 -2.8132 -0.5164
   15SAPS  H11Y 1973   6.004   1.227   7.858  3.5436 -0.1520 -0.6558
   15SAPS  C312 1974   5.976   1.305   8.067  0.5107  0.0356  0.2201
   15SAPS  H12X 1975   5.943   1.205   8.104 -0.0065  1.0477  2.7266
   15SAPS  H12Y 1976   5.880   1.360   8.052  0.7885  0.7998  1.1792
   15SAPS  C313 1977   6.054   1.374   8.179 -0.8428  0.0315  0.2307
   15SAPS  H13X 1978   5.982   1.378   8.264 -0.2885 -0.0662  0.7129
   15SAPS  H13Y 1979   6.101   1.474   8.165 -1.0095  0.5222  2.6685
   15SAPS  C314 1980   6.173   1.290   8.225 -0.3723  0.2069 -0.3339
   15SAPS  H14X 1981   6.236   1.247   8.145 -0.6396 -0.9561  0.0521
   15SAPS  H14Y 1982   6.124   1.194   8.253 -0.1234  0.2173  0.1483
   15SAPS  C315 1983   6.252   1.350   8.335  0.7585  0.3885  0.0155
   15SAPS  H15X 1984   6.182   1.386   8.413  2.1772  1.7821  0.6959
   15SAPS  H15Y 1985   6.299   1.441   8.294  1.3717 -0.3766 -1.0334
   15SAPS  C316 1986   6.350   1.257   8.388  0.0631 -0.5251 -0.0678
   15SAPS  H16X 1987   6.432   1.257   8.314 -0.0975 -3.0852 -0.3405
   15SAPS  H16Y 1988   6.310   1.153   8.396  0.3622 -0.8006 -1.8882
   15SAPS  C317 1989   6.406   1.306   8.524  0.4293 -0.2114 -0.0636
   15SAPS  H17X 1990   6.321   1.308   8.596  0.1163 -0.0382 -0.4356
   15SAPS  H17Y 1991   6.439   1.410   8.505  0.6348 -0.2446  0.1068
   15SAPS  C318 1992   6.506   1.206   8.581  0.1564 -0.7212 -0.0071
   15SAPS  H18X 1993   6.599   1.204   8.520 -0.0760 -1.0729 -0.3549
   15SAPS  H18Y 1994   6.458   1.106   8.588 -1.1141 -0.3092 -1.8796
   15SAPS  H18Z 1995   6.541   1.247   8.678  0.8711  0.6564 -0.8065
   16SAPS     N 1996   3.467   5.308   6.405  0.0607  0.0641 -0.0824
   16SAPS   HN1 1997   3.558   5.357   6.392  0.9552 -0.8698  2.2205
   16SAPS   HN2 1998   3.414   5.373   6.467  1.6632  0.4090  0.9625
   16SAPS   HN3 1999   3.481   5.219   6.457 -0.3005  0.3105  0.4383
   16SAPS   C12 2000   3.384   5.301   6.279 -0.7403 -0.0061 -0.0975
   16SAPS  H12A 2001   3.361   5.400   6.244 -1.5548 -0.1971 -0.1464
   16SAPS   C13 2002   3.450   5.229   6.151  0.1090  0.1881  0.3355
   16SAPS  O13A 2003   3.567   5.179   6.158 -0.3755 -1.1244  0.1167
   16SAPS  O13B 2004   3.387   5.231   6.042  0.0666 -0.0095 -0.3749
   16SAPS   C11 2005   3.249   5.229   6.320  0.1340 -0.2937  0.0314
   16SAPS  H11A 2006   3.288   5.132   6.357  0.2170 -0.8233 -1.3869
   16SAPS  H11B 2007   3.186   5.224   6.228  0.9917 -0.3947 -0.5629
   16SAPS     P 2008   3.029   5.234   6.464  0.2633 -0.1696 -0.0802
   16SAPS   O13 2009   2.995   5.312   6.586 -0.2774  0.5895 -0.6060
   16SAPS   O14 2010   2.933   5.240   6.353 -0.3871  0.4771  0.3240
   16SAPS   O12 2011   3.173   5.296   6.425 -0.6014  0.1362  0.1222
   16SAPS   O11 2012   3.056   5.082   6.499 -0.1482 -0.0220  0.4245
   16SAPS    C1 2013   3.138   5.064   6.618  0.2917  0.4667 -0.7199
   16SAPS    HA 2014   3.232   5.123   6.614  1.4809 -0.7514  3.3401
   16SAPS    HB 2015   3.073   5.096   6.703  1.7219 -1.1312  1.0860
   16SAPS    C2 2016   3.173   4.911   6.637  0.5415  0.5689 -0.3438
   16SAPS    HS 2017   3.239   4.882   6.552  1.9907 -0.6036  1.1118
   16SAPS   O21 2018   3.047   4.831   6.660  0.8027 -0.6581 -0.6478
   16SAPS   C21 2019   3.043   4.724   6.598  0.2063  0.1834  0.8096
   16SAPS   O22 2020   3.122   4.693   6.513 -0.2433  0.0355  0.2312
   16SAPS   C22 2021   2.917   4.651   6.638  0.4105 -0.0420  0.0876
   16SAPS   H2R 2022   2.865   4.709   6.717  0.7047 -0.3849  0.5403
   16SAPS   H2S 2023   2.852   4.649   6.548 -0.7067 -0.1116  0.8702
   16SAPS    C3 2024   3.262   4.882   6.763  0.0625 -0.2760  0.0691
   16SAPS    HX 2025   3.209   4.923   6.852  0.4325 -1.5077  0.8815
   16SAPS    HY 2026   3.360   4.931   6.744 -0.3918  0.0207 -1.7068
   16SAPS   O31 2027   3.275   4.742   6.772 -0.3450  0.5608  0.1787
   16SAPS   C31 2028   3.330   4.699   6.884 -0.0570  0.4555  0.6967
   16SAPS   O32 2029   3.371   4.768   6.975 -0.2571 -0.1765  0.3137
   16SAPS   C32 2030   3.346   4.544   6.884  0.3168  0.0881 -0.3059
   16SAPS   H2X 2031   3.396   4.526   6.786  2.7569  1.6103  0.5665
   16SAPS   H2Y 2032   3.244   4.500   6.890  0.3383  0.0839  0.0452
   16SAPS   C23 2033   2.948   4.512   6.692 -0.6449  0.8709 -0.4457
   16SAPS   H3R 2034   3.018   4.524   6.778  0.5247  3.8282 -1.7116
   16SAPS   H3S 2035   2.987   4.431   6.626  0.7721 -0.1755  1.5632
   16SAPS   C24 2036   2.826   4.431   6.749  0.2566  0.5170 -0.3626
   16SAPS   H4R 2037   2.869   4.337   6.789  2.0139  1.8476  1.0418
   16SAPS   H4S 2038   2.761   4.407   6.663  1.4091  1.1496 -1.4370
   16SAPS   C25 2039   2.738   4.508   6.846 -0.2037  0.5313 -0.0354
   16SAPS   H5R 2040   2.656   4.567   6.803  0.1878  0.9209 -0.2608
   16SAPS   C26 2041   2.744   4.490   6.977  0.7056  0.4526  0.1407
   16SAPS   H6R 2042   2.678   4.552   7.040 -0.0794  0.2651 -0.4649
   16SAPS   C27 2043   2.821   4.400   7.061  0.2135  0.6728 -0.0389
   16SAPS   H7R 2044   2.854   4.466   7.144 -0.5535 -0.9488  1.6435
   16SAPS   H7S 2045   2.919   4.376   7.014 -0.0233 -0.4720  0.0195
   16SAPS   C28 2046   2.746   4.270   7.099 -0.1509  0.0041 -0.4935
   16SAPS   H8R 2047   2.687   4.232   7.014  0.5225 -1.5729 -0.2950
   16SAPS   C29 2048   2.740   4.206   7.222  0.3618 -0.5032  0.3582
   16SAPS   H9R 2049   2.677   4.118   7.236 -0.6080  0.4764  2.8052
   16SAPS  C210 2050   2.809   4.251   7.349 -0.2887 -0.5556  0.9193
   16SAPS  H10R 2051   2.772   4.355   7.361 -3.2094 -1.1928 -1.3412
   16SAPS  H10S 2052   2.919   4.256   7.337 -0.3726  1.8912  0.6809
   16SAPS  C211 2053   2.773   4.167   7.465  0.6427 -0.4089 -0.5781
   16SAPS  H11R 2054   2.684   4.103   7.458  0.1772 -0.3210  2.8388
   16SAPS  C212 2055   2.841   4.159   7.579  0.2912 -0.0113 -0.2437
   16SAPS  H12R 2056   2.816   4.086   7.658  2.6912 -0.5051  0.1514
   16SAPS  C213 2057   2.963   4.237   7.625 -0.3520 -0.4128  0.5585
   16SAPS  H13R 2058   3.005   4.317   7.560  3.6961 -0.9663  2.1439
   16SAPS  H13S 2059   3.054   4.172   7.625 -0.2382 -0.2646 -0.0707
   16SAPS  C214 2060   2.948   4.299   7.755  0.3709  0.0754 -0.7416
   16SAPS  H14R 2061   2.935   4.408   7.753  0.7271  0.2085  1.2422
   16SAPS  C215 2062   2.946   4.235   7.876 -0.6206 -0.4085  0.4148
   16SAPS  H15R 2063   2.935   4.299   7.965  0.9280  0.8763 -0.2470
   16SAPS  C216 2064   2.968   4.090   7.904  0.0997  0.1225 -0.5400
   16SAPS  H16R 2065   3.078   4.076   7.902  0.2001  0.8419 -2.4969
   16SAPS  H16S 2066   2.932   4.033   7.815 -3.2624 -0.0455  0.7890
   16SAPS  C217 2067   2.896   4.057   8.035  0.2911 -0.1689  0.0549
   16SAPS  H17R 2068   2.869   3.949   8.039 -1.2614  0.1163 -1.1876
   16SAPS  H17S 2069   2.798   4.109   8.039 -0.1759 -0.6980 -2.5683
   16SAPS  C218 2070   2.981   4.089   8.165  0.3571 -0.1716 -0.0956
   16SAPS  H18R 2071   3.051   4.172   8.143 -0.6373  1.0613  1.2447
   16SAPS  H18S 2072   3.038   3.994   8.179 -3.1286 -2.3857  0.4688
   16SAPS  C219 2073   2.900   4.110   8.298 -0.2137  0.3356 -0.3262
   16SAPS  H19R 2074   2.821   4.032   8.310 -0.6501  0.0640 -3.9280
   16SAPS  H19S 2075   2.857   4.212   8.284  0.6425  0.5329 -1.6695
   16SAPS  C220 2076   2.990   4.112   8.418  0.0013 -0.1508 -0.5219
   16SAPS  H20R 2077   3.053   4.201   8.434 -0.0026 -0.4780  1.6984
   16SAPS  H20S 2078   3.056   4.023   8.426  0.1219 -0.3394 -2.8825
   16SAPS  H20T 2079   2.926   4.106   8.509  0.2147 -0.6479 -0.4017
   16SAPS   C33 2080   3.415   4.485   7.011  0.1286 -0.5822  0.2881
   16SAPS   H3X 2081   3.516   4.526   7.032 -0.2232 -0.1118  1.1359
   16SAPS   H3Y 2082   3.437   4.377   6.996  2.5794  0.1199 -1.8803
   16SAPS   C34 2083   3.316   4.478   7.131  0.5905  0.7988 -0.0467
   16SAPS   H4X 2084   3.217   4.430   7.118  1.1706 -0.0682 -1.4301
   16SAPS   H4Y 2085   3.295   4.587   7.137  1.2624  1.0168 -1.3720
   16SAPS   C35 2086   3.382   4.415   7.255 -0.3793  0.1988  0.2680
   16SAPS   H5X 2087   3.483   4.461   7.263  0.1980 -0.2199 -3.0107
   16SAPS   H5Y 2088   3.399   4.307   7.236  1.1420  0.6270 -0.9965
   16SAPS   C36 2089   3.313   4.447   7.392 -0.1668  0.0510  0.7371
   16SAPS   H6X 2090   3.202   4.442   7.391 -0.1698 -0.0378 -0.7555
   16SAPS   H6Y 2091   3.341   4.547   7.433  0.9653  0.2793 -0.5201
   16SAPS   C37 2092   3.358   4.359   7.505 -0.1972  0.1432 -0.2330
   16SAPS   H7X 2093   3.468   4.370   7.502 -0.0657 -0.8554  0.4349
   16SAPS   H7Y 2094   3.340   4.250   7.491  1.4074 -0.2132  0.2558
   16SAPS   C38 2095   3.317   4.411   7.645  0.0768 -0.6156  0.0778
   16SAPS   H8X 2096   3.206   4.404   7.647  0.0630 -0.7105 -0.7597
   16SAPS   H8Y 2097   3.360   4.513   7.648  0.1481 -0.5586 -2.0038
   16SAPS   C39 2098   3.378   4.319   7.754 -0.2310 -0.2887  0.3577
   16SAPS   H9X 2099   3.488   4.318   7.741 -0.3571 -0.2096 -0.7660
   16SAPS   H9Y 2100   3.339   4.216   7.746  0.3749 -0.5359  0.5576
   16SAPS  C310 2101   3.346   4.351   7.893 -0.4401  0.1355 -0.3739
   16SAPS  H10X 2102   3.236   4.364   7.901 -0.6372 -0.8626 -1.2932
   16SAPS  H10Y 2103   3.396   4.448   7.917  1.2276 -0.9524  0.7418
   16SAPS  C311 2104   3.383   4.241   7.996  0.0353  0.2643  0.2118
   16SAPS  H11X 2105   3.493   4.232   7.995  0.3122  2.7650 -1.4576
   16SAPS  H11Y 2106   3.341   4.144   7.962 -1.1514  1.2061 -1.1476
   16SAPS  C312 2107   3.333   4.289   8.136  0.3117  1.0311  0.2208
   16SAPS  H12X 2108   3.222   4.282   8.136  0.3918 -0.4529  0.4867
   16SAPS  H12Y 2109   3.351   4.397   8.154  3.6823  0.7231 -0.6771
   16SAPS  C313 2110   3.394   4.214   8.253 -0.7960 -0.5615 -0.0293
   16SAPS  H13X 2111   3.349   4.265   8.341  0.2574 -3.9767  2.6777
   16SAPS  H13Y 2112   3.504   4.227   8.255 -0.8347 -0.2669  0.2246
   16SAPS  C314 2113   3.350   4.067   8.255  0.0734  0.7219 -0.3274
   16SAPS  H14X 2114   3.350   4.024   8.152 -1.7897  1.2223 -0.5689
   16SAPS  H14Y 2115   3.244   4.055   8.285  0.6381 -0.7157  1.3001
   16SAPS  C315 2116   3.444   3.977   8.337 -0.8095  0.2378  0.0664
   16SAPS  H15X 2117   3.456   4.004   8.445 -0.7570  0.1410  0.0848
   16SAPS  H15Y 2118   3.549   3.991   8.304 -0.4539  0.0162  1.0715
   16SAPS  C316 2119   3.408   3.832   8.322 -0.4015 -0.2425 -0.4599
   16SAPS  H16X 2120   3.454   3.800   8.226  0.2199  1.5094 -0.7702
   16SAPS  H16Y 2121   3.298   3.817   8.322 -0.5064  0.4953  0.2402
   16SAPS  C317 2122   3.487   3.740   8.423 -0.0332 -0.3247  0.6329
   16SAPS  H17X 2123   3.597   3.751   8.409 -0.2665  1.2386 -0.1642
   16SAPS  H17Y 2124   3.470   3.635   8.392  0.6500 -0.1601 -0.3494
   16SAPS  C318 2125   3.467   3.769   8.576  0.4927  0.3319  0.2489
   16SAPS  H18X 2126   3.534   3.853   8.604 -0.7340  2.0595 -1.7123
   16SAPS  H18Y 2127   3.493   3.681   8.639 -0.9663  0.4841  1.1038
   16SAPS  H18Z 2128   3.365   3.809   8.593  0.7664  1.2921 -0.2985
   17SAPC     N 2129   0.192   4.661  10.560 -0.0441  0.5132  0.3913
   17SAPC   C12 2130   0.136   4.708  10.424  0.4958 -0.0230  0.7204
   17SAPC  H12A 2131   0.028   4.703  10.429  0.4387  1.2459  1.1894
   17SAPC  H12B 2132   0.159   4.643  10.341  1.0602  2.7224 -1.4290
   17SAPC   C13 2133   0.134   4.528  10.601 -0.0989 -0.6266  0.5223
   17SAPC  H13A 2134   0.027   4.541  10.616 -0.5855 -0.6993 -2.3932
   17SAPC  H13B 2135   0.158   4.457  10.524 -0.6721  0.9323 -1.1560
   17SAPC  H13C 2136   0.173   4.500  10.698 -1.2228 -0.0581  1.1722
   17SAPC   C14 2137   0.338   4.650  10.560 -0.3272  0.0592 -0.0220
   17SAPC  H14A 2138   0.380   4.570  10.500  0.4199 -1.3426  2.2116
   17SAPC  H14B 2139   0.365   4.748  10.525 -1.1335  0.9637  1.7456
   17SAPC  H14C 2140   0.375   4.642  10.661 -0.7005  1.4641  0.2500
   17SAPC   C15 2141   0.146   4.767  10.665 -0.4498  0.8398  0.7229
   17SAPC  H15A 2142   0.039   4.778  10.652 -0.9221 -3.0858  0.1573
   17SAPC  H15B 2143   0.170   4.734  10.765  1.0704  0.2910  0.2019
   17SAPC  H15C 2144   0.192   4.861  10.637  0.8581 -0.3580 -1.3679
   17SAPC   C11 2145   0.166   4.853  10.376 -0.1730 -0.7399 -0.3487
   17SAPC  H11A 2146   0.124   4.855  10.273 -0.9669 -0.4030 -0.0266
   17SAPC  H11B 2147   0.274   4.850  10.354  0.2103 -0.7367  1.4295
   17SAPC     P 2148  -0.018   5.029  10.406 -0.1752 -0.0491  0.1137
   17SAPC   O13 2149  -0.130   4.933  10.416 -0.3874 -0.1032 -0.1194
   17SAPC   O14 2150  -0.034   5.153  10.485  0.6359  0.0257  0.0380
   17SAPC   O12 2151   0.114   4.964  10.456 -0.3752 -0.0397  0.3686
   17SAPC   O11 2152   0.016   5.067  10.258  0.0382 -0.4802  0.0574
   17SAPC    C1 2153   0.042   5.195  10.203 -0.3552  0.1563 -0.8170
   17SAPC    HA 2154   0.126   5.240  10.261 -0.3171 -1.3651  0.3593
   17SAPC    HB 2155   0.087   5.179  10.103  0.4384 -2.4004 -0.1370
   17SAPC    C2 2156  -0.092   5.275  10.197 -0.9187  0.2477 -0.3383
   17SAPC    HS 2157  -0.132   5.272  10.301  1.3979  1.7107  0.6711
   17SAPC   O21 2158  -0.189   5.213  10.105 -0.3566 -0.7356  0.3180
   17SAPC   C21 2159  -0.311   5.249  10.128  0.1493 -0.2442 -0.0865
   17SAPC   O22 2160  -0.350   5.309  10.227  0.5461 -0.2592 -0.0704
   17SAPC   C22 2161  -0.395   5.196  10.013  0.2806  0.1566 -0.6514
   17SAPC   H2R 2162  -0.360   5.260   9.930  1.1258  3.5272  2.0574
   17SAPC   H2S 2163  -0.382   5.087   9.994 -1.6697 -0.0130 -1.1986
   17SAPC    C3 2164  -0.067   5.427  10.150  0.5590  0.0652 -0.8523
   17SAPC    HX 2165   0.012   5.470  10.215  4.0368 -2.5179 -3.0116
   17SAPC    HY 2166  -0.162   5.474  10.183  1.0017  0.2636  0.1610
   17SAPC   O31 2167  -0.029   5.447  10.012 -0.2620 -0.7002  0.2582
   17SAPC   C31 2168  -0.131   5.474   9.924  0.5657 -0.3122 -0.2267
   17SAPC   O32 2169  -0.252   5.467   9.946 -0.3517  0.3884 -0.2913
   17SAPC   C32 2170  -0.069   5.500   9.795 -0.4456 -0.5238 -0.2175
   17SAPC   H2X 2171  -0.022   5.403   9.768 -0.1172 -0.6771  0.8405
   17SAPC   H2Y 2172   0.009   5.579   9.799 -1.0067  0.0770 -1.0429
   17SAPC   C23 2173  -0.555   5.223  10.031 -1.0541  0.0354  0.2363
   17SAPC   H3R 2174  -0.568   5.318  10.086 -0.0552  0.6349 -0.5415
   17SAPC   H3S 2175  -0.600   5.142  10.093  1.5259 -2.1700 -0.5527
   17SAPC   C24 2176  -0.618   5.232   9.898  0.0696 -0.7742  0.0204
   17SAPC   H4R 2177  -0.570   5.319   9.846  0.2295 -0.4039  0.7713
   17SAPC   H4S 2178  -0.722   5.270   9.895  1.4498  3.9919  1.8676
   17SAPC   C25 2179  -0.606   5.105   9.816  1.0237 -0.2485 -0.1738
   17SAPC   H5R 2180  -0.583   5.012   9.871 -0.4422 -1.1225 -0.9485
   17SAPC   C26 2181  -0.625   5.090   9.685  0.6451 -0.6680  0.0065
   17SAPC   H6R 2182  -0.626   4.991   9.636 -1.6009 -0.6362 -0.1136
   17SAPC   C27 2183  -0.662   5.208   9.596 -0.5387  0.0295 -0.3508
   17SAPC   H7R 2184  -0.679   5.299   9.656  0.5917 -0.2378  0.4112
   17SAPC   H7S 2185  -0.762   5.177   9.558 -0.8473 -2.1383  1.9641
   17SAPC   C28 2186  -0.562   5.238   9.489 -0.1272  1.1104  0.6918
   17SAPC   H8R 2187  -0.465   5.277   9.524 -0.1344  0.9844  0.8479
   17SAPC   C29 2188  -0.573   5.223   9.355 -0.5044  0.4174 -0.1025
   17SAPC   H9R 2189  -0.490   5.265   9.296 -0.0160 -0.2138  0.1299
   17SAPC  C210 2190  -0.690   5.180   9.278 -0.0492 -0.2583 -0.3951
   17SAPC  H10R 2191  -0.725   5.278   9.240 -1.0349  0.8026  2.9523
   17SAPC  H10S 2192  -0.775   5.149   9.343  0.3593 -2.4582 -0.8167
   17SAPC  C211 2193  -0.645   5.076   9.169  0.2184 -0.3824  0.1046
   17SAPC  H11R 2194  -0.663   4.976   9.210 -2.4176 -1.0087 -2.2388
   17SAPC  C212 2195  -0.606   5.090   9.042  0.2223 -0.0641 -0.2519
   17SAPC  H12R 2196  -0.591   4.998   8.982  1.2133  0.0987 -0.2723
   17SAPC  C213 2197  -0.588   5.224   8.966 -0.2710  0.0684  0.3635
   17SAPC  H13R 2198  -0.573   5.305   9.040  0.3830  0.5056 -0.2317
   17SAPC  H13S 2199  -0.675   5.249   8.902  0.8121 -0.1903 -1.2756
   17SAPC  C214 2200  -0.469   5.198   8.880 -0.3121  0.0712  1.1584
   17SAPC  H14R 2201  -0.374   5.240   8.915 -0.3039 -0.5395  1.8967
   17SAPC  C215 2202  -0.471   5.124   8.770 -0.9342  0.6811 -0.0269
   17SAPC  H15R 2203  -0.381   5.096   8.713 -1.8371 -0.5476 -0.9072
   17SAPC  C216 2204  -0.585   5.050   8.709 -1.0617  0.0406  0.3047
   17SAPC  H16R 2205  -0.583   5.067   8.600 -0.3470 -0.2587  0.2694
   17SAPC  H16S 2206  -0.683   5.079   8.753 -1.0468  0.0082  0.3600
   17SAPC  C217 2207  -0.565   4.896   8.710 -0.4658 -0.2672 -0.0345
   17SAPC  H17R 2208  -0.589   4.871   8.816 -3.1213 -2.3132 -1.0272
   17SAPC  H17S 2209  -0.462   4.862   8.683  0.4991  2.0723  0.4993
   17SAPC  C218 2210  -0.670   4.842   8.609  0.8039  0.6430 -0.6560
   17SAPC  H18R 2211  -0.645   4.879   8.507 -1.6155  1.4222 -1.0283
   17SAPC  H18S 2212  -0.771   4.881   8.632 -0.2279 -1.9284 -0.5258
   17SAPC  C219 2213  -0.684   4.690   8.589 -0.3114 -0.4877 -0.8722
   17SAPC  H19R 2214  -0.723   4.650   8.685 -1.0916  1.4371 -0.3537
   17SAPC  H19S 2215  -0.582   4.651   8.568  0.3559  0.3785  0.6596
   17SAPC  C220 2216  -0.775   4.657   8.470  0.4467  0.7657  1.0369
   17SAPC  H20R 2217  -0.797   4.548   8.457 -1.0814  1.2777 -1.5326
   17SAPC  H20S 2218  -0.727   4.680   8.372 -0.0492  2.1870  1.1004
   17SAPC  H20T 2219  -0.873   4.709   8.476 -0.5658 -0.5078 -2.3216
   17SAPC   C33 2220  -0.163   5.536   9.684 -0.1246  0.1311  0.6317
   17SAPC   H3X 2221  -0.211   5.634   9.700 -0.2861 -0.1401  1.9196
   17SAPC   H3Y 2222  -0.252   5.468   9.687  0.4532 -0.7259 -0.5787
   17SAPC   C34 2223  -0.110   5.516   9.541  0.0252 -0.8273 -0.7927
   17SAPC   H4X 2224  -0.052   5.422   9.531 -0.7406 -1.2451 -1.3639
   17SAPC   H4Y 2225  -0.046   5.606   9.527 -1.3467  0.4441  0.6684
   17SAPC   C35 2226  -0.213   5.531   9.427  0.5268  0.4822 -0.4797
   17SAPC   H5X 2227  -0.182   5.623   9.372  3.4165  0.8711  1.5775
   17SAPC   H5Y 2228  -0.315   5.535   9.470  0.7116 -1.8486  0.3086
   17SAPC   C36 2229  -0.206   5.407   9.337  0.7119  0.1548  0.7087
   17SAPC   H6X 2230  -0.290   5.403   9.265  0.9147 -0.7022  0.5093
   17SAPC   H6Y 2231  -0.212   5.313   9.396  0.4067  0.9215  1.9195
   17SAPC   C37 2232  -0.077   5.406   9.251  0.2361  0.5943 -0.9595
   17SAPC   H7X 2233  -0.073   5.310   9.194 -0.9687 -0.6138  0.8887
   17SAPC   H7Y 2234   0.019   5.398   9.307  0.8442 -1.7682 -2.1851
   17SAPC   C38 2235  -0.072   5.512   9.152 -0.3791  0.0333 -0.3896
   17SAPC   H8X 2236   0.029   5.503   9.107 -0.5291  1.5611 -1.0880
   17SAPC   H8Y 2237  -0.076   5.611   9.202  0.1907 -0.6297  1.0219
   17SAPC   C39 2238  -0.160   5.497   9.027  0.4036 -0.5952 -0.1471
   17SAPC   H9X 2239  -0.165   5.391   8.995  2.0154 -0.4075 -1.0952
   17SAPC   H9Y 2240  -0.095   5.548   8.954  0.5471 -1.8945 -0.9465
   17SAPC  C310 2241  -0.301   5.561   9.026 -0.1270 -0.0346  0.4279
   17SAPC  H10X 2242  -0.284   5.670   9.042 -0.3973  0.8267 -3.8231
   17SAPC  H10Y 2243  -0.359   5.530   9.116 -2.5888  0.1865 -0.9796
   17SAPC  C311 2244  -0.371   5.556   8.895 -0.4421 -0.1740 -0.1111
   17SAPC  H11X 2245  -0.471   5.584   8.933 -0.3832  1.6295 -1.1261
   17SAPC  H11Y 2246  -0.371   5.449   8.864 -0.3576 -0.1355 -0.2496
   17SAPC  C312 2247  -0.315   5.640   8.792 -0.0984  0.1938  0.4594
   17SAPC  H12X 2248  -0.261   5.730   8.830 -1.1612  1.1269 -0.1726
   17SAPC  H12Y 2249  -0.402   5.690   8.744  2.0332  4.2760  0.3806
   17SAPC  C313 2250  -0.237   5.571   8.683  0.2059  0.1063 -1.0421
   17SAPC  H13X 2251  -0.149   5.531   8.738 -1.2589  1.3099  2.4671
   17SAPC  H13Y 2252  -0.200   5.651   8.616  1.7908  1.3116  1.1555
   17SAPC  C314 2253  -0.313   5.468   8.602  0.1041  0.3744 -0.5299
   17SAPC  H14X 2254  -0.413   5.508   8.573  0.5703  0.8360 -1.5316
   17SAPC  H14Y 2255  -0.326   5.378   8.665 -0.6647  1.9793  1.7641
   17SAPC  C315 2256  -0.236   5.433   8.470  0.2192 -0.7913  0.0899
   17SAPC  H15X 2257  -0.150   5.366   8.494 -0.7111 -1.3193  2.2463
   17SAPC  H15Y 2258  -0.195   5.527   8.428 -0.9404  0.5108  1.7127
   17SAPC  C316 2259  -0.305   5.346   8.372  0.0503 -0.4026 -0.1323
   17SAPC  H16X 2260  -0.247   5.340   8.278 -0.3551  1.6539 -0.5575
   17SAPC  H16Y 2261  -0.396   5.396   8.333  0.3252 -0.3486 -0.7147
   17SAPC  C317 2262  -0.341   5.202   8.423  0.0799 -0.2048 -1.0180
   17SAPC  H17X 2263  -0.406   5.205   8.513  1.2153 -0.4931 -0.1766
   17SAPC  H17Y 2264  -0.248   5.154   8.459 -0.0707 -0.9219 -1.5577
   17SAPC  C318 2265  -0.415   5.112   8.326  0.0226  0.4848 -0.4017
   17SAPC  H18X 2266  -0.425   5.009   8.368 -0.3702  1.1464  1.1833
   17SAPC  H18Y 2267  -0.518   5.148   8.303 -0.7659 -1.9663 -1.0380
   17SAPC  H18Z 2268  -0.367   5.118   8.226  1.0685  1.6208  0.1453
   18SAPC     N 2269   6.358   3.744  10.860 -0.1574  0.0931 -0.2267
   18SAPC   C12 2270   6.426   3.735  10.727 -0.2010  0.2138  0.3391
   18SAPC  H12A 2271   6.407   3.637  10.687 -0.9553  0.1196  0.8999
   18SAPC  H12B 2272   6.532   3.744  10.746 -0.3013 -0.7086  1.4871
   18SAPC   C13 2273   6.394   3.871  10.919  0.3392  0.0664 -0.3152
   18SAPC  H13A 2274   6.332   3.950  10.880 -2.5219 -1.5393  0.6701
   18SAPC  H13B 2275   6.357   3.869  11.020  1.4906 -0.8042  0.1129
   18SAPC  H13C 2276   6.501   3.888  10.921  0.2474  0.6708 -0.5063
   18SAPC   C14 2277   6.202   3.724  10.855  0.3472 -0.7124  0.2650
   18SAPC  H14A 2278   6.165   3.695  10.952 -0.4965  0.3084  0.2634
   18SAPC  H14B 2279   6.154   3.815  10.821 -0.5348 -2.1346 -2.6665
   18SAPC  H14C 2280   6.160   3.655  10.783 -1.7100  1.3350 -0.6166
   18SAPC   C15 2281   6.414   3.632  10.940 -0.0827  0.2363  0.0937
   18SAPC  H15A 2282   6.362   3.609  11.032  0.5071  3.2491  1.2844
   18SAPC  H15B 2283   6.390   3.544  10.883 -0.2158  1.0999 -1.2125
   18SAPC  H15C 2284   6.516   3.653  10.969 -0.3068  1.2033  0.2001
   18SAPC   C11 2285   6.379   3.839  10.611  0.3693  1.0095  0.4815
   18SAPC  H11A 2286   6.269   3.834  10.606  0.4113 -1.0696  0.5110
   18SAPC  H11B 2287   6.414   3.806  10.511  2.5595  0.5397  1.3326
   18SAPC     P 2288   6.573   4.014  10.606 -0.2100 -0.0045 -0.1875
   18SAPC   O13 2289   6.561   4.158  10.624 -0.1706 -0.6869  0.0298
   18SAPC   O14 2290   6.672   3.946  10.692 -0.2367  0.8458  0.1787
   18SAPC   O12 2291   6.426   3.968  10.630  0.4841  0.6773  0.1576
   18SAPC   O11 2292   6.612   3.974  10.456  0.1315 -0.6801 -0.5421
   18SAPC    C1 2293   6.624   4.079  10.357 -0.0868  0.1904 -0.4966
   18SAPC    HA 2294   6.561   4.170  10.367  1.8505  1.7360 -1.4287
   18SAPC    HB 2295   6.728   4.116  10.371  1.2414 -3.2726 -0.3753
   18SAPC    C2 2296   6.633   4.041  10.212 -0.3274  0.1624  0.7132
   18SAPC    HS 2297   6.533   4.019  10.168  0.7731 -1.4424 -1.1832
   18SAPC   O21 2298   6.720   3.924  10.203  0.3183 -0.1270 -0.6907
   18SAPC   C21 2299   6.692   3.859  10.091 -0.3475  0.4413 -0.6489
   18SAPC   O22 2300   6.597   3.876  10.020  0.1615  0.3129  0.0293
   18SAPC   C22 2301   6.790   3.738  10.080  0.2183 -0.3155  0.0393
   18SAPC   H2R 2302   6.884   3.774  10.127  0.0454 -0.4577  0.4928
   18SAPC   H2S 2303   6.753   3.654  10.142 -0.4752 -2.3320 -2.9168
   18SAPC    C3 2304   6.698   4.160  10.133  0.4313 -0.1862  0.8377
   18SAPC    HX 2305   6.804   4.174  10.163  1.2567  1.2112 -2.3304
   18SAPC    HY 2306   6.637   4.245  10.169 -0.8379 -1.6705  2.3862
   18SAPC   O31 2307   6.695   4.149   9.988 -0.3052 -0.0714 -0.5237
   18SAPC   C31 2308   6.575   4.180   9.930  0.1604 -0.2060  0.2532
   18SAPC   O32 2309   6.485   4.233   9.993 -0.2254 -0.0845 -0.1567
   18SAPC   C32 2310   6.548   4.127   9.784  0.5663  0.2026 -0.1476
   18SAPC   H2X 2311   6.517   4.020   9.784  3.1600 -0.6748  1.5066
   18SAPC   H2Y 2312   6.647   4.122   9.734  0.8960 -3.3922  0.5843
   18SAPC   C23 2313   6.814   3.698   9.929 -0.9061 -0.5903  0.3330
   18SAPC   H3R 2314   6.717   3.703   9.875 -1.2861 -0.1516  1.0261
   18SAPC   H3S 2315   6.853   3.595   9.920  0.9424 -0.1335  2.1076
   18SAPC   C24 2316   6.916   3.808   9.866 -0.0793 -0.1872  0.8803
   18SAPC   H4R 2317   7.010   3.833   9.920 -0.5384  2.1008  0.7093
   18SAPC   H4S 2318   6.859   3.903   9.875  0.0886 -0.1349  1.4477
   18SAPC   C25 2319   6.947   3.764   9.720 -0.1542 -0.1918 -0.0141
   18SAPC   H5R 2320   7.040   3.706   9.707  0.2342  0.1181  1.2271
   18SAPC   C26 2321   6.865   3.784   9.616  0.2550  0.2658 -0.7570
   18SAPC   H6R 2322   6.881   3.731   9.522 -1.1417 -0.0117 -0.8666
   18SAPC   C27 2323   6.724   3.843   9.623 -0.3112 -0.0867 -0.1236
   18SAPC   H7R 2324   6.722   3.943   9.575 -1.1008  0.1840  0.4551
   18SAPC   H7S 2325   6.686   3.866   9.724 -0.5482  1.7789 -0.6059
   18SAPC   C28 2326   6.615   3.755   9.571  0.4746 -0.0347  0.3435
   18SAPC   H8R 2327   6.600   3.654   9.612 -0.0125 -0.1065 -0.0044
   18SAPC   C29 2328   6.562   3.762   9.448  0.1793 -0.1514  0.3701
   18SAPC   H9R 2329   6.484   3.690   9.420 -0.4315  0.3588  0.7215
   18SAPC  C210 2330   6.601   3.861   9.343  0.5130  0.4298 -0.1371
   18SAPC  H10R 2331   6.706   3.894   9.357  0.4926  0.6431 -0.4661
   18SAPC  H10S 2332   6.539   3.953   9.349 -0.3576 -0.2229  1.2003
   18SAPC  C211 2333   6.589   3.795   9.208  0.5785  0.4471 -0.5479
   18SAPC  H11R 2334   6.501   3.824   9.149 -0.4508 -0.7147  0.3900
   18SAPC  C212 2335   6.681   3.725   9.157 -0.4703 -0.0459  0.7157
   18SAPC  H12R 2336   6.670   3.698   9.051 -0.9037 -0.6553  0.9139
   18SAPC  C213 2337   6.815   3.681   9.215 -0.1107 -0.4561  0.1962
   18SAPC  H13R 2338   6.820   3.700   9.324 -1.8656  0.8797  0.0813
   18SAPC  H13S 2339   6.900   3.738   9.171  0.0683 -1.1092 -0.3298
   18SAPC  C214 2340   6.853   3.538   9.170  0.7873  0.3697 -0.1110
   18SAPC  H14R 2341   6.866   3.532   9.061  0.7090  0.1484 -0.1074
   18SAPC  C215 2342   6.861   3.425   9.236  0.3050  0.0270  0.0523
   18SAPC  H15R 2343   6.887   3.327   9.194  0.5652  0.3362 -0.5343
   18SAPC  C216 2344   6.854   3.430   9.391  0.1329  0.0355  0.2828
   18SAPC  H16R 2345   6.759   3.376   9.413  0.2958 -0.4579 -0.2051
   18SAPC  H16S 2346   6.850   3.534   9.427 -0.3934  0.5158 -1.0808
   18SAPC  C217 2347   6.972   3.347   9.468  0.3540  0.0434  0.2329
   18SAPC  H17R 2348   7.070   3.387   9.436  0.0458  0.9990  0.4374
   18SAPC  H17S 2349   6.956   3.242   9.435 -0.2262  0.4901 -0.9890
   18SAPC  C218 2350   6.955   3.363   9.617  0.3933 -0.3865 -0.6078
   18SAPC  H18R 2351   6.905   3.277   9.665 -2.2036  2.0299  1.3235
   18SAPC  H18S 2352   6.910   3.459   9.651  1.1686 -0.4260  0.5837
   18SAPC  C219 2353   7.098   3.358   9.674 -0.5147 -0.1843  0.6194
   18SAPC  H19R 2354   7.152   3.440   9.622 -0.1547 -0.3617  0.7042
   18SAPC  H19S 2355   7.136   3.256   9.654  0.2736  0.4271 -1.1852
   18SAPC  C220 2356   7.111   3.377   9.824 -0.7988  0.1084  0.5764
   18SAPC  H20R 2357   7.070   3.475   9.858 -0.8065  0.7925 -1.2744
   18SAPC  H20S 2358   7.214   3.346   9.849 -0.3423  0.2062 -1.0243
   18SAPC  H20T 2359   7.048   3.302   9.876 -1.4313 -0.2276 -0.6319
   18SAPC   C33 2360   6.447   4.219   9.705 -0.3494 -0.5032  0.4128
   18SAPC   H3X 2361   6.476   4.324   9.727  0.8992  0.0330 -3.0919
   18SAPC   H3Y 2362   6.344   4.190   9.735 -1.1880  0.4317 -1.3941
   18SAPC   C34 2363   6.461   4.193   9.552 -0.6770  0.3131  0.5117
   18SAPC   H4X 2364   6.367   4.223   9.501 -0.7732  0.1502  0.5898
   18SAPC   H4Y 2365   6.464   4.083   9.533  2.6189  0.1489  1.4271
   18SAPC   C35 2366   6.581   4.266   9.496 -0.0372 -0.5921  0.6051
   18SAPC   H5X 2367   6.674   4.244   9.553  1.3132  2.6340 -0.1612
   18SAPC   H5Y 2368   6.570   4.375   9.510  1.5901 -0.3984  0.4863
   18SAPC   C36 2369   6.572   4.238   9.345 -0.6673  1.0338 -0.1289
   18SAPC   H6X 2370   6.470   4.264   9.312 -0.7086 -1.3374 -2.1309
   18SAPC   H6Y 2371   6.595   4.130   9.335 -1.0068  1.0048 -0.5921
   18SAPC   C37 2372   6.686   4.309   9.273 -0.5953  0.3355 -0.2390
   18SAPC   H7X 2373   6.788   4.271   9.297 -0.5137  1.7092  1.8747
   18SAPC   H7Y 2374   6.667   4.414   9.305  0.2450  0.0203  1.3906
   18SAPC   C38 2375   6.664   4.303   9.123 -0.0142 -0.2535 -0.8592
   18SAPC   H8X 2376   6.739   4.363   9.066  1.3525  0.4960  1.5778
   18SAPC   H8Y 2377   6.570   4.354   9.094  0.6458 -0.1983 -3.1297
   18SAPC   C39 2378   6.659   4.169   9.071 -0.1604  0.9271 -0.1651
   18SAPC   H9X 2379   6.585   4.103   9.120 -1.1321 -0.4541 -3.2298
   18SAPC   H9Y 2380   6.759   4.123   9.088 -0.6861 -0.6015 -1.0131
   18SAPC  C310 2381   6.628   4.151   8.917 -0.7328 -0.3110 -0.0393
   18SAPC  H10X 2382   6.528   4.194   8.897 -0.5169  0.6557  0.8501
   18SAPC  H10Y 2383   6.603   4.044   8.900 -2.5903  0.1649 -0.5013
   18SAPC  C311 2384   6.738   4.197   8.817  0.0493  0.2533 -0.8921
   18SAPC  H11X 2385   6.831   4.149   8.854 -1.7130 -1.0951  2.2363
   18SAPC  H11Y 2386   6.742   4.306   8.841  1.7302  0.0685 -0.1660
   18SAPC  C312 2387   6.687   4.175   8.672 -0.1144  0.5409 -0.0612
   18SAPC  H12X 2388   6.784   4.168   8.619  0.5354 -0.6806  1.2322
   18SAPC  H12Y 2389   6.613   4.255   8.651 -1.6148  0.0915  2.9570
   18SAPC  C313 2390   6.603   4.049   8.648  0.4322  0.1141  0.3958
   18SAPC  H13X 2391   6.512   4.046   8.711  1.0130  0.0841  1.2523
   18SAPC  H13Y 2392   6.666   3.964   8.683  1.1876  0.3904 -0.2671
   18SAPC  C314 2393   6.566   4.026   8.502 -0.4513  0.5189  0.7206
   18SAPC  H14X 2394   6.545   3.918   8.486 -2.7430  1.2330 -2.0158
   18SAPC  H14Y 2395   6.659   4.041   8.443 -1.1946  1.4809 -0.2352
   18SAPC  C315 2396   6.459   4.118   8.443 -0.3911 -0.3157 -0.4944
   18SAPC  H15X 2397   6.402   4.072   8.359  0.3992 -0.8330 -0.7563
   18SAPC  H15Y 2398   6.517   4.202   8.398  1.4057 -1.4400 -0.3678
   18SAPC  C316 2399   6.355   4.158   8.542  0.4520 -0.1172 -1.0557
   18SAPC  H16X 2400   6.387   4.198   8.641 -2.1882 -1.2578  0.3603
   18SAPC  H16Y 2401   6.311   4.062   8.577  2.1327 -0.7377 -0.5201
   18SAPC  C317 2402   6.246   4.253   8.484 -0.0019 -0.0935  0.6198
   18SAPC  H17X 2403   6.286   4.355   8.474  0.1276 -0.0814  1.2489
   18SAPC  H17Y 2404   6.162   4.250   8.556  1.0439  0.7353  1.9051
   18SAPC  C318 2405   6.183   4.216   8.348  0.8242 -0.0665  0.2146
   18SAPC  H18X 2406   6.255   4.240   8.266 -0.0536 -1.7926 -1.1326
   18SAPC  H18Y 2407   6.098   4.285   8.330  0.9521  0.0544  0.0639
   18SAPC  H18Z 2408   6.147   4.111   8.338  1.3867 -0.5011  2.2832
   19SAPC     N 2409   6.253   6.756  10.329 -0.2567  0.6132 -0.1420
   19SAPC   C12 2410   6.105   6.747  10.292 -0.3427 -0.2996  0.0959
   19SAPC  H12A 2411   6.052   6.719  10.382  1.4653  0.3184  1.4160
   19SAPC  H12B 2412   6.085   6.664  10.225 -0.8910 -0.1301  0.0471
   19SAPC   C13 2413   6.307   6.630  10.379 -0.1946 -0.0594 -0.0591
   19SAPC  H13A 2414   6.266   6.591  10.471  0.1046  0.5359  0.3323
   19SAPC  H13B 2415   6.310   6.559  10.297  0.9314  0.2536 -0.3109
   19SAPC  H13C 2416   6.411   6.652  10.398 -0.5570  0.8213  0.9554
   19SAPC   C14 2417   6.329   6.800  10.211  0.0609  0.6478 -0.5089
   19SAPC  H14A 2418   6.293   6.898  10.185 -0.7666  0.4317 -0.1926
   19SAPC  H14B 2419   6.436   6.793  10.228 -0.1363 -0.5673  0.4030
   19SAPC  H14C 2420   6.293   6.741  10.129 -0.2962 -1.0042  0.7733
   19SAPC   C15 2421   6.269   6.864  10.433  0.3950 -0.2084 -0.0093
   19SAPC  H15A 2422   6.213   6.849  10.524  2.1970  2.0238  1.5869
   19SAPC  H15B 2423   6.372   6.882  10.461  0.6878 -0.1760 -1.0451
   19SAPC  H15C 2424   6.225   6.955  10.396  3.2099  0.2833 -2.5447
   19SAPC   C11 2425   6.030   6.880  10.251 -0.0740  0.3346 -0.3405
   19SAPC  H11A 2426   5.930   6.841  10.222 -0.2842 -1.2698  2.1747
   19SAPC  H11B 2427   6.071   6.928  10.160  0.0868 -1.8219 -1.4613
   19SAPC     P 2428   5.916   6.976  10.471  0.2432  0.1182  0.4535
   19SAPC   O13 2429   5.923   6.849  10.550  0.1763  0.1016 -0.1998
   19SAPC   O14 2430   5.929   7.107  10.543 -0.3219  0.6717 -0.6790
   19SAPC   O12 2431   6.021   6.975  10.355 -0.4327  0.5282 -0.8795
   19SAPC   O11 2432   5.777   6.964  10.395 -0.2896 -0.0701 -0.8747
   19SAPC    C1 2433   5.716   7.085  10.355 -0.1519 -0.2675 -0.1384
   19SAPC    HA 2434   5.792   7.159  10.321 -0.2748  0.3424  0.8793
   19SAPC    HB 2435   5.671   7.060  10.256  0.7166 -0.9560 -0.3757
   19SAPC    C2 2436   5.606   7.138  10.450 -0.0150 -0.4252  0.7712
   19SAPC    HS 2437   5.630   7.103  10.552 -1.3192 -0.0369  1.2329
   19SAPC   O21 2438   5.473   7.094  10.407 -0.8480  0.1738 -0.6293
   19SAPC   C21 2439   5.384   7.082  10.506  0.0943 -0.1035  0.4606
   19SAPC   O22 2440   5.399   7.122  10.619  0.6486 -0.4765  0.5219
   19SAPC   C22 2441   5.254   7.030  10.445  0.5429 -0.0563  0.2852
   19SAPC   H2R 2442   5.277   7.004  10.340  0.4271 -0.4207  0.3498
   19SAPC   H2S 2443   5.223   6.939  10.500  0.0201 -0.3954 -0.5491
   19SAPC    C3 2444   5.626   7.298  10.467 -0.4830 -0.0145  0.3796
   19SAPC    HX 2445   5.730   7.299  10.506  0.9887 -0.4830 -3.1233
   19SAPC    HY 2446   5.565   7.331  10.554 -2.2969  0.5066 -1.0113
   19SAPC   O31 2447   5.623   7.384  10.357 -0.5268  0.2765 -0.1041
   19SAPC   C31 2448   5.502   7.405  10.311  0.2218  0.3996 -0.2570
   19SAPC   O32 2449   5.398   7.390  10.372  0.8477  0.2676  0.1779
   19SAPC   C32 2450   5.508   7.459  10.170  0.6193  0.1004  0.5030
   19SAPC   H2X 2451   5.566   7.391  10.104  0.6960  0.9010 -0.2900
   19SAPC   H2Y 2452   5.552   7.561  10.177 -3.5604  2.4637 -2.6874
   19SAPC   C23 2453   5.124   7.119  10.445  0.1460  0.5323  0.6285
   19SAPC   H3R 2454   5.141   7.215  10.393 -0.1088 -0.2535 -0.9673
   19SAPC   H3S 2455   5.090   7.142  10.549  2.0948 -0.3028  1.5013
   19SAPC   C24 2456   5.008   7.056  10.361  0.2646  0.2642  0.8551
   19SAPC   H4R 2457   4.957   6.967  10.405 -1.1668 -0.1239 -1.4384
   19SAPC   H4S 2458   5.050   7.022  10.264 -0.7010  0.0782  0.4887
   19SAPC   C25 2459   4.901   7.157  10.327  0.4547  0.0976  0.4592
   19SAPC   H5R 2460   4.842   7.204  10.406  0.8189  0.3809  0.5694
   19SAPC   C26 2461   4.864   7.186  10.203  0.1706 -0.0930 -0.3279
   19SAPC   H6R 2462   4.790   7.265  10.185 -0.0634 -0.6387 -2.0109
   19SAPC   C27 2463   4.928   7.127  10.076 -0.1233 -0.9516 -0.3639
   19SAPC   H7R 2464   4.896   7.022  10.065  1.5019 -1.7887  1.8994
   19SAPC   H7S 2465   5.038   7.114  10.091  0.0532 -0.7053 -1.3854
   19SAPC   C28 2466   4.903   7.213   9.959  0.4602 -0.3279  0.7600
   19SAPC   H8R 2467   4.845   7.305   9.974  1.9670  0.8942 -0.4971
   19SAPC   C29 2468   4.948   7.188   9.836 -0.4559  0.4089 -0.6526
   19SAPC   H9R 2469   4.930   7.267   9.762 -0.0361  0.0486 -1.1437
   19SAPC  C210 2470   5.032   7.068   9.797 -0.7817 -0.4834  0.6895
   19SAPC  H10R 2471   5.124   7.067   9.860  0.4885  3.0107 -0.8435
   19SAPC  H10S 2472   5.069   7.089   9.694  0.0090 -1.0246  0.8502
   19SAPC  C211 2473   4.971   6.938   9.797  0.0969 -0.3451  0.1737
   19SAPC  H11R 2474   4.872   6.926   9.844  0.2877 -0.7016  0.4961
   19SAPC  C212 2475   5.015   6.838   9.720  0.1194  0.9978 -0.4184
   19SAPC  H12R 2476   4.949   6.751   9.712  1.0876 -0.2064  3.0196
   19SAPC  C213 2477   5.136   6.834   9.628 -0.1150  0.3212 -0.4427
   19SAPC  H13R 2478   5.210   6.761   9.667  1.1312 -0.1540 -3.4596
   19SAPC  H13S 2479   5.193   6.929   9.618 -0.6233  0.5652 -1.1280
   19SAPC  C214 2480   5.124   6.776   9.487 -0.4016  0.0327 -0.4870
   19SAPC  H14R 2481   5.160   6.672   9.480 -0.0101  0.0780  0.6732
   19SAPC  C215 2482   5.093   6.844   9.377  0.1593  0.5619 -0.2393
   19SAPC  H15R 2483   5.082   6.788   9.283  0.2493  1.9453 -1.1046
   19SAPC  C216 2484   5.061   6.989   9.361  0.0126 -0.0028 -0.4002
   19SAPC  H16R 2485   5.146   7.036   9.308 -0.7737  1.4607 -0.3965
   19SAPC  H16S 2486   5.063   7.047   9.456  3.4017 -0.0819 -0.2979
   19SAPC  C217 2487   4.925   7.018   9.290 -0.2887 -0.5269 -0.5199
   19SAPC  H17R 2488   4.851   6.978   9.364 -0.4871  0.9656  0.1114
   19SAPC  H17S 2489   4.915   6.969   9.191  2.4297 -0.1097 -1.0934
   19SAPC  C218 2490   4.888   7.166   9.275  0.2159 -0.2477  0.3859
   19SAPC  H18R 2491   4.929   7.214   9.184 -1.7153  0.2067 -0.2726
   19SAPC  H18S 2492   4.905   7.237   9.359 -3.7600  0.3608  0.8815
   19SAPC  C219 2493   4.736   7.172   9.275  0.5166 -0.2759  0.3416
   19SAPC  H19R 2494   4.713   7.280   9.268  0.9288 -0.2895 -1.6762
   19SAPC  H19S 2495   4.687   7.120   9.360 -0.4341  0.2987  0.1508
   19SAPC  C220 2496   4.665   7.105   9.155 -0.2391  0.2926  0.4437
   19SAPC  H20R 2497   4.704   7.135   9.055 -1.1968  2.0926  0.5705
   19SAPC  H20S 2498   4.561   7.142   9.160 -0.1023  0.5207  2.1888
   19SAPC  H20T 2499   4.665   6.994   9.155  2.3162  0.2269 -0.1241
   19SAPC   C33 2500   5.372   7.483  10.100 -0.5045 -0.1881 -0.5801
   19SAPC   H3X 2501   5.394   7.533  10.004  0.6339  0.0205 -0.2261
   19SAPC   H3Y 2502   5.300   7.548  10.155  0.4752 -0.0661  0.6191
   19SAPC   C34 2503   5.301   7.348  10.082  0.2260  0.0456 -0.2233
   19SAPC   H4X 2504   5.207   7.371  10.027  0.4858  0.1481 -0.6266
   19SAPC   H4Y 2505   5.276   7.307  10.182  0.9276  1.0430  0.3744
   19SAPC   C35 2506   5.375   7.237  10.005  1.3876  0.7147 -0.7838
   19SAPC   H5X 2507   5.312   7.145   9.998  1.5762  0.5451 -0.2353
   19SAPC   H5Y 2508   5.466   7.203  10.059  2.4284  1.3636 -2.0532
   19SAPC   C36 2509   5.413   7.281   9.866  0.1213 -0.0840  0.1335
   19SAPC   H6X 2510   5.438   7.184   9.819  0.2863 -2.3293  4.3154
   19SAPC   H6Y 2511   5.507   7.338   9.883  0.3906 -0.7052  0.7917
   19SAPC   C37 2512   5.308   7.353   9.782 -0.2734 -0.0968  0.9077
   19SAPC   H7X 2513   5.270   7.445   9.833  1.3076  0.3313  1.3830
   19SAPC   H7Y 2514   5.231   7.276   9.761  0.8742 -1.3003  1.0206
   19SAPC   C38 2515   5.357   7.400   9.646  0.6083  0.2677  0.0874
   19SAPC   H8X 2516   5.381   7.314   9.580  0.0365  0.3812 -0.2749
   19SAPC   H8Y 2517   5.452   7.455   9.664  1.3438 -1.6539  2.8321
   19SAPC   C39 2518   5.247   7.481   9.570  0.0910  0.2960 -0.1775
   19SAPC   H9X 2519   5.267   7.591   9.570 -2.6293  0.8447 -0.3213
   19SAPC   H9Y 2520   5.149   7.458   9.617 -1.3793 -0.5104 -3.4031
   19SAPC  C310 2521   5.231   7.452   9.419 -0.0740 -0.0432 -0.6290
   19SAPC  H10X 2522   5.134   7.502   9.397 -0.1749 -0.6626 -1.6945
   19SAPC  H10Y 2523   5.219   7.346   9.386  0.9760 -0.4258  0.1666
   19SAPC  C311 2524   5.329   7.515   9.317  0.1202 -0.6282  0.1087
   19SAPC  H11X 2525   5.430   7.480   9.348  0.7969 -0.9475 -2.3031
   19SAPC  H11Y 2526   5.331   7.625   9.331  0.6854 -0.7665  1.2163
   19SAPC  C312 2527   5.288   7.484   9.173  0.2632  0.2839  0.9853
   19SAPC  H12X 2528   5.348   7.556   9.113 -1.9573  0.4983 -1.1001
   19SAPC  H12Y 2529   5.183   7.509   9.150 -0.5860 -2.5887  1.3688
   19SAPC  C313 2530   5.316   7.341   9.130 -0.5501  0.2620  0.0042
   19SAPC  H13X 2531   5.225   7.279   9.144  0.9301 -2.1155 -0.3125
   19SAPC  H13Y 2532   5.396   7.306   9.199 -0.5136  2.3750  1.1430
   19SAPC  C314 2533   5.335   7.321   8.984  0.2401 -0.2187  0.3401
   19SAPC  H14X 2534   5.423   7.383   8.958  0.5251 -1.3063 -1.5381
   19SAPC  H14Y 2535   5.249   7.362   8.927  1.9500  0.9205 -1.5702
   19SAPC  C315 2536   5.371   7.179   8.933  0.2429  0.2800 -0.1268
   19SAPC  H15X 2537   5.461   7.129   8.975  0.8527  0.0435 -1.6287
   19SAPC  H15Y 2538   5.402   7.205   8.830  0.9837  0.4160  0.1273
   19SAPC  C316 2539   5.249   7.085   8.927 -0.5029 -0.1604 -0.7218
   19SAPC  H16X 2540   5.162   7.138   8.884  0.6050  2.2859 -0.1457
   19SAPC  H16Y 2541   5.227   7.073   9.035 -1.3873  1.5636 -0.6737
   19SAPC  C317 2542   5.286   6.954   8.854 -0.2170  0.2418 -0.6200
   19SAPC  H17X 2543   5.217   6.869   8.870 -1.6060  1.1705 -1.4648
   19SAPC  H17Y 2544   5.384   6.915   8.888  0.1928 -0.3077 -2.3373
   19SAPC  C318 2545   5.295   6.970   8.702  0.6121  0.4121  0.7629
   19SAPC  H18X 2546   5.326   7.074   8.677 -1.9344  1.0380 -0.1735
   19SAPC  H18Y 2547   5.198   6.958   8.648  1.0225 -1.0471  0.3237
   19SAPC  H18Z 2548   5.377   6.908   8.660 -0.8435 -1.5337  0.6635
   20SAPC     N 2549   5.050   5.983  10.929  0.6488  0.1803  0.6430
   20SAPC   C12 2550   5.072   5.841  10.883  0.0904 -0.6050  0.5874
   20SAPC  H12A 2551   5.062   5.786  10.975 -0.7875  2.8094  2.7027
   20SAPC  H12B 2552   5.176   5.830  10.855 -0.1586  0.4331 -0.8436
   20SAPC   C13 2553   5.098   6.077  10.812 -0.2201 -0.2772  0.0203
   20SAPC  H13A 2554   5.053   6.044  10.719  1.5649 -2.2631 -0.2124
   20SAPC  H13B 2555   5.073   6.180  10.834  0.5639  0.7564 -3.3811
   20SAPC  H13C 2556   5.206   6.070  10.815 -0.1913  0.3167  1.3122
   20SAPC   C14 2557   4.906   6.020  10.951  0.5248  0.0454  0.1576
   20SAPC  H14A 2558   4.872   5.983  11.046 -1.6882  0.3085 -0.4822
   20SAPC  H14B 2559   4.889   6.126  10.939 -3.7963 -0.3306  1.4526
   20SAPC  H14C 2560   4.843   5.970  10.879  1.7118 -1.1577 -0.0936
   20SAPC   C15 2561   5.135   6.025  11.052  0.5042  0.0277 -0.6716
   20SAPC  H15A 2562   5.114   6.130  11.066  0.1159  0.0393 -1.2721
   20SAPC  H15B 2563   5.111   5.963  11.137  2.0320  0.9318  0.4747
   20SAPC  H15C 2564   5.242   6.021  11.034  0.5276  0.1728 -0.5611
   20SAPC   C11 2565   4.990   5.769  10.765 -1.2317  0.0437 -0.2052
   20SAPC  H11A 2566   5.038   5.671  10.746  0.2183  0.6397  0.2596
   20SAPC  H11B 2567   5.029   5.824  10.676  1.0128 -2.3168 -0.8166
   20SAPC     P 2568   4.784   5.685  10.899  0.0411 -0.2178  0.0005
   20SAPC   O13 2569   4.887   5.630  10.991  0.3084 -0.1326 -0.3407
   20SAPC   O14 2570   4.667   5.751  10.969 -0.1661  0.2815  0.4630
   20SAPC   O12 2571   4.853   5.782  10.796  0.0110  0.4685 -0.9608
   20SAPC   O11 2572   4.722   5.573  10.808  0.2801  0.2811 -0.0179
   20SAPC    C1 2573   4.776   5.439  10.801  0.4138  0.6556 -0.3271
   20SAPC    HA 2574   4.881   5.438  10.839  0.3330  0.9568 -0.0894
   20SAPC    HB 2575   4.709   5.369  10.854  1.8664 -0.7412 -0.2437
   20SAPC    C2 2576   4.777   5.396  10.649  0.2001  0.5466 -0.1327
   20SAPC    HS 2577   4.842   5.307  10.635 -0.8516 -0.2130 -0.3534
   20SAPC   O21 2578   4.819   5.505  10.560  0.0763  0.2384 -0.5716
   20SAPC   C21 2579   4.949   5.514  10.550 -0.2486 -0.1988 -0.1291
   20SAPC   O22 2580   5.036   5.450  10.613  0.0753 -0.1738  0.6406
   20SAPC   C22 2581   4.975   5.643  10.459 -0.0020 -0.7735  0.2152
   20SAPC   H2R 2582   4.914   5.628  10.367  2.3566  0.0812 -1.5800
   20SAPC   H2S 2583   4.932   5.735  10.505  2.2474  1.0214 -1.0521
   20SAPC    C3 2584   4.633   5.347  10.599 -0.2992 -0.3195  0.2941
   20SAPC    HX 2585   4.564   5.428  10.632  0.1123  0.0068  0.3676
   20SAPC    HY 2586   4.590   5.251  10.636 -0.7350 -0.8353 -1.4496
   20SAPC   O31 2587   4.622   5.353  10.456 -0.0019  0.9048  0.1185
   20SAPC   C31 2588   4.625   5.228  10.388  0.0122  0.3180  0.5049
   20SAPC   O32 2589   4.635   5.123  10.446  0.2477  0.1658  0.1188
   20SAPC   C32 2590   4.602   5.236  10.232 -0.1995 -0.1160 -0.2305
   20SAPC   H2X 2591   4.621   5.344  10.211 -1.1894  0.4881  1.7951
   20SAPC   H2Y 2592   4.496   5.211  10.211  0.1758 -2.6082  0.5403
   20SAPC   C23 2593   5.120   5.686  10.434  0.5700  0.3835  0.3267
   20SAPC   H3R 2594   5.159   5.599  10.376  1.4294 -0.3583  1.9247
   20SAPC   H3S 2595   5.183   5.686  10.526 -1.5488 -0.4053  1.8597
   20SAPC   C24 2596   5.127   5.814  10.365 -0.5940  0.3589 -0.2538
   20SAPC   H4R 2597   5.230   5.856  10.358 -0.4054 -0.3179 -1.7830
   20SAPC   H4S 2598   5.079   5.892  10.429  0.4772  0.5889  0.2981
   20SAPC   C25 2599   5.059   5.823  10.233  0.4825  0.9128  0.3159
   20SAPC   H5R 2600   4.949   5.828  10.232  0.2205 -2.6417 -0.3659
   20SAPC   C26 2601   5.120   5.839  10.112  0.6962  0.2033 -0.4823
   20SAPC   H6R 2602   5.067   5.840  10.015  0.0340  1.7276 -0.1372
   20SAPC   C27 2603   5.264   5.848  10.088  0.0622  0.0632  0.2942
   20SAPC   H7R 2604   5.325   5.856  10.180 -1.8447  0.5916  1.5523
   20SAPC   H7S 2605   5.293   5.940  10.033 -0.1599  1.2032  2.0045
   20SAPC   C28 2606   5.297   5.722  10.005 -0.2130  0.8307  0.4499
   20SAPC   H8R 2607   5.296   5.633  10.069 -0.1882 -0.7994 -1.6868
   20SAPC   C29 2608   5.303   5.716   9.871  0.2287  0.1824  0.0685
   20SAPC   H9R 2609   5.323   5.623   9.815 -1.0626  0.0761 -0.2452
   20SAPC  C210 2610   5.292   5.839   9.775 -0.3719  0.4308 -0.7863
   20SAPC  H10R 2611   5.266   5.934   9.826  0.4263  0.1802  0.1117
   20SAPC  H10S 2612   5.213   5.812   9.702  0.2875 -2.0569 -0.6646
   20SAPC  C211 2613   5.421   5.868   9.692  0.4715 -0.8818 -0.2772
   20SAPC  H11R 2614   5.512   5.882   9.752  2.3279  0.8813 -3.2732
   20SAPC  C212 2615   5.436   5.902   9.563  0.4889 -0.2878  0.2322
   20SAPC  H12R 2616   5.533   5.918   9.514  1.3657 -3.0153  0.8916
   20SAPC  C213 2617   5.332   5.904   9.458  0.3005 -0.7894 -0.0077
   20SAPC  H13R 2618   5.338   6.003   9.409  0.2503 -1.6306 -1.7644
   20SAPC  H13S 2619   5.230   5.907   9.504  1.4136 -1.3676  2.6953
   20SAPC  C214 2620   5.335   5.784   9.368  0.3305 -0.0490 -0.0806
   20SAPC  H14R 2621   5.372   5.693   9.416  0.0393 -0.0802  0.0870
   20SAPC  C215 2622   5.297   5.778   9.240  0.8543  0.2973 -0.8353
   20SAPC  H15R 2623   5.323   5.681   9.195  0.0022  0.2946 -1.3392
   20SAPC  C216 2624   5.249   5.887   9.151  0.5744  0.2123 -0.2961
   20SAPC  H16R 2625   5.265   5.986   9.198  0.2489 -0.0213  0.3238
   20SAPC  H16S 2626   5.140   5.878   9.128 -0.4894  0.1421  3.8831
   20SAPC  C217 2627   5.316   5.895   9.017  0.2370  0.3484  0.4897
   20SAPC  H17R 2628   5.425   5.894   9.037  0.8157 -1.1847 -2.2835
   20SAPC  H17S 2629   5.286   5.989   8.965  0.5562 -0.2469 -0.7858
   20SAPC  C218 2630   5.274   5.790   8.919  0.3650 -0.6841  0.4238
   20SAPC  H18R 2631   5.169   5.804   8.888  0.5847 -0.1100 -0.0751
   20SAPC  H18S 2632   5.265   5.690   8.968 -0.4334 -1.1516 -0.6340
   20SAPC  C219 2633   5.357   5.795   8.789  0.3805  0.1148 -0.3944
   20SAPC  H19R 2634   5.358   5.700   8.731 -0.5265  0.6558 -1.3142
   20SAPC  H19S 2635   5.460   5.808   8.829  0.6307  1.7267 -1.4969
   20SAPC  C220 2636   5.318   5.918   8.709 -0.3151  0.3690  0.2104
   20SAPC  H20R 2637   5.354   6.006   8.766  2.1487  0.5653 -1.4640
   20SAPC  H20S 2638   5.209   5.934   8.696 -0.4626  1.8028  2.6818
   20SAPC  H20T 2639   5.372   5.907   8.613  0.2603 -2.0594  0.7285
   20SAPC   C33 2640   4.677   5.124  10.152  0.1656 -0.6455  0.0897
   20SAPC   H3X 2641   4.639   5.028  10.194 -1.1874 -1.1477 -2.1404
   20SAPC   H3Y 2642   4.787   5.135  10.161  0.0731 -1.4458  3.4926
   20SAPC   C34 2643   4.662   5.138   9.997 -0.1202  0.0030 -0.3237
   20SAPC   H4X 2644   4.703   5.237   9.967  0.0552  0.0757  0.1576
   20SAPC   H4Y 2645   4.555   5.121   9.972  0.1125 -0.9861 -0.7205
   20SAPC   C35 2646   4.736   5.025   9.922  0.3456 -0.5663 -0.1464
   20SAPC   H5X 2647   4.691   5.027   9.820  3.0381  0.3298 -1.4398
   20SAPC   H5Y 2648   4.719   4.919   9.950  0.7983 -0.4143  0.7375
   20SAPC   C36 2649   4.886   5.052   9.895 -0.3526  0.0164  0.3562
   20SAPC   H6X 2650   4.940   5.062   9.992 -0.9830  0.8190  0.6392
   20SAPC   H6Y 2651   4.885   5.156   9.856 -1.3878  0.1521  0.7121
   20SAPC   C37 2652   4.947   4.957   9.797 -1.0039  0.0423  0.6477
   20SAPC   H7X 2653   4.902   4.985   9.699  1.7082 -0.9298 -0.9944
   20SAPC   H7Y 2654   4.936   4.853   9.834  0.7941 -0.2834  0.3612
   20SAPC   C38 2655   5.096   4.978   9.770 -0.3961  0.0964  0.3096
   20SAPC   H8X 2656   5.154   4.949   9.861 -1.1591  1.5324  1.3039
   20SAPC   H8Y 2657   5.113   5.087   9.756 -1.1731  0.6338  2.9662
   20SAPC   C39 2658   5.143   4.924   9.638 -0.0637  0.4170  0.7586
   20SAPC   H9X 2659   5.110   4.978   9.546 -0.3774 -0.7153  0.1863
   20SAPC   H9Y 2660   5.104   4.824   9.609  1.6527  0.5994 -2.6827
   20SAPC  C310 2661   5.295   4.907   9.632 -0.2295 -0.3554  0.5674
   20SAPC  H10X 2662   5.330   4.869   9.730  1.5061 -0.0980  0.0803
   20SAPC  H10Y 2663   5.324   5.014   9.623 -1.3745  0.1532  2.3119
   20SAPC  C311 2664   5.337   4.822   9.513  0.1087 -0.4177  0.7319
   20SAPC  H11X 2665   5.312   4.714   9.522  0.2046 -0.7144 -1.8322
   20SAPC  H11Y 2666   5.448   4.832   9.505 -0.1526  1.2813 -1.3528
   20SAPC  C312 2667   5.287   4.873   9.373  0.1636  0.3804  0.2691
   20SAPC  H12X 2668   5.307   4.983   9.376  0.0219  0.4566 -1.0060
   20SAPC  H12Y 2669   5.178   4.867   9.352  0.1506  0.2678  0.3663
   20SAPC  C313 2670   5.356   4.804   9.248  0.4492  0.7950  0.7162
   20SAPC  H13X 2671   5.346   4.695   9.262  1.6915  0.3323 -1.5098
   20SAPC  H13Y 2672   5.462   4.834   9.235  1.4289 -2.9673 -1.4287
   20SAPC  C314 2673   5.296   4.840   9.116 -0.2548  0.2124 -0.4427
   20SAPC  H14X 2674   5.310   4.948   9.095 -1.2299  0.5160  0.3766
   20SAPC  H14Y 2675   5.188   4.819   9.131  0.2953 -1.0802  2.4307
   20SAPC  C315 2676   5.346   4.769   8.987 -0.3350  0.5512  0.3319
   20SAPC  H15X 2677   5.347   4.658   8.976 -0.1516  0.7814 -2.6866
   20SAPC  H15Y 2678   5.451   4.803   8.969 -0.2404  1.1913  1.9377
   20SAPC  C316 2679   5.253   4.815   8.867 -0.0820 -0.2911 -0.4047
   20SAPC  H16X 2680   5.259   4.926   8.864  2.3759 -0.2797  1.6423
   20SAPC  H16Y 2681   5.153   4.788   8.908 -0.6938  0.4571 -1.3715
   20SAPC  C317 2682   5.282   4.749   8.736  0.5017 -0.3794  0.0814
   20SAPC  H17X 2683   5.389   4.739   8.711  0.8037  0.5152  0.9248
   20SAPC  H17Y 2684   5.237   4.819   8.662  0.6864  0.1927  0.4947
   20SAPC  C318 2685   5.203   4.618   8.725 -0.4830  0.8506 -0.0825
   20SAPC  H18X 2686   5.230   4.542   8.802 -1.3431 -0.3027 -0.8836
   20SAPC  H18Y 2687   5.223   4.560   8.632  0.0943  0.8724  0.0195
   20SAPC  H18Z 2688   5.093   4.625   8.733 -0.6889  0.5766 -2.2246
   21SAPC     N 2689   2.177   2.576  10.878  0.7611  0.2417 -0.7661
   21SAPC   C12 2690   2.140   2.447  10.948  0.3319  0.3816 -1.0617
   21SAPC  H12A 2691   2.060   2.467  11.018 -0.5178  1.6774 -2.3647
   21SAPC  H12B 2692   2.222   2.393  10.994 -0.6966 -1.7135 -1.5589
   21SAPC   C13 2693   2.283   2.543  10.774 -0.5742  0.1727 -0.1258
   21SAPC  H13A 2694   2.308   2.633  10.722 -0.5037  0.1767 -0.0851
   21SAPC  H13B 2695   2.377   2.510  10.817  0.1703  0.9526 -1.1285
   21SAPC  H13C 2696   2.249   2.468  10.704  2.4998 -1.2250 -0.2941
   21SAPC   C14 2697   2.058   2.642  10.816 -0.6906  0.2423 -0.0767
   21SAPC  H14A 2698   1.986   2.681  10.887  0.8185  1.1100  1.0547
   21SAPC  H14B 2699   2.094   2.720  10.751 -0.1786 -0.0000 -0.0910
   21SAPC  H14C 2700   1.998   2.573  10.759 -0.9968  1.2375 -0.9885
   21SAPC   C15 2701   2.247   2.675  10.976  0.1433  0.7939 -0.1212
   21SAPC  H15A 2702   2.284   2.764  10.929 -0.8331  1.5616  0.5414
   21SAPC  H15B 2703   2.176   2.688  11.057 -0.4904  2.4064 -0.8974
   21SAPC  H15C 2704   2.332   2.625  11.021 -0.8047 -1.5708 -0.7739
   21SAPC   C11 2705   2.070   2.346  10.852 -1.5545 -0.5454 -0.2706
   21SAPC  H11A 2706   2.079   2.244  10.894  1.8637  0.2783  1.2998
   21SAPC  H11B 2707   2.122   2.336  10.755 -0.1296  2.2611  0.1077
   21SAPC     P 2708   1.828   2.350  10.947  0.0714 -0.3564  0.0273
   21SAPC   O13 2709   1.883   2.400  11.080 -0.6213  0.5361  0.2767
   21SAPC   O14 2710   1.690   2.392  10.914 -0.2668  0.2770  0.6834
   21SAPC   O12 2711   1.932   2.375  10.828 -0.7465  0.3239 -0.0499
   21SAPC   O11 2712   1.834   2.194  10.967  0.3523  0.4874  0.7514
   21SAPC    C1 2713   1.804   2.109  10.854  0.4984 -0.1450  0.6631
   21SAPC    HA 2714   1.705   2.057  10.856  1.2818 -1.6875  2.2148
   21SAPC    HB 2715   1.827   2.160  10.758  0.8182 -0.4884  0.5545
   21SAPC    C2 2716   1.896   1.981  10.847  0.3158 -0.1367  0.7415
   21SAPC    HS 2717   1.904   1.934  10.947 -0.7759 -0.5067  0.6662
   21SAPC   O21 2718   2.023   2.014  10.790 -0.1680 -0.0231 -0.4128
   21SAPC   C21 2719   2.116   1.925  10.810 -0.3211  0.2427 -0.1002
   21SAPC   O22 2720   2.113   1.823  10.870 -0.5055 -0.2615 -0.4465
   21SAPC   C22 2721   2.242   1.974  10.730  0.2610  0.8920  0.3269
   21SAPC   H2R 2722   2.208   2.061  10.670  0.2613  1.8237  1.6352
   21SAPC   H2S 2723   2.329   2.004  10.792  1.3156 -0.3045 -0.5302
   21SAPC    C3 2724   1.830   1.869  10.759 -0.3167  0.4659  0.8669
   21SAPC    HX 2725   1.731   1.849  10.805 -1.0409 -0.0363 -0.8158
   21SAPC    HY 2726   1.896   1.780  10.763 -1.4330 -0.4193  0.2866
   21SAPC   O31 2727   1.816   1.915  10.620  0.2552 -0.4903 -0.4600
   21SAPC   C31 2728   1.699   1.951  10.572  0.5353 -0.2569 -0.1024
   21SAPC   O32 2729   1.597   1.960  10.641  0.0743  0.0779 -0.2059
   21SAPC   C32 2730   1.704   1.973  10.426 -0.1283  0.5528  0.0927
   21SAPC   H2X 2731   1.686   1.880  10.368 -0.4776  1.9769 -2.1846
   21SAPC   H2Y 2732   1.801   2.017  10.393  0.9201  0.8423  3.1960
   21SAPC   C23 2733   2.310   1.867  10.637 -0.1380  0.4249  0.4698
   21SAPC   H3R 2734   2.326   1.774  10.697  0.1986  0.7366  0.8722
   21SAPC   H3S 2735   2.414   1.895  10.608  0.6432 -2.0957  0.5212
   21SAPC   C24 2736   2.225   1.843  10.511  0.0901 -1.0371  0.9060
   21SAPC   H4R 2737   2.220   1.942  10.459 -1.7249 -1.5616  0.0024
   21SAPC   H4S 2738   2.122   1.810  10.536 -0.0023 -1.7882 -0.3511
   21SAPC   C25 2739   2.290   1.737  10.425 -0.1014 -0.3691  0.0474
   21SAPC   H5R 2740   2.346   1.667  10.489 -0.3300  0.7225  1.4870
   21SAPC   C26 2741   2.281   1.718  10.290 -0.0616 -0.8216 -0.5824
   21SAPC   H6R 2742   2.318   1.628  10.238 -1.1575 -1.5250 -0.1913
   21SAPC   C27 2743   2.200   1.816  10.199 -0.5602 -0.2520 -0.1327
   21SAPC   H7R 2744   2.202   1.777  10.095 -2.6209 -0.2175 -0.2395
   21SAPC   H7S 2745   2.269   1.904  10.202 -0.0668 -0.6472  2.1620
   21SAPC   C28 2746   2.056   1.859  10.232  0.2406 -0.0347 -0.3419
   21SAPC   H8R 2747   2.041   1.898  10.333 -0.0848 -2.2813  0.5459
   21SAPC   C29 2748   1.962   1.884  10.135  0.0724  0.2836  0.6872
   21SAPC   H9R 2749   1.861   1.919  10.163 -1.0264 -1.7350 -0.4741
   21SAPC  C210 2750   1.964   1.867   9.981  0.5773 -0.9281  0.3838
   21SAPC  H10R 2751   2.065   1.889   9.942 -1.4365 -1.3265 -6.1911
   21SAPC  H10S 2752   1.901   1.945   9.932  1.8527  0.3085  0.6574
   21SAPC  C211 2753   1.930   1.735   9.920  0.2879 -0.4540  0.0821
   21SAPC  H11R 2754   1.898   1.656   9.988  1.6425 -0.5281  0.6777
   21SAPC  C212 2755   1.934   1.708   9.786  0.2447 -0.5500 -0.0013
   21SAPC  H12R 2756   1.918   1.607   9.745 -1.4484  0.3255 -1.6593
   21SAPC  C213 2757   1.979   1.810   9.685 -0.5799  0.8503  0.6611
   21SAPC  H13R 2758   1.954   1.915   9.710 -4.2619  0.7373 -1.7487
   21SAPC  H13S 2759   1.920   1.793   9.592 -1.9293  1.4567  1.3872
   21SAPC  C214 2760   2.127   1.802   9.668 -0.2208 -0.0752 -0.0198
   21SAPC  H14R 2761   2.177   1.840   9.759 -0.4306 -1.5573  0.7532
   21SAPC  C215 2762   2.194   1.760   9.562  0.6020 -0.3211  0.0155
   21SAPC  H15R 2763   2.302   1.750   9.582  0.7882 -0.6843 -1.0699
   21SAPC  C216 2764   2.135   1.699   9.436 -1.0162  0.9409 -0.2170
   21SAPC  H16R 2765   2.025   1.684   9.436 -1.1105  1.1771  2.4856
   21SAPC  H16S 2766   2.173   1.597   9.414  0.1487  1.2461  0.2755
   21SAPC  C217 2767   2.168   1.790   9.314 -0.0714  0.4299 -0.3381
   21SAPC  H17R 2768   2.275   1.811   9.295 -0.0829  0.8805  0.0785
   21SAPC  H17S 2769   2.113   1.887   9.321 -1.1191 -0.2056  0.5353
   21SAPC  C218 2770   2.115   1.728   9.188  0.0910  0.1745 -0.0387
   21SAPC  H18R 2771   2.005   1.714   9.189 -0.0174  0.4729  3.2356
   21SAPC  H18S 2772   2.163   1.628   9.181 -1.5148 -0.5179 -2.5015
   21SAPC  C219 2773   2.138   1.815   9.064  0.5065  0.4258  0.0216
   21SAPC  H19R 2774   2.244   1.847   9.067  0.6830 -0.1722  0.2921
   21SAPC  H19S 2775   2.070   1.903   9.064 -0.2117 -0.1156 -0.8807
   21SAPC  C220 2776   2.115   1.733   8.928  0.0146 -0.6375 -0.2943
   21SAPC  H20R 2777   2.195   1.656   8.925  2.3428  1.6729 -0.4466
   21SAPC  H20S 2778   2.143   1.796   8.841  0.2767 -1.3141 -0.7093
   21SAPC  H20T 2779   2.010   1.695   8.918 -0.8718  2.1072 -3.1078
   21SAPC   C33 2780   1.589   2.062  10.375  0.5449  0.2337 -0.7839
   21SAPC   H3X 2781   1.597   2.146  10.447 -2.5767  0.0172 -0.0081
   21SAPC   H3Y 2782   1.497   2.002  10.394 -1.0370  2.1780 -1.7923
   21SAPC   C34 2783   1.595   2.124  10.234  0.4470  0.0260 -0.5971
   21SAPC   H4X 2784   1.693   2.175  10.228  1.0095 -0.7877  1.0217
   21SAPC   H4Y 2785   1.505   2.190  10.230  0.5138  0.2768  1.1986
   21SAPC   C35 2786   1.585   2.012  10.128  0.2771 -0.2304 -0.2092
   21SAPC   H5X 2787   1.490   1.959  10.151  0.9701 -1.9274 -1.0614
   21SAPC   H5Y 2788   1.675   1.949  10.146  0.2595 -0.1336  0.2200
   21SAPC   C36 2789   1.574   2.055   9.979 -0.2282  0.1212  0.3489
   21SAPC   H6X 2790   1.665   2.109   9.944  0.5734 -1.0903  0.4979
   21SAPC   H6Y 2791   1.488   2.124   9.971  1.5480  2.5727  1.0565
   21SAPC   C37 2792   1.572   1.930   9.886 -0.0029  0.3825 -0.0114
   21SAPC   H7X 2793   1.482   1.870   9.911  0.1477 -0.1946 -0.7859
   21SAPC   H7Y 2794   1.658   1.860   9.885  0.1116  0.5243 -0.2894
   21SAPC   C38 2795   1.565   1.973   9.738 -0.2061  0.0589 -0.1195
   21SAPC   H8X 2796   1.653   2.034   9.707 -1.7485  2.7727  0.5527
   21SAPC   H8Y 2797   1.483   2.047   9.728  0.6749  1.1705  0.5950
   21SAPC   C39 2798   1.554   1.846   9.653  0.1062 -0.1576 -0.0621
   21SAPC   H9X 2799   1.453   1.803   9.669 -0.6590  1.5270 -0.1260
   21SAPC   H9Y 2800   1.639   1.780   9.684  0.9028  1.5603  1.6659
   21SAPC  C310 2801   1.557   1.878   9.505 -0.2825  0.1452 -0.0481
   21SAPC  H10X 2802   1.657   1.922   9.483  1.2517 -3.2081 -0.4269
   21SAPC  H10Y 2803   1.484   1.957   9.477  0.6877  1.1117  0.0886
   21SAPC  C311 2804   1.531   1.761   9.410 -0.3566  0.2483 -0.2277
   21SAPC  H11X 2805   1.434   1.717   9.441  0.3615  0.6069  2.8105
   21SAPC  H11Y 2806   1.607   1.680   9.411 -0.8476 -0.2375 -1.0252
   21SAPC  C312 2807   1.514   1.796   9.266 -0.4988 -0.2871 -0.4447
   21SAPC  H12X 2808   1.603   1.851   9.226  0.7778 -2.0794 -0.2074
   21SAPC  H12Y 2809   1.432   1.871   9.262 -0.6434 -0.4752 -1.2182
   21SAPC  C313 2810   1.494   1.677   9.167 -0.7439  0.1351  0.8798
   21SAPC  H13X 2811   1.459   1.722   9.072 -1.6001  1.0244  1.5899
   21SAPC  H13Y 2812   1.415   1.609   9.206 -0.4196  1.7316  4.8554
   21SAPC  C314 2813   1.625   1.605   9.116  0.0163  0.4393 -0.1627
   21SAPC  H14X 2814   1.664   1.544   9.201 -0.5202  0.9675  0.4698
   21SAPC  H14Y 2815   1.698   1.684   9.089  0.8484 -0.2290  0.0734
   21SAPC  C315 2816   1.599   1.505   8.999 -0.4583  0.3253  0.4412
   21SAPC  H15X 2817   1.691   1.485   8.939 -1.1390  0.6865 -0.7514
   21SAPC  H15Y 2818   1.538   1.547   8.916 -0.6756  0.3281  0.6033
   21SAPC  C316 2819   1.535   1.372   9.050 -0.3070 -0.6312  0.4030
   21SAPC  H16X 2820   1.467   1.399   9.134  0.0505 -1.2834  0.9071
   21SAPC  H16Y 2821   1.619   1.305   9.076  0.7789  0.9977  1.2262
   21SAPC  C317 2822   1.449   1.308   8.949  0.3493 -0.4587 -0.1908
   21SAPC  H17X 2823   1.507   1.285   8.857 -1.3605 -2.7084 -0.7815
   21SAPC  H17Y 2824   1.368   1.378   8.921  0.2033 -0.4838  0.1730
   21SAPC  C318 2825   1.392   1.184   8.999  0.2215  0.3528  0.1842
   21SAPC  H18X 2826   1.465   1.100   9.006  0.7521  0.3983 -3.0370
   21SAPC  H18Y 2827   1.308   1.152   8.934 -0.8892  1.8874  0.8020
   21SAPC  H18Z 2828   1.339   1.202   9.095  0.7490  2.9479  0.0637
   22SAPC     N 2829   5.405   1.645  10.839 -0.0911  0.5111  0.2931
   22SAPC   C12 2830   5.350   1.611  10.700  0.1449 -0.5748  0.4152
   22SAPC  H12A 2831   5.401   1.524  10.660 -0.1616  0.9359 -3.7084
   22SAPC  H12B 2832   5.373   1.687  10.627 -0.0411 -1.6446 -0.7940
   22SAPC   C13 2833   5.346   1.780  10.861 -0.6256 -0.1449  0.0883
   22SAPC  H13A 2834   5.239   1.789  10.851 -0.4808  1.8607 -0.1076
   22SAPC  H13B 2835   5.353   1.802  10.967  1.3793 -0.4689  0.0649
   22SAPC  H13C 2836   5.393   1.861  10.807  1.5299 -0.4267  1.4276
   22SAPC   C14 2837   5.365   1.555  10.950 -0.2598 -0.6056 -0.8842
   22SAPC  H14A 2838   5.259   1.536  10.951 -1.0288  2.8169  1.1802
   22SAPC  H14B 2839   5.413   1.458  10.956  2.3431  0.6565  1.5898
   22SAPC  H14C 2840   5.397   1.587  11.049  0.4189 -2.9736 -0.2810
   22SAPC   C15 2841   5.559   1.657  10.839 -0.2734  0.3829 -0.6407
   22SAPC  H15A 2842   5.583   1.659  10.945 -0.7475 -3.0320 -0.3297
   22SAPC  H15B 2843   5.597   1.561  10.808  1.7000 -0.2073  2.9613
   22SAPC  H15C 2844   5.594   1.745  10.788 -0.4972 -0.4425 -2.2725
   22SAPC   C11 2845   5.197   1.573  10.672  0.5092  0.4594  0.3951
   22SAPC  H11A 2846   5.186   1.542  10.566 -0.9572  1.3588  0.2492
   22SAPC  H11B 2847   5.138   1.667  10.674 -0.0995  0.0971  3.1233
   22SAPC     P 2848   5.177   1.318  10.728 -0.1384  0.2183  0.1195
   22SAPC   O13 2849   5.295   1.315  10.629  0.2866  0.4158 -0.4302
   22SAPC   O14 2850   5.191   1.244  10.853 -0.1362 -0.5918 -0.0129
   22SAPC   O12 2851   5.137   1.468  10.759  0.6491  0.0807  0.1350
   22SAPC   O11 2852   5.050   1.264  10.651 -0.0271  0.2757 -0.1298
   22SAPC    C1 2853   4.916   1.266  10.690  0.8301 -0.3296 -0.4184
   22SAPC    HA 2854   4.883   1.369  10.714  0.6348 -0.6279  0.6181
   22SAPC    HB 2855   4.857   1.235  10.601  0.9178 -1.4964 -0.0865
   22SAPC    C2 2856   4.874   1.140  10.785  0.5320 -0.4327 -0.0274
   22SAPC    HS 2857   4.923   1.165  10.881 -1.0787  2.0338  0.2386
   22SAPC   O21 2858   4.908   1.018  10.719 -0.5231 -0.5464  0.2085
   22SAPC   C21 2859   4.898   0.918  10.801 -0.0618 -0.5888  0.5929
   22SAPC   O22 2860   4.853   0.920  10.915  0.1224  0.0464 -0.4880
   22SAPC   C22 2861   4.958   0.798  10.726 -0.0122 -0.2491  0.3575
   22SAPC   H2R 2862   4.945   0.806  10.616 -3.6011 -1.7918  0.5025
   22SAPC   H2S 2863   5.065   0.807  10.752 -0.4148  2.1668  1.4600
   22SAPC    C3 2864   4.721   1.164  10.813  0.4391  0.3825  0.3721
   22SAPC    HX 2865   4.715   1.272  10.835 -1.4495  0.2872  0.4685
   22SAPC    HY 2866   4.684   1.110  10.903  0.8251 -0.4964  0.0182
   22SAPC   O31 2867   4.634   1.130  10.699  0.6333  0.4394  0.0382
   22SAPC   C31 2868   4.575   1.231  10.633 -0.5141 -0.0909  0.1346
   22SAPC   O32 2869   4.571   1.347  10.670  0.0778 -0.0770 -0.3363
   22SAPC   C32 2870   4.518   1.180  10.502  0.1936  0.1485  0.1480
   22SAPC   H2X 2871   4.536   1.072  10.484 -1.5969 -0.3942  1.3385
   22SAPC   H2Y 2872   4.569   1.233  10.419 -1.3716  1.6318  0.0756
   22SAPC   C23 2873   4.916   0.655  10.771  0.2639 -0.4402 -0.4028
   22SAPC   H3R 2874   4.896   0.644  10.880 -0.6592  0.3118 -0.4874
   22SAPC   H3S 2875   5.008   0.593  10.759 -0.3450 -1.8390  1.5858
   22SAPC   C24 2876   4.805   0.593  10.689  0.0451 -0.5586 -0.0930
   22SAPC   H4R 2877   4.784   0.491  10.727  2.9729 -0.3523  2.5442
   22SAPC   H4S 2878   4.840   0.593  10.584 -0.7981  0.1481 -0.3911
   22SAPC   C25 2879   4.677   0.676  10.701  0.3435  0.0183  0.7367
   22SAPC   H5R 2880   4.644   0.697  10.804 -0.0968 -1.4608  0.9255
   22SAPC   C26 2881   4.597   0.706  10.600 -0.2603  0.5548 -0.3278
   22SAPC   H6R 2882   4.509   0.771  10.612  0.3165  1.4049 -0.5619
   22SAPC   C27 2883   4.623   0.674  10.455 -1.1629 -0.0362  0.0922
   22SAPC   H7R 2884   4.732   0.665  10.435 -0.4202  0.3963  3.3696
   22SAPC   H7S 2885   4.585   0.766  10.405 -0.0897  0.3429 -0.0511
   22SAPC   C28 2886   4.564   0.550  10.407 -0.2640 -0.2989  0.5712
   22SAPC   H8R 2887   4.556   0.462  10.472  0.1469  0.5649  1.8426
   22SAPC   C29 2888   4.510   0.540  10.285  0.6623 -0.5624 -0.0401
   22SAPC   H9R 2889   4.455   0.450  10.255  0.3744 -0.3836 -0.0505
   22SAPC  C210 2890   4.487   0.646  10.185  0.0618  0.3596  0.2192
   22SAPC  H10R 2891   4.490   0.594  10.087  1.2522 -0.6523  0.7720
   22SAPC  H10S 2892   4.575   0.713  10.191  0.6720 -0.4582  0.4990
   22SAPC  C211 2893   4.365   0.733  10.180 -0.1018 -0.0237 -0.6323
   22SAPC  H11R 2894   4.364   0.809  10.260 -0.6387 -0.7873  0.1093
   22SAPC  C212 2895   4.266   0.730  10.086  0.6281  0.1078 -0.1161
   22SAPC  H12R 2896   4.174   0.785  10.113  0.7371 -0.4618  1.5754
   22SAPC  C213 2897   4.250   0.641   9.971  0.0353  0.6116  0.9389
   22SAPC  H13R 2898   4.149   0.594   9.975  1.2467 -2.3333 -0.1032
   22SAPC  H13S 2899   4.321   0.555   9.972 -0.6117 -0.0406 -1.5815
   22SAPC  C214 2900   4.254   0.717   9.841 -0.2573  0.1513 -0.1980
   22SAPC  H14R 2901   4.278   0.825   9.842  0.7787 -0.0524 -1.0422
   22SAPC  C215 2902   4.218   0.664   9.724 -0.7666 -0.4929  0.0004
   22SAPC  H15R 2903   4.214   0.730   9.636  1.4756 -1.7900 -1.1828
   22SAPC  C216 2904   4.180   0.520   9.695  0.5332  0.4303 -0.1799
   22SAPC  H16R 2905   4.182   0.454   9.784 -0.7312 -2.1692 -1.9230
   22SAPC  H16S 2906   4.252   0.475   9.624  0.8704  0.6333  0.0313
   22SAPC  C217 2907   4.042   0.506   9.615 -0.0875  0.2420  0.0333
   22SAPC  H17R 2908   3.956   0.533   9.680 -0.2997 -0.6739  0.1492
   22SAPC  H17S 2909   4.042   0.398   9.590  2.5703  0.1707  0.0040
   22SAPC  C218 2910   4.036   0.585   9.480  0.6921  1.1228  0.0676
   22SAPC  H18R 2911   4.040   0.693   9.505 -0.2756  0.7044  2.2206
   22SAPC  H18S 2912   3.936   0.569   9.435 -0.2606  2.4292  1.6067
   22SAPC  C219 2913   4.148   0.552   9.376  0.2349 -0.5817 -0.4341
   22SAPC  H19R 2914   4.149   0.448   9.337  2.0601  0.3757 -3.2680
   22SAPC  H19S 2915   4.244   0.571   9.429 -0.4355 -0.3585  0.7543
   22SAPC  C220 2916   4.151   0.650   9.260 -0.0061 -0.1654 -0.1762
   22SAPC  H20R 2917   4.176   0.751   9.298  1.7301 -0.3808 -0.6461
   22SAPC  H20S 2918   4.047   0.651   9.221  0.1413  2.0054 -0.6274
   22SAPC  H20T 2919   4.224   0.616   9.184  0.0701 -2.8792  1.0149
   22SAPC   C33 2920   4.370   1.201  10.495 -0.8099 -0.3555  0.0375
   22SAPC   H3X 2921   4.351   1.310  10.490  1.2022  0.0305 -0.0904
   22SAPC   H3Y 2922   4.323   1.159  10.587  0.6863 -0.7772  0.6446
   22SAPC   C34 2923   4.313   1.131  10.369 -0.2033 -0.3380 -0.2034
   22SAPC   H4X 2924   4.305   1.022  10.393 -0.4659 -0.2820 -0.0400
   22SAPC   H4Y 2925   4.379   1.154  10.282  0.7951  2.1448  1.1137
   22SAPC   C35 2926   4.173   1.182  10.333 -0.0054 -0.0777  0.2855
   22SAPC   H5X 2927   4.171   1.293  10.324 -2.2975 -0.1365 -0.4988
   22SAPC   H5Y 2928   4.103   1.148  10.412  1.2962 -0.2734  1.4044
   22SAPC   C36 2929   4.116   1.128  10.200  1.0628  1.2372  0.1313
   22SAPC   H6X 2930   4.005   1.135  10.202  1.0492  1.0378  0.1289
   22SAPC   H6Y 2931   4.123   1.017  10.189  1.6882  1.3735 -0.9569
   22SAPC   C37 2932   4.167   1.194  10.074  1.2103  0.6068  0.4437
   22SAPC   H7X 2933   4.277   1.194  10.094  1.2992  1.1818 -0.0327
   22SAPC   H7Y 2934   4.125   1.296  10.061 -2.2138 -1.0120 -3.7171
   22SAPC   C38 2935   4.127   1.117   9.944 -0.0916 -0.3133 -0.1596
   22SAPC   H8X 2936   4.016   1.115   9.951 -0.1814  0.9112 -0.8715
   22SAPC   H8Y 2937   4.164   1.013   9.950 -0.1850 -0.2781  2.4784
   22SAPC   C39 2938   4.188   1.178   9.818 -0.1342  0.1070  0.0580
   22SAPC   H9X 2939   4.299   1.179   9.817 -0.0400  2.7722 -2.9208
   22SAPC   H9Y 2940   4.154   1.281   9.794 -1.2266  0.0761  1.3635
   22SAPC  C310 2941   4.150   1.103   9.693 -0.0545  0.7154  0.3673
   22SAPC  H10X 2942   4.041   1.115   9.672  0.1425  2.5653  0.2623
   22SAPC  H10Y 2943   4.181   0.997   9.706  3.5094  1.5214 -0.5394
   22SAPC  C311 2944   4.223   1.151   9.568  0.0942  0.8677 -0.1012
   22SAPC  H11X 2945   4.329   1.147   9.601  0.1395  1.6037 -0.1461
   22SAPC  H11Y 2946   4.178   1.251   9.551 -3.4118 -0.3918  0.9674
   22SAPC  C312 2947   4.186   1.052   9.448 -0.1736 -0.0481 -0.6486
   22SAPC  H12X 2948   4.075   1.045   9.442 -0.0923 -0.4408 -2.3126
   22SAPC  H12Y 2949   4.224   0.949   9.467 -0.0427 -0.0198 -0.7581
   22SAPC  C313 2950   4.245   1.096   9.313 -0.2825 -0.5123  1.0370
   22SAPC  H13X 2951   4.347   1.054   9.304 -1.3995 -3.1567 -0.3002
   22SAPC  H13Y 2952   4.245   1.207   9.310 -3.1636 -0.4689 -0.8990
   22SAPC  C314 2953   4.149   1.047   9.206 -0.7553 -0.1812  0.1028
   22SAPC  H14X 2954   4.045   1.064   9.243 -0.9581 -0.9462 -0.0981
   22SAPC  H14Y 2955   4.155   0.936   9.198 -0.2987 -0.2377  1.0627
   22SAPC  C315 2956   4.163   1.104   9.069 -0.2082 -0.2192 -0.6287
   22SAPC  H15X 2957   4.257   1.062   9.027  1.4625  0.8168  1.8247
   22SAPC  H15Y 2958   4.174   1.215   9.066 -0.6638 -0.1361  0.1489
   22SAPC  C316 2959   4.037   1.072   8.982 -0.8883  0.3122  0.5401
   22SAPC  H16X 2960   3.939   1.103   9.024 -1.9834 -1.7554 -0.3041
   22SAPC  H16Y 2961   4.020   0.964   8.961 -0.7532  0.3184  0.3957
   22SAPC  C317 2962   4.043   1.142   8.842  0.4963  0.3464  0.3316
   22SAPC  H17X 2963   4.136   1.104   8.794 -0.6741 -0.3998 -1.4659
   22SAPC  H17Y 2964   4.046   1.253   8.852 -3.8966  1.0500 -2.9215
   22SAPC  C318 2965   3.923   1.100   8.750 -0.1573  0.1544 -0.4086
   22SAPC  H18X 2966   3.941   0.997   8.713 -0.3625 -0.5704  1.3880
   22SAPC  H18Y 2967   3.920   1.164   8.660  0.5473  1.4456  0.4533
   22SAPC  H18Z 2968   3.821   1.097   8.795  0.6536 -0.6303  1.5257
   23SAPC     N 2969   4.276   2.827  11.156  0.4523 -0.1184  0.6217
   23SAPC   C12 2970   4.270   2.788  11.010 -0.1761  0.2746 -0.1950
   23SAPC  H12A 2971   4.169   2.808  10.977 -1.1204 -1.2893  1.5707
   23SAPC  H12B 2972   4.263   2.680  11.004  2.6315  0.0982 -2.3830
   23SAPC   C13 2973   4.381   2.757  11.228 -0.0315 -0.3432  0.5955
   23SAPC  H13A 2974   4.347   2.658  11.254  0.1146 -0.4727  0.2955
   23SAPC  H13B 2975   4.475   2.782  11.181  0.6590  1.2172  2.6688
   23SAPC  H13C 2976   4.404   2.793  11.327  1.0575 -0.7665  0.5115
   23SAPC   C14 2977   4.320   2.975  11.169  0.5207  0.6511 -0.1901
   23SAPC  H14A 2978   4.333   2.991  11.275 -1.7210 -0.7459  0.3871
   23SAPC  H14B 2979   4.403   2.983  11.102  0.1381 -6.0398 -2.2594
   23SAPC  H14C 2980   4.238   3.040  11.143  0.0809 -0.4760 -1.7820
   23SAPC   C15 2981   4.146   2.804  11.237  0.0317 -0.5037 -0.0639
   23SAPC  H15A 2982   4.073   2.864  11.184  2.7146  0.3533 -3.1211
   23SAPC  H15B 2983   4.127   2.697  11.235  1.0851 -0.7061  0.5772
   23SAPC  H15C 2984   4.148   2.843  11.337 -0.9978 -1.6925  0.4613
   23SAPC   C11 2985   4.383   2.821  10.916  0.1579  0.1302  0.3498
   23SAPC  H11A 2986   4.361   2.930  10.903 -1.3242 -0.1901 -0.0151
   23SAPC  H11B 2987   4.369   2.768  10.820 -0.0523 -0.1150  0.5164
   23SAPC     P 2988   4.580   2.658  10.940 -0.1502  0.4854  0.0706
   23SAPC   O13 2989   4.684   2.635  11.038 -0.2975  0.0061 -0.2223
   23SAPC   O14 2990   4.472   2.557  10.945  0.5868 -0.0340  0.0180
   23SAPC   O12 2991   4.519   2.806  10.961 -0.3414 -0.0248 -0.0373
   23SAPC   O11 2992   4.644   2.659  10.799  0.3958  0.4171 -0.6416
   23SAPC    C1 2993   4.729   2.762  10.752  0.0911 -0.6698 -0.1715
   23SAPC    HA 2994   4.770   2.834  10.826  2.3407 -1.3196 -0.7112
   23SAPC    HB 2995   4.821   2.719  10.707 -0.3408 -0.3594 -1.4094
   23SAPC    C2 2996   4.650   2.844  10.636  0.4081 -0.3281 -0.7226
   23SAPC    HS 2997   4.550   2.856  10.684 -0.0144 -2.2439 -1.0606
   23SAPC   O21 2998   4.634   2.750  10.529 -0.4008 -0.1113 -0.2465
   23SAPC   C21 2999   4.530   2.758  10.454 -0.5683 -0.0687  0.3174
   23SAPC   O22 3000   4.444   2.845  10.458  0.0012 -0.4740 -0.1593
   23SAPC   C22 3001   4.531   2.631  10.360  0.1807  0.6324 -0.1641
   23SAPC   H2R 3002   4.613   2.643  10.286  0.7555  0.8255  0.4853
   23SAPC   H2S 3003   4.550   2.537  10.417 -1.8424 -0.5643 -1.3384
   23SAPC    C3 3004   4.722   2.977  10.591 -0.5326  0.4638 -0.3029
   23SAPC    HX 3005   4.814   2.938  10.541  0.8271 -0.6084  2.8074
   23SAPC    HY 3006   4.748   3.039  10.679 -3.8178  0.6436  0.6664
   23SAPC   O31 3007   4.640   3.049  10.492 -0.6115  0.5872 -0.7371
   23SAPC   C31 3008   4.549   3.120  10.559  0.0825 -0.6803 -0.2110
   23SAPC   O32 3009   4.540   3.125  10.683 -0.1393 -0.9363  0.3625
   23SAPC   C32 3010   4.482   3.222  10.469 -0.1783 -0.1907 -0.6167
   23SAPC   H2X 3011   4.519   3.309  10.528  2.5927 -2.4804  1.3010
   23SAPC   H2Y 3012   4.371   3.216  10.474 -0.2449  0.5843 -0.9775
   23SAPC   C23 3013   4.401   2.607  10.282  0.1064 -0.1681  0.9138
   23SAPC   H3R 3014   4.407   2.689  10.209  4.5951 -1.5605 -0.6194
   23SAPC   H3S 3015   4.311   2.623  10.345 -1.5133  1.1974 -1.6270
   23SAPC   C24 3016   4.384   2.480  10.212  0.0101  0.2083 -0.2161
   23SAPC   H4R 3017   4.291   2.473  10.152  0.3276 -0.4222 -0.6601
   23SAPC   H4S 3018   4.382   2.403  10.292  1.1926 -0.6837 -1.0056
   23SAPC   C25 3019   4.505   2.446  10.134 -0.6121 -0.5213 -0.0268
   23SAPC   H5R 3020   4.595   2.427  10.194 -0.3927 -0.2725 -0.2743
   23SAPC   C26 3021   4.527   2.440  10.000  0.1849 -0.8956 -0.6015
   23SAPC   H6R 3022   4.626   2.418   9.956 -0.6776 -0.8300 -2.7036
   23SAPC   C27 3023   4.415   2.452   9.899  0.5428 -0.8670  0.0967
   23SAPC   H7R 3024   4.317   2.485   9.940  0.2112 -0.9075 -0.6455
   23SAPC   H7S 3025   4.395   2.348   9.866  1.0424 -0.4248 -1.7243
   23SAPC   C28 3026   4.454   2.545   9.784  0.2201 -0.7980  0.1269
   23SAPC   H8R 3027   4.481   2.647   9.816 -5.5775  0.3276  2.7770
   23SAPC   C29 3028   4.449   2.525   9.656  0.5733 -0.3271 -0.2550
   23SAPC   H9R 3029   4.486   2.606   9.592  0.5282  0.6328  0.8997
   23SAPC  C210 3030   4.402   2.398   9.593 -0.4039 -0.6257 -0.6620
   23SAPC  H10R 3031   4.304   2.365   9.631 -0.2208  1.1658  1.5840
   23SAPC  H10S 3032   4.482   2.323   9.613 -1.1583 -1.1406  0.5441
   23SAPC  C211 3033   4.385   2.414   9.446 -0.0792  0.1687 -0.3639
   23SAPC  H11R 3034   4.463   2.362   9.389  0.0525  1.0359 -0.9920
   23SAPC  C212 3035   4.292   2.474   9.377 -0.1462 -0.4181  0.2704
   23SAPC  H12R 3036   4.306   2.483   9.269 -1.3511  0.1815  0.1524
   23SAPC  C213 3037   4.183   2.558   9.437 -1.1389 -0.0172  0.4536
   23SAPC  H13R 3038   4.179   2.648   9.372  1.5889  0.0101  0.2335
   23SAPC  H13S 3039   4.218   2.595   9.535 -2.7074  0.1731  0.9783
   23SAPC  C214 3040   4.052   2.486   9.438 -0.0202  0.0498 -0.2392
   23SAPC  H14R 3041   4.026   2.453   9.336 -0.8200 -0.1148  0.0084
   23SAPC  C215 3042   3.975   2.449   9.537 -0.0708  0.4988 -0.7201
   23SAPC  H15R 3043   3.887   2.389   9.509 -0.7449  1.5267 -0.8414
   23SAPC  C216 3044   3.996   2.476   9.686  0.4843  0.2332  0.0752
   23SAPC  H16R 3045   3.940   2.556   9.739 -2.0549 -1.8834  0.7858
   23SAPC  H16S 3046   4.102   2.507   9.703  0.7462 -0.7798  0.3371
   23SAPC  C217 3047   3.970   2.340   9.756 -0.0156  0.3332  0.2162
   23SAPC  H17R 3048   4.021   2.261   9.698  0.4404  1.3384 -0.7834
   23SAPC  H17S 3049   3.863   2.311   9.755  0.5297 -1.8121  0.3833
   23SAPC  C218 3050   4.035   2.332   9.893  0.0485 -0.1162 -0.4985
   23SAPC  H18R 3051   4.000   2.417   9.956  1.4812 -0.3166  0.6286
   23SAPC  H18S 3052   4.145   2.334   9.876 -0.3299 -0.2406 -3.5077
   23SAPC  C219 3053   4.017   2.201   9.960  0.3576  0.1082 -0.2019
   23SAPC  H19R 3054   4.053   2.119   9.895  0.1091 -0.2127  0.0586
   23SAPC  H19S 3055   3.910   2.185   9.984  0.4561 -0.1899  0.0651
   23SAPC  C220 3056   4.095   2.197  10.097 -0.0589 -0.0934  0.0261
   23SAPC  H20R 3057   4.061   2.113  10.160  1.3281 -0.9257 -0.3026
   23SAPC  H20S 3058   4.068   2.281  10.165 -2.8963 -1.8751  1.2786
   23SAPC  H20T 3059   4.206   2.189  10.099 -0.2260 -2.8011  1.2487
   23SAPC   C33 3060   4.537   3.234  10.326 -0.0416 -0.1540 -0.0101
   23SAPC   H3X 3061   4.648   3.236  10.333  0.0526 -1.6737 -0.7272
   23SAPC   H3Y 3062   4.504   3.330  10.281 -0.3772  0.1567  0.8831
   23SAPC   C34 3063   4.504   3.122  10.227  0.2092 -0.0877  0.1167
   23SAPC   H4X 3064   4.393   3.109  10.230 -0.3270  3.4395  0.6367
   23SAPC   H4Y 3065   4.545   3.022  10.252  1.2961 -0.9455 -4.2113
   23SAPC   C35 3066   4.553   3.153  10.088 -0.0335  0.0804  0.1219
   23SAPC   H5X 3067   4.663   3.141  10.089  0.3459  2.2397 -2.4931
   23SAPC   H5Y 3068   4.535   3.257  10.052 -0.0175  1.3804  3.5407
   23SAPC   C36 3069   4.494   3.053   9.981  0.0699 -0.1195 -0.1372
   23SAPC   H6X 3070   4.393   3.089   9.951 -0.3394 -0.6216  0.6188
   23SAPC   H6Y 3071   4.492   2.949  10.020  1.5938 -1.0124 -2.2354
   23SAPC   C37 3072   4.578   3.061   9.850  0.0977  0.1118  0.5785
   23SAPC   H7X 3073   4.686   3.065   9.876  0.0755 -0.3344  0.7582
   23SAPC   H7Y 3074   4.539   3.156   9.810 -1.1590 -0.1567  1.1236
   23SAPC   C38 3075   4.556   2.940   9.754  0.0540 -0.6290 -0.5482
   23SAPC   H8X 3076   4.452   2.943   9.717 -0.8046  2.2273  1.6899
   23SAPC   H8Y 3077   4.559   2.849   9.818 -1.7425 -0.0963  0.3660
   23SAPC   C39 3078   4.670   2.930   9.655 -0.3127 -0.9357  0.1955
   23SAPC   H9X 3079   4.769   2.927   9.706 -0.7351 -1.5085  0.9988
   23SAPC   H9Y 3080   4.663   3.028   9.602 -1.8119 -0.3914  1.3239
   23SAPC  C310 3081   4.651   2.814   9.553  0.3673  0.2931 -0.4824
   23SAPC  H10X 3082   4.555   2.822   9.498  1.1387 -0.8722 -2.0885
   23SAPC  H10Y 3083   4.658   2.721   9.613  1.5882  0.1112 -0.8676
   23SAPC  C311 3084   4.766   2.817   9.456  0.0064  0.1426  0.8121
   23SAPC  H11X 3085   4.853   2.809   9.524  2.0935 -1.4586 -1.8548
   23SAPC  H11Y 3086   4.786   2.906   9.392 -1.2070 -0.6841 -0.7926
   23SAPC  C312 3087   4.769   2.694   9.361 -0.8548 -0.3313  0.1829
   23SAPC  H12X 3088   4.767   2.598   9.418  0.7235  0.3755  1.5417
   23SAPC  H12Y 3089   4.867   2.693   9.309 -0.5474 -2.2885  0.7166
   23SAPC  C313 3090   4.658   2.689   9.259  0.2529 -1.1817  0.3915
   23SAPC  H13X 3091   4.656   2.778   9.192 -1.1179 -1.3665  0.1575
   23SAPC  H13Y 3092   4.558   2.691   9.308 -0.1139  0.3889 -0.3470
   23SAPC  C314 3093   4.684   2.577   9.156 -0.2316  0.8448 -0.5081
   23SAPC  H14X 3094   4.701   2.487   9.219 -1.5429  0.2301 -0.9957
   23SAPC  H14Y 3095   4.779   2.596   9.102 -0.4132  0.2038 -1.0658
   23SAPC  C315 3096   4.569   2.548   9.055  0.4551  1.3224  0.6256
   23SAPC  H15X 3097   4.544   2.635   8.991 -0.6640 -0.4541 -1.4729
   23SAPC  H15Y 3098   4.486   2.528   9.126  1.0084  3.4700  1.9696
   23SAPC  C316 3099   4.597   2.417   8.977  0.3471  0.1722  0.1055
   23SAPC  H16X 3100   4.607   2.333   9.050  0.0233  0.5474  0.5871
   23SAPC  H16Y 3101   4.682   2.421   8.905  0.3458 -1.6614 -0.0648
   23SAPC  C317 3102   4.486   2.390   8.881  0.6763 -1.1940 -0.1747
   23SAPC  H17X 3103   4.444   2.474   8.822  0.9933 -1.4737 -0.8080
   23SAPC  H17Y 3104   4.398   2.362   8.943  0.2480  0.4763  0.0252
   23SAPC  C318 3105   4.523   2.276   8.775  0.5162  0.3837 -0.3829
   23SAPC  H18X 3106   4.602   2.208   8.814 -0.1412 -1.3630 -1.9290
   23SAPC  H18Y 3107   4.552   2.313   8.674  1.1870  1.3331  0.1352
   23SAPC  H18Z 3108   4.441   2.205   8.754 -1.6985  3.0479 -1.4389
   24SAPC     N 3109   6.786   2.050  11.110  0.8329 -0.2378  0.5602
   24SAPC   C12 3110   6.779   2.030  10.950 -0.0040 -0.1313 -0.7397
   24SAPC  H12A 3111   6.768   1.926  10.923  1.1550 -0.5332  0.2403
   24SAPC  H12B 3112   6.872   2.062  10.905  0.2667 -0.8847 -0.7342
   24SAPC   C13 3113   6.832   2.184  11.139  0.4359 -0.3144  0.4217
   24SAPC  H13A 3114   6.927   2.203  11.093 -0.5284 -1.6028 -2.2686
   24SAPC  H13B 3115   6.763   2.257  11.099 -0.0059 -0.8534  0.1880
   24SAPC  H13C 3116   6.828   2.190  11.247 -2.6326 -0.4375  0.4272
   24SAPC   C14 3117   6.652   2.022  11.169  0.0143  0.2332 -0.3655
   24SAPC  H14A 3118   6.663   2.033  11.276 -1.3111  3.2122 -0.4276
   24SAPC  H14B 3119   6.580   2.098  11.141 -0.7215 -0.7934 -1.3370
   24SAPC  H14C 3120   6.608   1.931  11.132 -0.9901  0.9127 -0.8649
   24SAPC   C15 3121   6.886   1.953  11.172 -0.1512 -0.2433  0.2305
   24SAPC  H15A 3122   6.859   1.850  11.150  1.9169 -0.3827 -2.1239
   24SAPC  H15B 3123   6.988   1.964  11.140 -0.3567 -0.4149 -0.5070
   24SAPC  H15C 3124   6.878   1.951  11.279 -0.3030 -0.6793  0.2130
   24SAPC   C11 3125   6.657   2.099  10.881  0.5040 -0.1682 -0.3429
   24SAPC  H11A 3126   6.669   2.098  10.771  1.7304 -2.7144 -0.2779
   24SAPC  H11B 3127   6.654   2.205  10.912 -2.2142  0.6489 -2.9304
   24SAPC     P 3128   6.469   1.919  10.833  0.0241  0.0223 -0.6128
   24SAPC   O13 3129   6.569   1.808  10.822  0.4375 -0.1287 -0.7007
   24SAPC   O14 3130   6.353   1.864  10.905 -0.3187  0.1761  0.0867
   24SAPC   O12 3131   6.527   2.037  10.912  0.3954 -0.1337 -0.2693
   24SAPC   O11 3132   6.440   1.973  10.686  0.2505 -0.0232 -0.2322
   24SAPC    C1 3133   6.381   2.099  10.675 -0.2012  0.4983 -0.5314
   24SAPC    HA 3134   6.294   2.118  10.741  0.1114 -1.0494  0.3685
   24SAPC    HB 3135   6.446   2.181  10.713  0.8883 -0.6895  0.2086
   24SAPC    C2 3136   6.358   2.147  10.528 -0.3594 -0.4998 -0.4566
   24SAPC    HS 3137   6.300   2.241  10.515  0.3469 -0.0360 -0.3485
   24SAPC   O21 3138   6.307   2.040  10.449 -0.2580  0.2503 -0.3648
   24SAPC   C21 3139   6.178   2.019  10.461 -0.0021 -0.2857 -0.2995
   24SAPC   O22 3140   6.106   2.085  10.535  0.0517 -0.1068  0.1387
   24SAPC   C22 3141   6.128   1.901  10.379  0.1836 -0.0642 -0.7681
   24SAPC   H2R 3142   6.217   1.835  10.367  0.8680  0.4538  1.1985
   24SAPC   H2S 3143   6.062   1.844  10.448  0.9658  0.6861  0.6200
   24SAPC    C3 3144   6.501   2.176  10.464 -0.2424  0.2233  1.0987
   24SAPC    HX 3145   6.575   2.093  10.461  0.2744  0.6887  0.5428
   24SAPC    HY 3146   6.559   2.245  10.529  1.1434 -1.6384  1.9298
   24SAPC   O31 3147   6.492   2.236  10.335 -0.0488  0.0179 -0.6295
   24SAPC   C31 3148   6.607   2.248  10.280 -0.2903  0.4387  0.2956
   24SAPC   O32 3149   6.716   2.217  10.338  0.1984  0.1521 -0.1528
   24SAPC   C32 3150   6.606   2.286  10.135  0.3181  0.3226  0.3990
   24SAPC   H2X 3151   6.713   2.300  10.112  0.3291 -0.4087 -0.0401
   24SAPC   H2Y 3152   6.538   2.374  10.133 -2.0220 -1.2744  2.4939
   24SAPC   C23 3153   6.055   1.940  10.247  0.1702 -0.0216 -0.5891
   24SAPC   H3R 3154   5.973   2.014  10.239 -0.5757 -0.8297 -0.5476
   24SAPC   H3S 3155   6.005   1.849  10.208  1.1201 -0.6597 -0.3321
   24SAPC   C24 3156   6.156   1.983  10.144 -0.0142 -1.1274  0.0332
   24SAPC   H4R 3157   6.220   2.062  10.188 -0.1963 -0.3476 -1.0771
   24SAPC   H4S 3158   6.107   2.038  10.061  0.8187  0.0093  0.2703
   24SAPC   C25 3159   6.247   1.877  10.084  0.6094  0.2128  0.1138
   24SAPC   H5R 3160   6.351   1.891  10.116  1.6352  0.4052 -2.9084
   24SAPC   C26 3161   6.205   1.785   9.991  0.0410  0.6530 -0.8081
   24SAPC   H6R 3162   6.277   1.714   9.949  0.3630 -0.3525  1.3207
   24SAPC   C27 3163   6.066   1.757   9.939 -0.2236  0.3584 -0.2418
   24SAPC   H7R 3164   6.023   1.853   9.904  1.1343  2.0243  2.3583
   24SAPC   H7S 3165   6.004   1.716  10.021  0.8629 -0.7592  0.0473
   24SAPC   C28 3166   6.072   1.650   9.820  1.1051  0.0381 -0.2648
   24SAPC   H8R 3167   6.104   1.550   9.854 -0.1912 -0.7796 -1.3549
   24SAPC   C29 3168   6.035   1.664   9.695 -0.6484  0.2181  0.4915
   24SAPC   H9R 3169   6.042   1.582   9.622 -0.6829  1.9960 -1.6198
   24SAPC  C210 3170   5.994   1.786   9.626  0.2921  0.1618 -0.2431
   24SAPC  H10R 3171   6.002   1.880   9.685 -0.0390  1.7328 -2.5550
   24SAPC  H10S 3172   5.887   1.774   9.597  0.3356 -0.3897 -0.1802
   24SAPC  C211 3173   6.079   1.826   9.505  0.8957 -0.6301  0.2237
   24SAPC  H11R 3174   6.176   1.861   9.543 -0.1062  0.4677  1.8963
   24SAPC  C212 3175   6.052   1.823   9.372  0.0889 -0.0148  0.3234
   24SAPC  H12R 3176   6.135   1.839   9.301 -1.4023 -0.7544 -1.6873
   24SAPC  C213 3177   5.922   1.782   9.302 -0.8297  0.0526  0.3291
   24SAPC  H13R 3178   5.852   1.726   9.368 -1.4680 -2.7027 -2.4271
   24SAPC  H13S 3179   5.952   1.712   9.222  1.2496  2.1319 -0.8050
   24SAPC  C214 3180   5.849   1.901   9.250  0.3239 -0.0931  0.5521
   24SAPC  H14R 3181   5.856   1.992   9.312 -1.3861  0.2427  0.3064
   24SAPC  C215 3182   5.789   1.918   9.131 -0.2901 -0.0031  0.6573
   24SAPC  H15R 3183   5.753   2.017   9.102 -2.5628 -0.1707  2.5658
   24SAPC  C216 3184   5.769   1.817   9.020  0.1317  0.3751 -0.2378
   24SAPC  H16R 3185   5.667   1.821   8.975 -0.2051  1.8061  0.5890
   24SAPC  H16S 3186   5.774   1.710   9.051  1.2117 -0.1268 -2.0345
   24SAPC  C217 3187   5.877   1.833   8.909 -0.7022  0.4470  0.2663
   24SAPC  H17R 3188   5.859   1.748   8.841 -0.8256  1.0295 -0.4441
   24SAPC  H17S 3189   5.976   1.826   8.959 -1.7273  1.5410  2.5963
   24SAPC  C218 3190   5.865   1.968   8.845 -0.1006  0.2802  0.4914
   24SAPC  H18R 3191   5.926   2.044   8.900  0.1826  0.2207  0.2599
   24SAPC  H18S 3192   5.762   2.009   8.852 -0.4551 -0.6864  1.0689
   24SAPC  C219 3193   5.935   1.977   8.708 -0.5764  0.4302 -0.4251
   24SAPC  H19R 3194   5.950   2.083   8.678  1.1999  0.5049  0.5752
   24SAPC  H19S 3195   5.864   1.927   8.638 -1.3079  0.5423  0.2346
   24SAPC  C220 3196   6.074   1.912   8.703  0.0730  0.0357  0.1714
   24SAPC  H20R 3197   6.108   1.907   8.598  1.0539 -1.9136  0.5330
   24SAPC  H20S 3198   6.053   1.804   8.723 -3.7785  0.7195  0.6157
   24SAPC  H20T 3199   6.154   1.945   8.772  0.6510  1.6552 -1.2124
   24SAPC   C33 3200   6.548   2.176  10.041 -0.3026 -0.0055 -0.5936
   24SAPC   H3X 3201   6.443   2.158  10.071 -0.5193  1.7510 -0.1562
   24SAPC   H3Y 3202   6.612   2.085  10.039 -0.4636 -0.4488  3.9177
   24SAPC   C34 3203   6.538   2.238   9.899  0.6246 -0.1992 -0.8859
   24SAPC   H4X 3204   6.645   2.249   9.869  1.2761 -0.4282  1.1981
   24SAPC   H4Y 3205   6.486   2.336   9.904 -1.7545 -1.3647 -1.3146
   24SAPC   C35 3206   6.477   2.141   9.805 -0.1575  0.3338  0.3491
   24SAPC   H5X 3207   6.370   2.122   9.830  0.1923 -1.4410  0.6411
   24SAPC   H5Y 3208   6.524   2.040   9.807 -2.1793 -0.7300 -1.4072
   24SAPC   C36 3209   6.493   2.191   9.662  0.3581 -0.3040 -0.6368
   24SAPC   H6X 3210   6.601   2.206   9.640  0.2829  0.5161 -0.4933
   24SAPC   H6Y 3211   6.447   2.292   9.659  2.1044  0.5525 -0.3848
   24SAPC   C37 3212   6.418   2.105   9.560  0.3512 -0.2479 -0.2353
   24SAPC   H7X 3213   6.307   2.102   9.567  0.2778  1.0355 -0.5446
   24SAPC   H7Y 3214   6.447   1.999   9.577 -0.6810 -0.2586  1.7465
   24SAPC   C38 3215   6.450   2.160   9.418 -0.6599  0.0386  0.5109
   24SAPC   H8X 3216   6.555   2.145   9.387 -0.8576  0.2919 -0.3226
   24SAPC   H8Y 3217   6.430   2.269   9.419  2.2847  0.6646 -0.9236
   24SAPC   C39 3218   6.354   2.103   9.311  0.0148 -0.3995  0.0939
   24SAPC   H9X 3219   6.247   2.101   9.340 -0.6511 -1.2005 -2.2084
   24SAPC   H9Y 3220   6.374   2.000   9.274 -1.2239 -0.4042 -0.6230
   24SAPC  C310 3221   6.366   2.193   9.181 -0.8242  0.3621 -0.1854
   24SAPC  H10X 3222   6.467   2.184   9.137 -0.7340  0.4790 -0.0025
   24SAPC  H10Y 3223   6.356   2.301   9.208  0.1721  0.6617 -0.9388
   24SAPC  C311 3224   6.254   2.148   9.083 -0.2178 -0.0568  0.3710
   24SAPC  H11X 3225   6.158   2.178   9.129  0.2612  0.1351  1.2620
   24SAPC  H11Y 3226   6.263   2.038   9.073 -0.3930 -0.0493  0.1100
   24SAPC  C312 3227   6.292   2.223   8.952  0.2112 -0.2063 -0.3466
   24SAPC  H12X 3228   6.280   2.330   8.977 -0.2835  0.0773 -1.6849
   24SAPC  H12Y 3229   6.214   2.180   8.885  2.0619 -0.7029 -2.3139
   24SAPC  C313 3230   6.430   2.188   8.891 -0.0492  0.2138 -0.2178
   24SAPC  H13X 3231   6.453   2.087   8.933 -1.7389  0.9720  2.8494
   24SAPC  H13Y 3232   6.513   2.256   8.920  0.4887  0.1077 -1.4617
   24SAPC  C314 3233   6.437   2.187   8.734  0.8917  0.1352 -0.2359
   24SAPC  H14X 3234   6.407   2.292   8.715 -1.4160 -0.3558  0.3489
   24SAPC  H14Y 3235   6.360   2.120   8.691  2.7117 -2.0173 -0.2949
   24SAPC  C315 3236   6.580   2.156   8.671  0.2483 -0.6634 -0.0530
   24SAPC  H15X 3237   6.659   2.210   8.727 -1.0788 -0.4166  1.6641
   24SAPC  H15Y 3238   6.564   2.213   8.577 -1.8958 -0.0069  0.6417
   24SAPC  C316 3239   6.616   2.011   8.651  0.1610 -0.4818  0.1474
   24SAPC  H16X 3240   6.721   1.986   8.625 -0.1331 -0.4857 -1.1498
   24SAPC  H16Y 3241   6.556   1.988   8.559 -1.7854 -1.9010  1.6791
   24SAPC  C317 3242   6.570   1.905   8.755 -0.2692 -0.9283 -0.0137
   24SAPC  H17X 3243   6.462   1.921   8.779 -0.5070 -1.2864 -0.8261
   24SAPC  H17Y 3244   6.620   1.914   8.854  2.7330 -1.0643 -1.4145
   24SAPC  C318 3245   6.578   1.761   8.707 -0.0219  0.7476  0.4992
   24SAPC  H18X 3246   6.494   1.744   8.636 -1.1152  1.5754  1.5428
   24SAPC  H18Y 3247   6.563   1.675   8.777  0.7252 -1.3644 -1.7932
   24SAPC  H18Z 3248   6.676   1.738   8.661 -0.0144 -0.9027  1.2748
   25SAPC     N 3249   4.942   4.581   5.825  0.1666  0.5468  0.3133
   25SAPC   C12 3250   5.034   4.622   5.934 -0.4576  0.2699 -0.2619
   25SAPC  H12A 3251   4.978   4.690   5.997 -0.3355  0.6852 -0.5966
   25SAPC  H12B 3252   5.121   4.670   5.891  0.0852  0.2876  0.8167
   25SAPC   C13 3253   4.831   4.493   5.882 -0.4926 -0.5277  0.4919
   25SAPC  H13A 3254   4.868   4.401   5.925 -0.8290 -0.8526  0.0962
   25SAPC  H13B 3255   4.780   4.538   5.966 -0.2480 -1.8431  1.3811
   25SAPC  H13C 3256   4.760   4.487   5.800  1.2349  0.8473 -1.1965
   25SAPC   C14 3257   4.884   4.699   5.749 -0.3924 -0.1198 -0.1952
   25SAPC  H14A 3258   4.849   4.777   5.815 -0.8287 -0.9583  0.5806
   25SAPC  H14B 3259   4.955   4.743   5.680 -1.4011  2.0461  0.0701
   25SAPC  H14C 3260   4.800   4.664   5.692 -0.7999 -0.9280  0.8728
   25SAPC   C15 3261   5.021   4.491   5.726 -0.0391 -0.0783 -0.6224
   25SAPC  H15A 3262   5.115   4.535   5.693  0.6691  0.8380  2.3600
   25SAPC  H15B 3263   5.035   4.396   5.774 -1.6960  0.2516  0.5851
   25SAPC  H15C 3264   4.976   4.478   5.628  0.7458  0.4670 -1.0741
   25SAPC   C11 3265   5.076   4.516   6.044  0.8934 -0.2533  0.2933
   25SAPC  H11A 3266   4.987   4.490   6.105 -0.1358  2.3710  0.0544
   25SAPC  H11B 3267   5.149   4.565   6.112  0.7425 -1.4563  1.3491
   25SAPC     P 3268   5.134   4.267   6.082  0.0220 -0.0610 -0.1375
   25SAPC   O13 3269   5.013   4.182   6.053  0.3716 -0.6713 -0.0197
   25SAPC   O14 3270   5.267   4.195   6.058 -0.1765  0.7325  0.4747
   25SAPC   O12 3271   5.131   4.396   5.989 -0.6220 -0.2210  0.0900
   25SAPC   O11 3272   5.127   4.312   6.225  0.4324  0.5780  0.3988
   25SAPC    C1 3273   5.250   4.353   6.291  1.0908  0.7181  0.0940
   25SAPC    HA 3274   5.328   4.274   6.292  0.0313 -0.3615 -0.2706
   25SAPC    HB 3275   5.287   4.439   6.231  1.7960  0.6753  0.4632
   25SAPC    C2 3276   5.234   4.397   6.433  0.5731  0.2951 -0.0516
   25SAPC    HS 3277   5.334   4.394   6.483  1.1206  0.0200 -1.1336
   25SAPC   O21 3278   5.146   4.317   6.507  0.9846  0.1275  0.5742
   25SAPC   C21 3279   5.184   4.191   6.520 -0.4639  0.4483  0.1233
   25SAPC   O22 3280   5.297   4.146   6.490  0.0846 -0.3238 -0.1832
   25SAPC   C22 3281   5.059   4.111   6.556 -0.5693 -0.2565  1.3943
   25SAPC   H2R 3282   4.967   4.155   6.511 -0.3864  0.7073  1.9376
   25SAPC   H2S 3283   5.066   4.011   6.507  0.7110  0.9379 -1.0564
   25SAPC    C3 3284   5.186   4.549   6.439  0.4005 -0.5336 -0.0124
   25SAPC    HX 3285   5.105   4.552   6.363  0.8847 -0.6236 -0.5437
   25SAPC    HY 3286   5.269   4.618   6.413  1.3933 -0.9718  1.8054
   25SAPC   O31 3287   5.141   4.593   6.567 -0.3571 -0.1601 -0.3947
   25SAPC   C31 3288   5.012   4.597   6.599  0.7429 -0.0941 -0.7035
   25SAPC   O32 3289   4.922   4.551   6.539  0.4705 -0.3323 -0.2674
   25SAPC   C32 3290   4.999   4.675   6.727 -0.1705  0.1776  0.1379
   25SAPC   H2X 3291   4.948   4.770   6.699  0.8388  0.6971  0.0020
   25SAPC   H2Y 3292   5.095   4.707   6.773 -0.4851  1.1264  0.1525
   25SAPC   C23 3293   5.038   4.095   6.710  0.0116 -0.1419 -0.3989
   25SAPC   H3R 3294   5.129   4.044   6.750  0.3763 -0.9687 -2.1907
   25SAPC   H3S 3295   4.957   4.021   6.727 -0.3059  0.2609 -0.1630
   25SAPC   C24 3296   5.002   4.220   6.794 -0.5571  0.3894 -0.1283
   25SAPC   H4R 3297   4.938   4.179   6.875  1.7248 -1.5015  0.8462
   25SAPC   H4S 3298   4.945   4.286   6.725  0.1134 -0.1956 -1.2768
   25SAPC   C25 3299   5.122   4.277   6.850  0.4590 -0.5633 -0.0279
   25SAPC   H5R 3300   5.175   4.356   6.795  2.2423 -0.7836  1.2855
   25SAPC   C26 3301   5.181   4.255   6.973  0.6180 -0.3461 -0.1473
   25SAPC   H6R 3302   5.276   4.307   6.994 -0.2860  1.0406  0.6492
   25SAPC   C27 3303   5.127   4.161   7.080 -1.0641  0.1717  0.1936
   25SAPC   H7R 3304   5.202   4.136   7.157 -0.5620 -0.0571 -0.3622
   25SAPC   H7S 3305   5.094   4.061   7.045 -1.2812  0.2967  0.0365
   25SAPC   C28 3306   5.000   4.218   7.137 -0.1343  0.3269  0.1907
   25SAPC   H8R 3307   4.932   4.255   7.059 -1.1514 -2.7818 -0.5078
   25SAPC   C29 3308   4.954   4.221   7.266  0.4157  0.4430 -0.3017
   25SAPC   H9R 3309   4.848   4.241   7.287  0.2338 -0.5870 -0.1644
   25SAPC  C210 3310   5.036   4.168   7.380 -0.0180 -0.5476 -0.3397
   25SAPC  H10R 3311   5.139   4.129   7.363  1.0133  1.2978  1.2772
   25SAPC  H10S 3312   4.993   4.073   7.419  0.8749 -0.2936  1.3420
   25SAPC  C211 3313   5.044   4.270   7.492  0.0796 -0.1074  0.4919
   25SAPC  H11R 3314   5.004   4.367   7.457 -0.2268 -0.2773  0.3637
   25SAPC  C212 3315   5.080   4.253   7.614 -0.5553 -0.0778 -0.3875
   25SAPC  H12R 3316   5.082   4.338   7.684  0.9058  0.3044 -0.8537
   25SAPC  C213 3317   5.132   4.124   7.673 -0.1131  0.0770 -0.2649
   25SAPC  H13R 3318   5.232   4.150   7.713  0.0469  0.2376 -0.7617
   25SAPC  H13S 3319   5.145   4.042   7.599 -0.0388 -2.0727  1.9890
   25SAPC  C214 3320   5.046   4.070   7.781  0.2988  0.3569 -0.6580
   25SAPC  H14R 3321   4.953   4.031   7.739 -0.3610  1.3357 -0.1318
   25SAPC  C215 3322   5.061   4.079   7.911  0.1352 -0.2386 -0.2886
   25SAPC  H15R 3323   4.983   4.050   7.982  0.9165 -0.3638  0.5392
   25SAPC  C216 3324   5.180   4.159   7.978  0.2105  0.4553  0.3572
   25SAPC  H16R 3325   5.227   4.234   7.912  0.5142 -0.3504 -0.3638
   25SAPC  H16S 3326   5.271   4.095   7.978  0.2362  0.4918  0.2450
   25SAPC  C217 3327   5.145   4.213   8.122 -0.2794 -0.1565 -0.2613
   25SAPC  H17R 3328   5.169   4.143   8.204  0.4606  1.9533  1.4001
   25SAPC  H17S 3329   5.043   4.258   8.125  0.1868  0.8675  1.2379
   25SAPC  C218 3330   5.244   4.328   8.155  0.5951  0.2162 -0.3168
   25SAPC  H18R 3331   5.227   4.413   8.086 -1.2801  1.4712  1.5528
   25SAPC  H18S 3332   5.350   4.295   8.143  1.3452  1.9952  0.9174
   25SAPC  C219 3333   5.235   4.386   8.299  0.3937  0.2888  0.1402
   25SAPC  H19R 3334   5.336   4.428   8.317  1.3232 -0.7416 -2.1930
   25SAPC  H19S 3335   5.211   4.305   8.371 -0.6731  0.7439  0.3259
   25SAPC  C220 3336   5.123   4.483   8.305 -0.1947  0.5605  0.1431
   25SAPC  H20R 3337   5.130   4.571   8.236 -0.4008  2.1544  2.0661
   25SAPC  H20S 3338   5.096   4.530   8.402 -1.5467  1.2416 -0.5179
   25SAPC  H20T 3339   5.028   4.429   8.285  1.2858 -1.4560 -1.9847
   25SAPC   C33 3340   4.904   4.606   6.833  0.1607 -0.5668 -0.2010
   25SAPC   H3X 3341   4.950   4.635   6.930  2.1154 -1.5902 -0.7666
   25SAPC   H3Y 3342   4.911   4.496   6.820 -0.4971 -0.4485 -1.7184
   25SAPC   C34 3343   4.751   4.636   6.828  0.3297  0.1502 -0.1870
   25SAPC   H4X 3344   4.712   4.611   6.727 -2.2424  1.0177  0.5086
   25SAPC   H4Y 3345   4.730   4.744   6.845 -1.2343  0.0914 -1.4798
   25SAPC   C35 3346   4.673   4.549   6.926 -0.1299  0.2289  0.1608
   25SAPC   H5X 3347   4.674   4.440   6.901 -2.3865 -0.3647  2.2765
   25SAPC   H5Y 3348   4.565   4.570   6.915 -0.3817 -1.6472 -1.6947
   25SAPC   C36 3349   4.721   4.572   7.070 -0.6789  0.2113 -0.2154
   25SAPC   H6X 3350   4.702   4.679   7.095 -1.2735  0.2014 -0.6228
   25SAPC   H6Y 3351   4.830   4.555   7.085 -0.5259  0.4975 -0.9730
   25SAPC   C37 3352   4.645   4.483   7.161  0.0591 -0.0767 -0.0965
   25SAPC   H7X 3353   4.669   4.375   7.148  2.0257  0.1288  1.3738
   25SAPC   H7Y 3354   4.537   4.491   7.135 -0.1748 -1.8526  0.2271
   25SAPC   C38 3355   4.660   4.526   7.304 -0.6299 -0.0964  0.3933
   25SAPC   H8X 3356   4.607   4.622   7.321 -0.9360  0.2727 -2.1286
   25SAPC   H8Y 3357   4.764   4.552   7.330 -1.1416 -0.3834  2.9649
   25SAPC   C39 3358   4.612   4.419   7.403  0.0553 -0.0720 -0.1837
   25SAPC   H9X 3359   4.647   4.317   7.376 -1.7553 -1.3164  1.8173
   25SAPC   H9Y 3360   4.501   4.415   7.402 -0.0077  0.9418  0.5187
   25SAPC  C310 3361   4.665   4.451   7.546 -0.0705  0.6853  0.7733
   25SAPC  H10X 3362   4.674   4.561   7.560  2.5578  0.9107 -1.7353
   25SAPC  H10Y 3363   4.767   4.408   7.554 -0.3552  0.0578  1.1265
   25SAPC  C311 3364   4.582   4.397   7.654  0.1272  0.6848 -0.3053
   25SAPC  H11X 3365   4.573   4.289   7.631 -1.2908  0.7008  0.0822
   25SAPC  H11Y 3366   4.478   4.434   7.653 -1.4304 -3.2060 -1.0972
   25SAPC  C312 3367   4.647   4.400   7.797  0.5593 -0.0064 -0.6241
   25SAPC  H12X 3368   4.664   4.507   7.819 -1.4234 -0.1003  1.7692
   25SAPC  H12Y 3369   4.751   4.359   7.794  0.6766  0.2949 -0.6693
   25SAPC  C313 3370   4.551   4.332   7.891  0.3210  0.3445 -0.6050
   25SAPC  H13X 3371   4.514   4.240   7.842  0.7935 -1.0166  1.4776
   25SAPC  H13Y 3372   4.468   4.403   7.911 -0.7638  0.0355 -3.5219
   25SAPC  C314 3373   4.616   4.284   8.026 -0.0354 -0.3547  0.2084
   25SAPC  H14X 3374   4.715   4.239   8.000 -0.5372 -0.3707 -1.8527
   25SAPC  H14Y 3375   4.550   4.217   8.085  1.7193 -1.6216  0.8414
   25SAPC  C315 3376   4.637   4.414   8.113 -0.4476  0.0825 -0.0595
   25SAPC  H15X 3377   4.538   4.441   8.157  0.9451 -0.8764  4.1039
   25SAPC  H15Y 3378   4.659   4.504   8.052 -0.1935  1.8851  2.5513
   25SAPC  C316 3379   4.732   4.395   8.240 -0.3127  0.5010 -0.5611
   25SAPC  H16X 3380   4.835   4.411   8.200 -0.5438  0.1369 -1.3132
   25SAPC  H16Y 3381   4.730   4.294   8.287 -0.8869  1.9285  2.7742
   25SAPC  C317 3382   4.710   4.505   8.343  0.1816 -0.5738  0.8037
   25SAPC  H17X 3383   4.602   4.516   8.367  0.2824  3.0079  0.2443
   25SAPC  H17Y 3384   4.743   4.601   8.297 -0.6915 -1.7881 -2.7044
   25SAPC  C318 3385   4.781   4.474   8.472 -0.5801 -0.3821  0.2654
   25SAPC  H18X 3386   4.886   4.445   8.452 -0.3584  0.6407 -0.1338
   25SAPC  H18Y 3387   4.730   4.392   8.527  0.0151  0.2145  1.7518
   25SAPC  H18Z 3388   4.786   4.562   8.539 -1.3548  0.7151 -1.0648
   26SAPC     N 3389   4.795   2.046   6.506 -0.3657 -0.0721  0.1476
   26SAPC   C12 3390   4.682   2.104   6.584  0.0332 -1.0687  0.0173
   26SAPC  H12A 3391   4.730   2.138   6.674  0.1495  1.9500 -1.0506
   26SAPC  H12B 3392   4.614   2.030   6.624 -0.6098  1.1086  3.3761
   26SAPC   C13 3393   4.739   1.974   6.389  0.1633  0.0866 -0.6712
   26SAPC  H13A 3394   4.656   2.027   6.345 -1.1597 -1.8245 -0.5993
   26SAPC  H13B 3395   4.824   1.964   6.323  0.7343 -1.0115  0.1965
   26SAPC  H13C 3396   4.696   1.879   6.417  0.1989 -0.1122 -1.2748
   26SAPC   C14 3397   4.887   2.165   6.472 -0.0195 -0.3914 -0.9867
   26SAPC  H14A 3398   4.827   2.239   6.420 -2.5108 -1.6825 -0.0977
   26SAPC  H14B 3399   4.920   2.218   6.560  1.2952 -0.5827 -1.3409
   26SAPC  H14C 3400   4.978   2.139   6.420  0.4647  0.1045 -0.3963
   26SAPC   C15 3401   4.874   1.946   6.585  0.4883  0.2953  0.2257
   26SAPC  H15A 3402   4.930   1.881   6.520  0.2769 -2.5662  2.6438
   26SAPC  H15B 3403   4.938   1.989   6.661 -1.1824  1.4194  1.0672
   26SAPC  H15C 3404   4.807   1.874   6.630  2.3650 -1.9248 -0.3671
   26SAPC   C11 3405   4.596   2.218   6.512 -0.1470  0.1650 -0.2140
   26SAPC  H11A 3406   4.665   2.304   6.498  0.1808 -0.5874 -4.4155
   26SAPC  H11B 3407   4.525   2.258   6.588 -0.4976 -1.4058  0.3071
   26SAPC     P 3408   4.393   2.108   6.402 -0.0550 -0.4429  0.0244
   26SAPC   O13 3409   4.277   2.193   6.433 -0.8849  0.5416 -0.0432
   26SAPC   O14 3410   4.379   2.023   6.284  0.3802 -0.3254 -0.4280
   26SAPC   O12 3411   4.530   2.192   6.387  0.4153  0.2793 -0.4115
   26SAPC   O11 3412   4.416   2.024   6.532  0.3827 -0.0763  0.4336
   26SAPC    C1 3413   4.349   1.905   6.559 -0.2349 -0.0173  0.0423
   26SAPC    HA 3414   4.243   1.891   6.530  0.7344 -4.3129 -2.2561
   26SAPC    HB 3415   4.400   1.826   6.500 -0.4110  0.1537 -0.3374
   26SAPC    C2 3416   4.335   1.878   6.708 -0.9333  0.6757 -0.1342
   26SAPC    HS 3417   4.259   1.799   6.724  1.0327 -0.8716  2.4251
   26SAPC   O21 3418   4.308   1.999   6.774  0.6219 -0.8300 -0.1416
   26SAPC   C21 3419   4.188   2.053   6.754  0.1596 -0.3851 -0.8815
   26SAPC   O22 3420   4.090   2.011   6.695 -0.1732  0.4316 -0.0383
   26SAPC   C22 3421   4.205   2.197   6.803 -0.0242 -0.1799 -0.1508
   26SAPC   H2R 3422   4.273   2.213   6.889  0.9410  2.8844 -1.3348
   26SAPC   H2S 3423   4.247   2.253   6.716 -0.3398  2.2653  1.1882
   26SAPC    C3 3424   4.469   1.811   6.767  0.1577 -0.3739  0.4286
   26SAPC    HX 3425   4.512   1.762   6.677  0.9982  0.9885  0.0737
   26SAPC    HY 3426   4.439   1.739   6.846 -4.1650 -0.4500 -0.9749
   26SAPC   O31 3427   4.567   1.905   6.815  0.0402 -0.7143 -0.1902
   26SAPC   C31 3428   4.571   1.928   6.944  0.8188  0.6264 -0.1420
   26SAPC   O32 3429   4.492   1.878   7.029 -0.5447 -0.1156 -0.3548
   26SAPC   C32 3430   4.669   2.035   6.969 -0.2151  0.0627 -0.9773
   26SAPC   H2X 3431   4.610   2.130   6.967 -0.0879  0.2603  1.5872
   26SAPC   H2Y 3432   4.743   2.045   6.887 -1.3412 -0.5358 -2.1025
   26SAPC   C23 3433   4.064   2.262   6.823 -0.2597 -0.0587 -0.3382
   26SAPC   H3R 3434   3.999   2.237   6.737 -0.8900  2.0910 -0.5494
   26SAPC   H3S 3435   4.074   2.373   6.822  1.3520 -0.0818  2.2280
   26SAPC   C24 3436   3.988   2.228   6.949  0.0554  0.4686 -0.1484
   26SAPC   H4R 3437   3.978   2.118   6.953  2.7861  0.1640  0.3528
   26SAPC   H4S 3438   3.887   2.269   6.930  0.5160  2.3610  1.1832
   26SAPC   C25 3439   4.023   2.278   7.084 -0.8190 -0.2128 -0.2812
   26SAPC   H5R 3440   4.008   2.386   7.100  0.5789 -0.0646  0.1260
   26SAPC   C26 3441   4.063   2.204   7.194  0.2460 -0.6884  0.7266
   26SAPC   H6R 3442   4.075   2.255   7.290 -0.1709  3.4687 -1.2319
   26SAPC   C27 3443   4.088   2.053   7.202  0.4767  0.7264 -0.1284
   26SAPC   H7R 3444   4.055   1.991   7.116  0.7619 -1.2152  1.0994
   26SAPC   H7S 3445   4.034   2.005   7.286 -0.0214  2.0300  0.3125
   26SAPC   C28 3446   4.237   2.025   7.216 -0.1428  0.6355 -0.6487
   26SAPC   H8R 3447   4.293   2.028   7.121  3.0272 -2.3019  0.9007
   26SAPC   C29 3448   4.296   1.999   7.338  0.0263 -0.7955  0.2498
   26SAPC   H9R 3449   4.401   1.965   7.341  0.5004  0.4765 -0.7929
   26SAPC  C210 3450   4.227   1.997   7.475  0.0752 -0.0771  0.2007
   26SAPC  H10R 3451   4.133   1.938   7.467 -1.3156  2.1349 -0.6212
   26SAPC  H10S 3452   4.194   2.099   7.505 -2.0569  0.8084 -4.2795
   26SAPC  C211 3453   4.307   1.927   7.583 -0.7732 -0.2574 -0.0001
   26SAPC  H11R 3454   4.411   1.959   7.597 -1.3959  2.6849 -1.2360
   26SAPC  C212 3455   4.252   1.841   7.673 -0.0604 -0.2537 -0.3504
   26SAPC  H12R 3456   4.314   1.784   7.743 -0.7984 -1.5214 -0.6939
   26SAPC  C213 3457   4.107   1.801   7.686 -0.0252 -0.1173  0.3139
   26SAPC  H13R 3458   4.043   1.886   7.653  1.3570  0.7252 -0.2775
   26SAPC  H13S 3459   4.070   1.774   7.787  0.7201 -1.8957  0.1480
   26SAPC  C214 3460   4.078   1.688   7.587  0.0495 -0.1997 -0.3001
   26SAPC  H14R 3461   4.148   1.604   7.580 -0.0135 -0.2237 -0.6810
   26SAPC  C215 3462   3.979   1.692   7.492 -0.4326 -0.2986 -0.0069
   26SAPC  H15R 3463   3.965   1.607   7.424  0.6955 -0.6252  0.1483
   26SAPC  C216 3464   3.880   1.798   7.470 -0.2907 -0.0614  0.0230
   26SAPC  H16R 3465   3.895   1.845   7.371 -1.8387  0.1005 -0.1528
   26SAPC  H16S 3466   3.879   1.873   7.552  0.9804 -0.6430  0.5921
   26SAPC  C217 3467   3.733   1.746   7.447  0.2413  0.1441 -0.6684
   26SAPC  H17R 3468   3.715   1.688   7.354 -0.2006 -0.3459 -0.2801
   26SAPC  H17S 3469   3.671   1.838   7.453  1.4168  0.8967  0.6443
   26SAPC  C218 3470   3.681   1.643   7.548  0.1007 -0.5041 -0.4864
   26SAPC  H18R 3471   3.678   1.699   7.644 -0.5183  0.0705 -0.8226
   26SAPC  H18S 3472   3.747   1.556   7.532  1.9648  0.7448  0.1332
   26SAPC  C219 3473   3.542   1.591   7.525  0.4317  0.0731 -0.2676
   26SAPC  H19R 3474   3.543   1.491   7.573 -2.0236 -0.1246 -0.5043
   26SAPC  H19S 3475   3.519   1.591   7.416  0.3670 -0.0730 -0.2533
   26SAPC  C220 3476   3.435   1.685   7.588  0.3328 -0.1439  0.6223
   26SAPC  H20R 3477   3.454   1.698   7.696  1.2152 -0.4105  0.5061
   26SAPC  H20S 3478   3.327   1.662   7.570 -0.1885  3.4836 -2.0735
   26SAPC  H20T 3479   3.449   1.783   7.538  0.9447  0.2201  1.4878
   26SAPC   C33 3480   4.756   2.038   7.100 -0.3328  0.0219 -0.2290
   26SAPC   H3X 3481   4.813   2.134   7.094 -0.2044 -0.0739 -0.5221
   26SAPC   H3Y 3482   4.825   1.952   7.090  0.1231  0.4742 -1.1088
   26SAPC   C34 3483   4.685   2.037   7.233  0.8125 -0.1930  0.3061
   26SAPC   H4X 3484   4.602   1.963   7.239  0.9733 -0.3287  0.8498
   26SAPC   H4Y 3485   4.643   2.139   7.245  0.6777 -0.0065 -1.4587
   26SAPC   C35 3486   4.781   2.017   7.347  0.7519 -0.2182  0.3032
   26SAPC   H5X 3487   4.850   2.105   7.350  3.4904 -2.2213 -0.3205
   26SAPC   H5Y 3488   4.843   1.928   7.323  0.0641 -0.6597  0.1387
   26SAPC   C36 3489   4.715   2.003   7.488  0.1273 -0.5022 -0.4411
   26SAPC   H6X 3490   4.646   1.915   7.490 -1.2629  0.5564 -0.4463
   26SAPC   H6Y 3491   4.654   2.093   7.506  1.1510  0.0153  0.5279
   26SAPC   C37 3492   4.822   1.984   7.592 -0.8964  0.0528  0.5036
   26SAPC   H7X 3493   4.868   2.086   7.588 -1.6025  0.3355 -0.6848
   26SAPC   H7Y 3494   4.897   1.914   7.549 -1.0314  0.2496 -0.0672
   26SAPC   C38 3495   4.779   1.936   7.729  0.0448 -0.6274 -0.3815
   26SAPC   H8X 3496   4.865   1.916   7.797 -0.7912 -0.7369  0.6611
   26SAPC   H8Y 3497   4.728   1.838   7.718 -1.7154  0.1220  0.7741
   26SAPC   C39 3498   4.677   2.027   7.817 -0.0879  0.2923  0.7878
   26SAPC   H9X 3499   4.593   2.051   7.749 -0.2594  1.0088  1.2372
   26SAPC   H9Y 3500   4.711   2.127   7.851 -2.5898  1.1813  0.8853
   26SAPC  C310 3501   4.617   1.959   7.938 -0.1153 -0.6615 -0.1696
   26SAPC  H10X 3502   4.700   1.934   8.007  0.0776  1.0863  0.2612
   26SAPC  H10Y 3503   4.587   1.860   7.896  1.2265 -1.3889  0.5272
   26SAPC  C311 3504   4.511   2.035   8.003  0.0946  0.3460 -0.6179
   26SAPC  H11X 3505   4.438   2.079   7.932 -2.1760 -1.9862  0.0781
   26SAPC  H11Y 3506   4.563   2.116   8.058  0.6716 -0.2488 -0.2659
   26SAPC  C312 3507   4.424   1.955   8.108  0.2801  0.3688 -0.3164
   26SAPC  H12X 3508   4.490   1.886   8.165  0.1299  1.9178  1.8601
   26SAPC  H12Y 3509   4.350   1.897   8.049  2.1889 -2.8881  0.2823
   26SAPC  C313 3510   4.347   2.044   8.205 -0.7746 -0.8752  0.3373
   26SAPC  H13X 3511   4.414   2.115   8.258  0.3030  0.4731 -2.6281
   26SAPC  H13Y 3512   4.295   1.982   8.282 -1.8503  0.3188  0.6171
   26SAPC  C314 3513   4.243   2.133   8.135 -0.7766 -0.1932 -0.0954
   26SAPC  H14X 3514   4.171   2.054   8.105  0.2807 -2.9159  3.7039
   26SAPC  H14Y 3515   4.297   2.183   8.052 -1.1618  0.0416 -0.2041
   26SAPC  C315 3516   4.170   2.230   8.231 -0.8506 -0.0239 -0.3707
   26SAPC  H15X 3517   4.237   2.304   8.280 -2.4110  1.5920 -0.5693
   26SAPC  H15Y 3518   4.119   2.169   8.308 -0.2281  0.3958  0.3920
   26SAPC  C316 3519   4.071   2.329   8.161  0.1832 -0.8019 -0.4515
   26SAPC  H16X 3520   3.999   2.276   8.095  0.8453 -3.6775  0.9462
   26SAPC  H16Y 3521   4.138   2.381   8.090  1.5892 -0.3791  1.1162
   26SAPC  C317 3522   4.012   2.429   8.252 -0.2688  0.0576 -0.9007
   26SAPC  H17X 3523   3.945   2.492   8.189  0.8685  0.3425 -1.8551
   26SAPC  H17Y 3524   4.090   2.488   8.305 -0.9239 -0.5273  0.7810
   26SAPC  C318 3525   3.922   2.361   8.360  0.8826  0.4365  0.2686
   26SAPC  H18X 3526   3.873   2.434   8.428 -0.1287 -0.2441  0.2942
   26SAPC  H18Y 3527   3.983   2.298   8.428  0.9227  0.2753  0.0849
   26SAPC  H18Z 3528   3.849   2.297   8.306  2.6237 -0.4508 -1.1421
   27SAPC     N 3529   1.789   0.366   6.440  0.4534  0.7189  0.1657
   27SAPC   C12 3530   1.825   0.510   6.485  0.0386  0.6342 -0.1057
   27SAPC  H12A 3531   1.738   0.551   6.534 -0.9112 -0.0965 -1.1389
   27SAPC  H12B 3532   1.835   0.578   6.402 -2.2378  0.8807 -0.2206
   27SAPC   C13 3533   1.662   0.357   6.358  0.0384 -0.1485 -0.3122
   27SAPC  H13A 3534   1.679   0.395   6.258 -0.4462  1.2436  0.1044
   27SAPC  H13B 3535   1.636   0.252   6.351 -0.4788 -0.0183 -0.3683
   27SAPC  H13C 3536   1.583   0.423   6.391  0.1603 -0.0056 -0.3051
   27SAPC   C14 3537   1.908   0.326   6.361 -0.2081  0.2336  0.4826
   27SAPC  H14A 3538   1.921   0.386   6.272  0.9387 -0.6186  0.0524
   27SAPC  H14B 3539   1.997   0.344   6.420  0.6334  1.1520 -1.0043
   27SAPC  H14C 3540   1.901   0.223   6.329  1.7934  0.4690 -0.8579
   27SAPC   C15 3541   1.766   0.276   6.557  0.0192 -0.1248  0.0124
   27SAPC  H15A 3542   1.754   0.174   6.522  1.1938 -0.5166  0.6882
   27SAPC  H15B 3543   1.852   0.274   6.622  1.0713 -0.1092 -1.3508
   27SAPC  H15C 3544   1.673   0.298   6.608 -0.5009  2.2027 -1.7501
   27SAPC   C11 3545   1.949   0.531   6.582  0.3239 -0.1855  0.3147
   27SAPC  H11A 3546   1.923   0.459   6.662 -2.6243  0.1914 -0.1709
   27SAPC  H11B 3547   1.957   0.631   6.630 -0.9721  0.6785 -1.1346
   27SAPC     P 3548   2.198   0.579   6.545  0.1773 -0.5347 -0.3014
   27SAPC   O13 3549   2.320   0.504   6.507 -0.7959 -0.6036 -0.2487
   27SAPC   O14 3550   2.181   0.707   6.473 -0.1969 -0.2326  0.4824
   27SAPC   O12 3551   2.073   0.497   6.523 -0.4552 -0.1908  0.5805
   27SAPC   O11 3552   2.208   0.605   6.702 -0.9498  0.2059  0.1561
   27SAPC    C1 3553   2.203   0.489   6.787 -0.1223  0.1906 -0.3722
   27SAPC    HA 3554   2.112   0.428   6.770 -0.3418 -0.1428  1.7333
   27SAPC    HB 3555   2.290   0.420   6.782  0.8987  1.4961 -1.3882
   27SAPC    C2 3556   2.197   0.522   6.946 -0.4791  0.3207  0.7992
   27SAPC    HS 3557   2.159   0.433   7.001 -3.9337  1.3628  0.2993
   27SAPC   O21 3558   2.106   0.631   6.968 -0.1469  0.2750  0.1857
   27SAPC   C21 3559   1.986   0.602   6.979 -0.3088 -0.0827  1.1566
   27SAPC   O22 3560   1.930   0.496   6.998 -0.7695  0.1635 -0.0656
   27SAPC   C22 3561   1.919   0.737   6.979  0.5729 -0.5907  0.1202
   27SAPC   H2R 3562   1.975   0.791   6.900  2.0934  2.5351  3.1010
   27SAPC   H2S 3563   1.810   0.732   6.954  0.4996 -0.4654  0.4133
   27SAPC    C3 3564   2.341   0.552   6.998 -0.0978 -0.2957 -0.8082
   27SAPC    HX 3565   2.382   0.649   6.965  0.9933 -0.2642  0.5665
   27SAPC    HY 3566   2.422   0.487   6.959 -0.4546 -0.7402 -0.8299
   27SAPC   O31 3567   2.342   0.537   7.146  0.1118 -0.3962 -0.3705
   27SAPC   C31 3568   2.312   0.642   7.212 -1.0594 -0.5673 -0.4962
   27SAPC   O32 3569   2.297   0.756   7.167 -0.2448  0.3380 -0.4856
   27SAPC   C32 3570   2.285   0.605   7.355 -0.2265 -0.7222 -0.4733
   27SAPC   H2X 3571   2.306   0.691   7.422 -2.2228 -0.2363 -0.4015
   27SAPC   H2Y 3572   2.356   0.526   7.390  2.0617  1.5874  0.4670
   27SAPC   C23 3573   1.944   0.821   7.110  0.0981 -0.0207 -0.5821
   27SAPC   H3R 3574   1.934   0.930   7.091 -1.3149  0.1019  0.6419
   27SAPC   H3S 3575   2.041   0.795   7.158 -0.7952 -3.5311 -0.4005
   27SAPC   C24 3576   1.831   0.800   7.220 -0.4586 -0.3803  0.2245
   27SAPC   H4R 3577   1.834   0.701   7.269 -0.1246  0.6058  2.3264
   27SAPC   H4S 3578   1.739   0.794   7.158 -0.2298 -2.2534  0.0107
   27SAPC   C25 3579   1.823   0.913   7.319  0.3203  0.3601  0.4514
   27SAPC   H5R 3580   1.810   1.014   7.276 -1.6998 -0.0113  0.0990
   27SAPC   C26 3581   1.799   0.908   7.452  1.0091 -0.3177 -0.8270
   27SAPC   H6R 3582   1.779   1.004   7.502  2.5612  0.1547 -1.0666
   27SAPC   C27 3583   1.773   0.781   7.532  0.0999  0.1448  0.0537
   27SAPC   H7R 3584   1.864   0.766   7.593  0.6174 -1.9129 -1.1432
   27SAPC   H7S 3585   1.764   0.699   7.459 -1.9443  0.8592 -0.5570
   27SAPC   C28 3586   1.644   0.759   7.610 -0.3141 -0.7937  0.0154
   27SAPC   H8R 3587   1.555   0.814   7.576 -0.3710  0.5916  2.1894
   27SAPC   C29 3588   1.631   0.699   7.732 -0.4250 -0.2343 -0.1403
   27SAPC   H9R 3589   1.530   0.690   7.776 -0.2365 -2.6147 -0.0882
   27SAPC  C210 3590   1.738   0.635   7.816 -0.8818  0.6489  0.4852
   27SAPC  H10R 3591   1.842   0.663   7.789 -1.5696  1.1445 -1.8247
   27SAPC  H10S 3592   1.727   0.527   7.794 -1.7099  0.6550  0.8019
   27SAPC  C211 3593   1.734   0.656   7.963  0.0946  0.3399 -0.0107
   27SAPC  H11R 3594   1.794   0.740   8.001 -1.1339  0.8085  0.9522
   27SAPC  C212 3595   1.670   0.575   8.053  0.0757 -0.3745  0.7224
   27SAPC  H12R 3596   1.691   0.589   8.160 -0.0374  0.8382  0.5965
   27SAPC  C213 3597   1.591   0.452   8.018 -0.4584  0.2163  0.2663
   27SAPC  H13R 3598   1.667   0.373   8.035  0.8178  1.8293  2.5776
   27SAPC  H13S 3599   1.558   0.449   7.912  1.0412  2.0188 -0.2995
   27SAPC  C214 3600   1.477   0.425   8.113 -0.2185  1.7203 -0.0295
   27SAPC  H14R 3601   1.495   0.330   8.166  2.5894  1.8571 -0.5858
   27SAPC  C215 3602   1.356   0.485   8.119 -0.3580 -0.5537  0.3997
   27SAPC  H15R 3603   1.286   0.456   8.199 -0.2981 -2.8821 -0.3107
   27SAPC  C216 3604   1.315   0.604   8.027 -0.5783  1.1268 -0.1956
   27SAPC  H16R 3605   1.218   0.582   7.977 -0.8877  1.4992  0.2232
   27SAPC  H16S 3606   1.384   0.632   7.945 -2.2954  1.4989 -1.5776
   27SAPC  C217 3607   1.277   0.729   8.114 -0.2361  0.1240 -0.1290
   27SAPC  H17R 3608   1.367   0.776   8.160 -1.7564  1.2642  1.8234
   27SAPC  H17S 3609   1.211   0.713   8.202  1.0310  0.4394  0.9003
   27SAPC  C218 3610   1.208   0.841   8.024 -0.5945  0.1860 -0.2780
   27SAPC  H18R 3611   1.267   0.870   7.935  1.5084  1.3828  1.3883
   27SAPC  H18S 3612   1.191   0.926   8.094 -2.0457  1.3115 -1.9127
   27SAPC  C219 3613   1.063   0.798   7.993  0.4770 -0.3783 -0.1194
   27SAPC  H19R 3614   1.012   0.759   8.084  0.3457 -0.9613 -0.4345
   27SAPC  H19S 3615   1.067   0.720   7.913 -0.1849  0.3794 -0.9159
   27SAPC  C220 3616   0.975   0.911   7.926  0.4611 -0.1853  0.4710
   27SAPC  H20R 3617   0.895   0.862   7.867 -0.8669  2.2090  0.1233
   27SAPC  H20S 3618   1.050   0.965   7.865  0.0330  2.4523  2.1118
   27SAPC  H20T 3619   0.938   0.989   7.997 -0.3628  1.7569 -1.9437
   27SAPC   C33 3620   2.134   0.565   7.375 -0.4795 -0.7129  0.2015
   27SAPC   H3X 3621   2.103   0.486   7.304 -0.7514 -0.2907 -0.1496
   27SAPC   H3Y 3622   2.081   0.659   7.350  2.2067  0.3524 -1.9859
   27SAPC   C34 3623   2.092   0.526   7.518  0.2903 -0.2067  0.6276
   27SAPC   H4X 3624   2.003   0.590   7.539  0.8858  1.4732 -1.6129
   27SAPC   H4Y 3625   2.161   0.562   7.597  0.5226  0.2521  0.2206
   27SAPC   C35 3626   2.064   0.373   7.534 -0.4339 -0.1929 -0.2172
   27SAPC   H5X 3627   2.160   0.320   7.515  0.2615  1.7700 -2.7910
   27SAPC   H5Y 3628   1.986   0.339   7.462 -1.0701 -1.9858  1.2398
   27SAPC   C36 3629   2.012   0.344   7.676 -0.7047  0.3591 -0.0447
   27SAPC   H6X 3630   1.979   0.238   7.673  1.3385 -0.3787  1.3340
   27SAPC   H6Y 3631   1.926   0.411   7.698 -0.0209  0.8111  1.4482
   27SAPC   C37 3632   2.120   0.359   7.785 -0.0432 -0.0889 -0.0444
   27SAPC   H7X 3633   2.146   0.467   7.782  1.0864 -0.3203  0.7448
   27SAPC   H7Y 3634   2.214   0.303   7.768 -0.1543 -0.5396  0.7608
   27SAPC   C38 3635   2.070   0.343   7.934 -0.4624 -0.6651  0.1745
   27SAPC   H8X 3636   2.006   0.252   7.936  0.0329 -1.0256 -0.1515
   27SAPC   H8Y 3637   2.012   0.437   7.951  0.9133  0.3273 -0.4113
   27SAPC   C39 3638   2.183   0.355   8.038  0.2756 -0.1418 -0.1571
   27SAPC   H9X 3639   2.231   0.452   8.011  0.6110 -0.4603 -0.7180
   27SAPC   H9Y 3640   2.263   0.282   8.014  0.1103 -0.8171  1.2719
   27SAPC  C310 3641   2.131   0.350   8.187 -0.2570 -0.3372  0.5230
   27SAPC  H10X 3642   2.079   0.251   8.191 -0.3767 -0.4179 -1.6445
   27SAPC  H10Y 3643   2.052   0.427   8.199 -1.3071 -1.2824 -0.1179
   27SAPC  C311 3644   2.244   0.348   8.291  0.4102  1.2875  0.7545
   27SAPC  H11X 3645   2.321   0.418   8.251  0.5935  1.2394  1.0199
   27SAPC  H11Y 3646   2.284   0.245   8.304 -1.4035 -0.1603 -3.4423
   27SAPC  C312 3647   2.198   0.405   8.429  0.4735  0.4158  0.0163
   27SAPC  H12X 3648   2.126   0.340   8.483  0.5220  2.4038  2.6722
   27SAPC  H12Y 3649   2.145   0.501   8.412  2.4740  1.5152 -0.3502
   27SAPC  C313 3650   2.314   0.414   8.525  0.2979  0.1594  0.3844
   27SAPC  H13X 3651   2.384   0.497   8.499  1.0726 -0.1676  1.3571
   27SAPC  H13Y 3652   2.373   0.321   8.504  0.6394  0.5076 -0.2334
   27SAPC  C314 3653   2.269   0.411   8.672  0.3273  0.0598 -0.2568
   27SAPC  H14X 3654   2.209   0.317   8.675  1.8297 -0.9301  0.2156
   27SAPC  H14Y 3655   2.214   0.506   8.690  1.7391  0.9370 -0.4618
   27SAPC  C315 3656   2.379   0.392   8.766  0.0536 -0.4440  0.0175
   27SAPC  H15X 3657   2.429   0.489   8.784 -1.0361  0.3511 -1.1015
   27SAPC  H15Y 3658   2.451   0.324   8.717  0.5164  0.3786 -0.4489
   27SAPC  C316 3659   2.327   0.336   8.904  0.9498 -0.5178  0.4162
   27SAPC  H16X 3660   2.278   0.239   8.879 -0.2236  0.3229 -0.6697
   27SAPC  H16Y 3661   2.256   0.413   8.940  0.4899 -0.1505 -1.2080
   27SAPC  C317 3662   2.444   0.320   8.995  0.4666 -0.4597  0.1373
   27SAPC  H17X 3663   2.478   0.418   9.037 -0.9094 -0.0516  0.3363
   27SAPC  H17Y 3664   2.527   0.272   8.938  1.0511  0.1432  0.4642
   27SAPC  C318 3665   2.405   0.248   9.124  0.1045 -0.4277  0.5176
   27SAPC  H18X 3666   2.495   0.239   9.189  0.1732  0.7279  0.6060
   27SAPC  H18Y 3667   2.373   0.145   9.099 -1.7004  0.2231  0.0182
   27SAPC  H18Z 3668   2.329   0.304   9.181 -0.7836 -1.4214  0.3395
   28SAPC     N 3669   2.791   5.618   6.469  0.7412 -0.0613 -0.3664
   28SAPC   C12 3670   2.687   5.728   6.451  0.1849 -0.3793  0.5805
   28SAPC  H12A 3671   2.724   5.799   6.379 -1.7743  0.2451  0.1540
   28SAPC  H12B 3672   2.680   5.779   6.546  3.7308  0.1081  0.7252
   28SAPC   C13 3673   2.743   5.496   6.531  0.0402 -0.3056 -0.6861
   28SAPC  H13A 3674   2.676   5.522   6.612  1.2764 -1.8138  0.9120
   28SAPC  H13B 3675   2.677   5.438   6.469 -1.1128 -0.7235  0.8618
   28SAPC  H13C 3676   2.818   5.428   6.567  2.0364  1.3687 -1.4761
   28SAPC   C14 3677   2.844   5.587   6.341 -0.4199 -0.5811  1.0247
   28SAPC  H14A 3678   2.768   5.589   6.264  2.0629 -1.2498 -1.6138
   28SAPC  H14B 3679   2.914   5.666   6.319 -2.0433  1.2456  2.0682
   28SAPC  H14C 3680   2.907   5.500   6.335 -0.5156 -0.5702 -0.3749
   28SAPC   C15 3681   2.913   5.674   6.545  0.3807  0.7005 -0.3376
   28SAPC  H15A 3682   2.989   5.597   6.552  0.0687  0.5654  2.6302
   28SAPC  H15B 3683   2.960   5.759   6.499 -0.2278  1.3093  0.1357
   28SAPC  H15C 3684   2.891   5.689   6.650 -0.1413  0.7728 -0.4507
   28SAPC   C11 3685   2.552   5.682   6.406  0.3310 -0.4468  0.2809
   28SAPC  H11A 3686   2.497   5.779   6.401  1.6770  0.3436  0.3589
   28SAPC  H11B 3687   2.508   5.608   6.476 -0.5462  0.4722  0.7390
   28SAPC     P 3688   2.453   5.506   6.237  0.2291  0.0853  0.3923
   28SAPC   O13 3689   2.321   5.544   6.294  0.2600  0.2319  0.4234
   28SAPC   O14 3690   2.466   5.477   6.089  0.3274  1.0225 -0.2472
   28SAPC   O12 3691   2.559   5.622   6.270  0.2959  0.1781 -0.0128
   28SAPC   O11 3692   2.511   5.392   6.321 -0.0850  0.4488  0.3755
   28SAPC    C1 3693   2.572   5.270   6.280 -0.0487 -0.1491 -0.3370
   28SAPC    HA 3694   2.531   5.237   6.182  0.5037 -0.0204 -0.6113
   28SAPC    HB 3695   2.681   5.281   6.262 -0.1901 -0.4203 -1.4244
   28SAPC    C2 3696   2.555   5.155   6.380 -0.4273 -1.0346  0.2298
   28SAPC    HS 3697   2.453   5.170   6.423 -1.0896 -0.8740 -1.3276
   28SAPC   O21 3698   2.661   5.177   6.479  0.1061 -0.4174  0.2577
   28SAPC   C21 3699   2.624   5.156   6.603  0.4000  0.0620  0.0446
   28SAPC   O22 3700   2.506   5.139   6.640 -0.7721  0.0671 -0.2616
   28SAPC   C22 3701   2.734   5.142   6.698 -0.0474 -0.0912  0.3088
   28SAPC   H2R 3702   2.802   5.059   6.667  0.8086 -0.5706  3.1554
   28SAPC   H2S 3703   2.802   5.229   6.685 -1.9187  1.3167 -0.3555
   28SAPC    C3 3704   2.563   5.016   6.324  0.1128 -0.6873 -0.3187
   28SAPC    HX 3705   2.665   5.021   6.280  1.7227  0.4317  3.1326
   28SAPC    HY 3706   2.490   4.998   6.243 -1.2487  1.4113  0.3677
   28SAPC   O31 3707   2.567   4.918   6.424 -0.3036 -0.2297  0.0692
   28SAPC   C31 3708   2.450   4.887   6.473  0.0407 -0.4092  0.2668
   28SAPC   O32 3709   2.341   4.923   6.426 -0.0682 -0.2464  0.0626
   28SAPC   C32 3710   2.472   4.792   6.599 -0.3362 -0.1798  0.1647
   28SAPC   H2X 3711   2.543   4.838   6.671 -0.5585  1.9102 -0.8937
   28SAPC   H2Y 3712   2.496   4.692   6.557 -2.3447 -0.0295 -1.4880
   28SAPC   C23 3713   2.698   5.128   6.852 -0.1569  0.1271  0.7058
   28SAPC   H3R 3714   2.616   5.193   6.889 -1.4688 -0.6354 -0.7300
   28SAPC   H3S 3715   2.789   5.163   6.904  0.9702 -0.6019 -0.6936
   28SAPC   C24 3716   2.665   4.978   6.883 -0.0093 -0.2328  0.5018
   28SAPC   H4R 3717   2.564   4.951   6.846 -1.4660  1.9044  2.6301
   28SAPC   H4S 3718   2.747   4.918   6.836 -0.6511 -0.8641  0.1619
   28SAPC   C25 3719   2.661   4.957   7.033  0.3734  0.1356  0.7965
   28SAPC   H5R 3720   2.560   4.949   7.076 -0.1576 -1.0351 -0.6191
   28SAPC   C26 3721   2.767   4.931   7.108 -0.1203 -0.0992  0.1419
   28SAPC   H6R 3722   2.748   4.906   7.213 -2.4622 -0.6728 -0.3445
   28SAPC   C27 3723   2.911   4.922   7.054 -0.2867 -0.3613  0.9191
   28SAPC   H7R 3724   2.977   4.978   7.123  0.7093 -3.1987  2.4522
   28SAPC   H7S 3725   2.918   4.982   6.961  0.5728 -0.5556  0.8476
   28SAPC   C28 3726   2.969   4.781   7.030  0.0208  0.1165 -0.6745
   28SAPC   H8R 3727   2.983   4.736   6.931  2.9089  1.0633 -0.7877
   28SAPC   C29 3728   3.016   4.698   7.129  0.6279 -0.2893  0.3712
   28SAPC   H9R 3729   3.056   4.600   7.101 -1.2312 -1.1193  0.4413
   28SAPC  C210 3730   3.031   4.735   7.277  0.4830 -0.3598  0.3055
   28SAPC  H10R 3731   3.022   4.843   7.299  1.3362 -0.2167  0.0083
   28SAPC  H10S 3732   3.137   4.716   7.305  1.0985  0.5210 -1.3412
   28SAPC  C211 3733   2.940   4.651   7.359 -0.0356  0.8366 -0.8640
   28SAPC  H11R 3734   2.874   4.576   7.314  0.7145 -0.4232  0.0797
   28SAPC  C212 3735   2.938   4.662   7.490  0.4787 -0.0325  0.3277
   28SAPC  H12R 3736   2.878   4.589   7.547 -0.8622  0.3636 -0.5558
   28SAPC  C213 3737   3.017   4.757   7.573  0.0501 -0.2424 -0.6000
   28SAPC  H13R 3738   3.058   4.845   7.519 -0.2999  0.3473  0.0697
   28SAPC  H13S 3739   3.109   4.709   7.612  0.6018  2.1418  1.2427
   28SAPC  C214 3740   2.933   4.807   7.697 -0.5230 -0.2665  0.5647
   28SAPC  H14R 3741   2.861   4.885   7.668  0.0948 -0.4005 -1.4843
   28SAPC  C215 3742   2.934   4.771   7.828 -0.5083  0.5282  0.0574
   28SAPC  H15R 3743   2.878   4.834   7.898 -3.7689 -1.2651 -0.7445
   28SAPC  C216 3744   3.028   4.676   7.885 -0.2878 -0.0183 -0.2535
   28SAPC  H16R 3745   3.127   4.668   7.835  1.6372 -0.0261  3.2571
   28SAPC  H16S 3746   2.982   4.576   7.877  1.5135 -0.8629 -0.5869
   28SAPC  C217 3747   3.040   4.696   8.036  0.3026 -0.0399  0.2514
   28SAPC  H17R 3748   2.940   4.697   8.084  0.7881 -3.3227  1.5672
   28SAPC  H17S 3749   3.091   4.793   8.053  0.0858 -0.0672  1.0746
   28SAPC  C218 3750   3.122   4.589   8.104  0.7426 -0.1356 -0.2613
   28SAPC  H18R 3751   3.228   4.592   8.071  0.7871 -2.4433 -0.4901
   28SAPC  H18S 3752   3.074   4.494   8.074  2.0300 -1.3029  1.1793
   28SAPC  C219 3753   3.111   4.591   8.258  0.0969 -0.6651 -0.4707
   28SAPC  H19R 3754   3.147   4.493   8.295  2.4936 -0.4312 -1.9197
   28SAPC  H19S 3755   3.005   4.599   8.288  0.7889  1.2596  1.7449
   28SAPC  C220 3756   3.190   4.701   8.321 -0.1574  0.0907 -0.0777
   28SAPC  H20R 3757   3.153   4.793   8.270 -2.0419  0.0103  1.0480
   28SAPC  H20S 3758   3.300   4.686   8.323 -0.1050  0.5020  1.4564
   28SAPC  H20T 3759   3.170   4.716   8.429  2.1829  0.2289  0.3985
   28SAPC   C33 3760   2.346   4.774   6.684  0.5272  0.9290  0.4091
   28SAPC   H3X 3761   2.273   4.739   6.609  1.4019 -1.8154  0.7216
   28SAPC   H3Y 3762   2.318   4.869   6.736 -0.1113  1.3425 -0.6681
   28SAPC   C34 3763   2.350   4.662   6.787 -0.3474  0.5392  0.1394
   28SAPC   H4X 3764   2.414   4.591   6.732 -0.2182  1.7992 -1.4056
   28SAPC   H4Y 3765   2.245   4.625   6.781  0.0859 -1.4365  2.8823
   28SAPC   C35 3766   2.398   4.700   6.924  0.2187 -0.4713  0.3503
   28SAPC   H5X 3767   2.359   4.800   6.951 -0.6944 -1.0265  1.1146
   28SAPC   H5Y 3768   2.506   4.727   6.916 -0.5229  2.5964 -0.3129
   28SAPC   C36 3769   2.382   4.602   7.041 -0.2805  0.1747 -0.4359
   28SAPC   H6X 3770   2.423   4.500   7.020 -1.2452  0.1279 -2.3524
   28SAPC   H6Y 3771   2.275   4.590   7.071 -0.1696 -0.0443 -0.1284
   28SAPC   C37 3772   2.442   4.653   7.177 -0.5424  0.1209  0.5089
   28SAPC   H7X 3773   2.387   4.740   7.219 -0.3135  1.2485 -1.3801
   28SAPC   H7Y 3774   2.543   4.696   7.160  0.4894 -1.5991  1.9542
   28SAPC   C38 3775   2.444   4.543   7.285  0.3784  0.3039 -0.1250
   28SAPC   H8X 3776   2.495   4.452   7.246 -0.2655  0.6724 -1.9492
   28SAPC   H8Y 3777   2.341   4.513   7.313 -0.1497  1.1104 -1.1058
   28SAPC   C39 3778   2.501   4.601   7.418  0.3788 -0.9836 -0.5885
   28SAPC   H9X 3779   2.412   4.659   7.450  1.4562 -0.1237  0.9588
   28SAPC   H9Y 3780   2.582   4.674   7.397 -0.6815  0.2839 -0.4077
   28SAPC  C310 3781   2.536   4.490   7.514  0.3029  0.6767 -0.3955
   28SAPC  H10X 3782   2.619   4.426   7.477 -0.0409 -0.5883  0.9183
   28SAPC  H10Y 3783   2.448   4.422   7.513 -0.5099  1.6996 -0.4447
   28SAPC  C311 3784   2.559   4.548   7.648  0.1334  0.4018  0.6221
   28SAPC  H11X 3785   2.468   4.609   7.668 -0.1419  0.2156 -0.0331
   28SAPC  H11Y 3786   2.646   4.616   7.657 -0.1683  1.1026 -1.3439
   28SAPC  C312 3787   2.570   4.436   7.755  0.5092  0.3662 -0.0070
   28SAPC  H12X 3788   2.645   4.362   7.721 -0.6972 -1.0054  0.2425
   28SAPC  H12Y 3789   2.471   4.386   7.760 -0.5148  2.1387 -1.2593
   28SAPC  C313 3790   2.605   4.492   7.891 -0.0191  0.5245  0.4199
   28SAPC  H13X 3791   2.528   4.566   7.920 -0.7532  0.5652 -1.5308
   28SAPC  H13Y 3792   2.698   4.552   7.888 -0.2250  0.8032 -0.6246
   28SAPC  C314 3793   2.613   4.382   7.997 -0.2844 -0.2874 -0.1118
   28SAPC  H14X 3794   2.705   4.323   7.974 -0.0771 -0.7174  1.7162
   28SAPC  H14Y 3795   2.517   4.325   8.004 -0.9034  0.8235  0.6416
   28SAPC  C315 3796   2.634   4.427   8.139 -0.0724  0.3866 -0.2390
   28SAPC  H15X 3797   2.563   4.512   8.147 -0.3260  0.3082 -1.5339
   28SAPC  H15Y 3798   2.737   4.466   8.155  0.2846 -0.6964  0.2258
   28SAPC  C316 3799   2.612   4.309   8.237 -0.0882 -0.8746  0.7561
   28SAPC  H16X 3800   2.693   4.239   8.209  1.6453  1.3246 -0.0562
   28SAPC  H16Y 3801   2.516   4.259   8.212  0.9097 -2.0595 -0.8311
   28SAPC  C317 3802   2.640   4.363   8.387  0.4903 -0.1681  0.1188
   28SAPC  H17X 3803   2.573   4.445   8.421  1.7347  0.8004  0.3206
   28SAPC  H17Y 3804   2.743   4.403   8.391  0.2572  0.6473 -1.2522
   28SAPC  C318 3805   2.624   4.257   8.495 -0.3100  0.2626 -0.1295
   28SAPC  H18X 3806   2.693   4.175   8.464  0.5755  0.8909  0.1479
   28SAPC  H18Y 3807   2.521   4.219   8.513 -0.1046  0.9445  3.1660
   28SAPC  H18Z 3808   2.652   4.306   8.591 -0.4171 -0.4048  0.2501
   29SAPC     N 3809   5.233   0.293   6.071 -0.1657 -0.4652 -0.3428
   29SAPC   C12 3810   5.190   0.221   6.189  0.3493 -0.1535  0.0369
   29SAPC  H12A 3811   5.275   0.160   6.216 -0.5392 -1.1917  0.5449
   29SAPC  H12B 3812   5.114   0.148   6.166 -0.2027 -0.2098  1.9171
   29SAPC   C13 3813   5.303   0.420   6.115 -0.1841  0.2268  0.4803
   29SAPC  H13A 3814   5.230   0.488   6.158 -1.2165 -1.5013  1.5740
   29SAPC  H13B 3815   5.375   0.400   6.192  0.9029  1.2581 -0.2332
   29SAPC  H13C 3816   5.346   0.475   6.032  0.3909 -0.5570  0.2460
   29SAPC   C14 3817   5.334   0.214   5.990  0.3456 -0.1152 -0.3237
   29SAPC  H14A 3818   5.423   0.197   6.047 -0.5727 -0.0817  1.1651
   29SAPC  H14B 3819   5.288   0.118   5.971  0.2162 -0.0929 -0.1251
   29SAPC  H14C 3820   5.362   0.272   5.903  0.0744  1.7597  0.7963
   29SAPC   C15 3821   5.118   0.320   5.983  0.6339 -0.1646  0.1753
   29SAPC  H15A 3822   5.133   0.394   5.906 -1.5256 -0.7706 -0.8872
   29SAPC  H15B 3823   5.082   0.233   5.930  1.5051  0.9862 -2.4745
   29SAPC  H15C 3824   5.038   0.353   6.048 -0.0489  0.5264 -0.9861
   29SAPC   C11 3825   5.135   0.303   6.309 -0.1604 -0.1519  0.7206
   29SAPC  H11A 3826   5.221   0.361   6.348  0.3846 -0.6327  0.2513
   29SAPC  H11B 3827   5.094   0.240   6.390 -2.1903  0.6315  0.3577
   29SAPC     P 3828   4.884   0.401   6.291 -0.0266 -0.0682 -0.3434
   29SAPC   O13 3829   4.848   0.549   6.292 -0.2316 -0.1884  0.3921
   29SAPC   O14 3830   4.824   0.320   6.183  0.2341  0.2705  0.0219
   29SAPC   O12 3831   5.036   0.398   6.277 -0.1100  0.2210 -0.0760
   29SAPC   O11 3832   4.865   0.339   6.432 -0.3186 -0.6255  0.1143
   29SAPC    C1 3833   4.868   0.420   6.556 -0.1878 -0.0913  1.1064
   29SAPC    HA 3834   4.790   0.498   6.563 -0.5246 -0.5122  2.1624
   29SAPC    HB 3835   4.847   0.345   6.635  0.1226 -1.1267  0.2491
   29SAPC    C2 3836   5.002   0.487   6.595  0.7018 -0.3972  0.4640
   29SAPC    HS 3837   5.027   0.559   6.514  2.8844 -0.3095  1.1425
   29SAPC   O21 3838   5.101   0.391   6.617  0.1659  0.1019  0.1672
   29SAPC   C21 3839   5.217   0.443   6.625  0.2488  0.0999 -0.2840
   29SAPC   O22 3840   5.246   0.561   6.609 -0.1922  0.0439  0.2664
   29SAPC   C22 3841   5.320   0.338   6.649 -0.1223 -0.4715  0.2108
   29SAPC   H2R 3842   5.304   0.248   6.585 -0.6135 -0.2059 -0.0440
   29SAPC   H2S 3843   5.419   0.382   6.620  0.0809  0.7335  2.5411
   29SAPC    C3 3844   4.983   0.577   6.723 -0.1768 -0.2817  0.2353
   29SAPC    HX 3845   4.903   0.651   6.701  0.2799  0.8379  2.0644
   29SAPC    HY 3846   5.072   0.640   6.747 -1.3537  1.0177  1.3254
   29SAPC   O31 3847   4.941   0.503   6.833 -0.0539 -0.2776 -0.7230
   29SAPC   C31 3848   4.993   0.538   6.955 -0.3805  0.9396  0.3800
   29SAPC   O32 3849   5.075   0.624   6.979  0.4411  0.0207 -0.6661
   29SAPC   C32 3850   4.925   0.442   7.053 -0.2660  0.4227  0.4315
   29SAPC   H2X 3851   4.848   0.375   7.008  0.9128  0.5640 -1.9812
   29SAPC   H2Y 3852   4.890   0.507   7.136  3.1592  1.9910  0.8124
   29SAPC   C23 3853   5.321   0.288   6.796 -0.2415  0.1614 -0.4919
   29SAPC   H3R 3854   5.411   0.223   6.801 -1.5556 -1.7515 -0.8076
   29SAPC   H3S 3855   5.223   0.241   6.818 -0.9530  1.6056 -0.4766
   29SAPC   C24 3856   5.358   0.400   6.893 -0.5356 -0.6096 -0.3523
   29SAPC   H4R 3857   5.279   0.478   6.892 -0.3762 -0.4484 -1.3017
   29SAPC   H4S 3858   5.448   0.449   6.851 -0.7182 -0.8650 -1.0559
   29SAPC   C25 3859   5.377   0.351   7.033  0.7941  0.6144 -0.6488
   29SAPC   H5R 3860   5.331   0.252   7.048  1.4662  0.3038 -0.6172
   29SAPC   C26 3861   5.424   0.421   7.135 -0.0713  0.5200 -0.1945
   29SAPC   H6R 3862   5.456   0.367   7.226  0.5733 -2.4809 -2.0770
   29SAPC   C27 3863   5.467   0.567   7.120  1.1850 -0.3957  0.4998
   29SAPC   H7R 3864   5.375   0.627   7.105  2.5077  1.2364 -1.6896
   29SAPC   H7S 3865   5.533   0.573   7.031  2.6971 -3.6935  1.2226
   29SAPC   C28 3866   5.534   0.626   7.246  0.3751 -0.0242 -0.4787
   29SAPC   H8R 3867   5.640   0.651   7.229  0.6409 -0.1200  0.9232
   29SAPC   C29 3868   5.465   0.653   7.365 -0.4717  0.3212  0.8436
   29SAPC   H9R 3869   5.529   0.690   7.446 -0.2214  1.1838  0.2576
   29SAPC  C210 3870   5.328   0.615   7.406 -0.2566 -0.6662 -0.1066
   29SAPC  H10R 3871   5.267   0.610   7.313  2.1465  2.3232 -2.0075
   29SAPC  H10S 3872   5.285   0.693   7.472 -2.1882 -1.0553 -0.8478
   29SAPC  C211 3873   5.318   0.483   7.479  0.1060  0.4951  0.3340
   29SAPC  H11R 3874   5.280   0.399   7.418 -2.2547  1.1780  0.7428
   29SAPC  C212 3875   5.322   0.466   7.614  0.2116  0.4878  0.6567
   29SAPC  H12R 3876   5.322   0.363   7.651 -0.7628 -0.7093 -2.3765
   29SAPC  C213 3877   5.356   0.573   7.715  0.5952 -0.7284  0.8522
   29SAPC  H13R 3878   5.292   0.555   7.804  0.6337  2.1541  1.5826
   29SAPC  H13S 3879   5.332   0.679   7.689  0.4638 -1.1035 -0.6601
   29SAPC  C214 3880   5.503   0.573   7.747 -0.5804  0.3141 -0.2134
   29SAPC  H14R 3881   5.566   0.629   7.676 -0.9316  1.1870  0.1444
   29SAPC  C215 3882   5.565   0.517   7.855 -0.1532  0.3087  0.0043
   29SAPC  H15R 3883   5.675   0.526   7.866 -0.1720 -0.8709  1.6097
   29SAPC  C216 3884   5.497   0.441   7.969 -0.1593 -0.2183 -0.7625
   29SAPC  H16R 3885   5.386   0.448   7.961  0.0670  3.1383 -3.0711
   29SAPC  H16S 3886   5.530   0.482   8.067 -0.8132  1.6563 -1.2759
   29SAPC  C217 3887   5.529   0.288   7.956  0.4588  0.1835  0.6532
   29SAPC  H17R 3888   5.639   0.282   7.941  0.5440  2.5626 -0.1059
   29SAPC  H17S 3889   5.476   0.250   7.866  0.8037 -1.6048  1.1659
   29SAPC  C218 3890   5.480   0.204   8.077 -0.5277  0.0058  0.9715
   29SAPC  H18R 3891   5.534   0.110   8.055  1.7019  1.6031 -0.7905
   29SAPC  H18S 3892   5.370   0.195   8.065 -0.6326 -0.6395  2.3012
   29SAPC  C219 3893   5.541   0.249   8.214 -0.1303 -0.7966  0.5871
   29SAPC  H19R 3894   5.494   0.346   8.241  0.5813 -0.5821  1.1040
   29SAPC  H19S 3895   5.651   0.262   8.202 -0.2740  0.6255  0.5752
   29SAPC  C220 3896   5.530   0.152   8.325 -0.2305 -0.5316 -0.2738
   29SAPC  H20R 3897   5.531   0.050   8.281 -2.3041  0.6455 -3.3600
   29SAPC  H20S 3898   5.426   0.157   8.363 -1.4398 -2.4709 -2.9929
   29SAPC  H20T 3899   5.609   0.165   8.402  0.5239 -2.1084 -0.7479
   29SAPC   C33 3900   5.025   0.352   7.121  0.7997 -0.3423 -0.4958
   29SAPC   H3X 3901   5.113   0.406   7.160 -1.5343  2.7616  0.9244
   29SAPC   H3Y 3902   5.066   0.294   7.036 -0.7130 -1.6861 -0.3570
   29SAPC   C34 3903   4.963   0.256   7.217  0.6697 -0.0036  0.5323
   29SAPC   H4X 3904   5.032   0.173   7.245  1.6738  0.5177 -0.3206
   29SAPC   H4Y 3905   4.873   0.206   7.175  1.3342  0.5989 -1.7541
   29SAPC   C35 3906   4.917   0.310   7.358 -0.3215 -0.0976  0.2259
   29SAPC   H5X 3907   4.846   0.396   7.361 -0.7287 -0.2380 -2.4022
   29SAPC   H5Y 3908   5.011   0.347   7.403  1.2953 -2.2685 -1.1681
   29SAPC   C36 3909   4.867   0.205   7.458 -0.1235 -0.1886 -0.0861
   29SAPC   H6X 3910   4.920   0.110   7.438  4.4915  1.9525  0.6753
   29SAPC   H6Y 3911   4.758   0.196   7.435 -0.2525  1.0351 -0.0465
   29SAPC   C37 3912   4.879   0.250   7.601 -0.2898 -0.1059  0.6769
   29SAPC   H7X 3913   4.797   0.194   7.649 -3.2384  2.1466 -1.3980
   29SAPC   H7Y 3914   4.861   0.360   7.591  0.0822 -0.0488  0.5866
   29SAPC   C38 3915   5.016   0.219   7.672  0.2717 -0.3011  0.2125
   29SAPC   H8X 3916   5.094   0.279   7.620  0.1362 -1.2475 -1.1380
   29SAPC   H8Y 3917   5.028   0.111   7.649 -0.4383 -0.3366  0.0108
   29SAPC   C39 3918   5.000   0.248   7.820 -0.4074 -0.3049 -0.2133
   29SAPC   H9X 3919   4.942   0.164   7.865  0.0472 -0.6723 -0.3032
   29SAPC   H9Y 3920   4.940   0.339   7.839  0.6323 -0.0477  2.2194
   29SAPC  C310 3921   5.132   0.263   7.898 -0.0588 -1.1235  0.1233
   29SAPC  H10X 3922   5.197   0.330   7.838 -1.4102 -0.0479 -0.2104
   29SAPC  H10Y 3923   5.176   0.161   7.902  2.8269 -0.0229 -0.8248
   29SAPC  C311 3924   5.110   0.330   8.036  0.8764  0.2562 -0.0445
   29SAPC  H11X 3925   5.070   0.432   8.017 -1.2982 -0.5136  0.1571
   29SAPC  H11Y 3926   5.208   0.345   8.087  0.7550  1.0500 -0.0383
   29SAPC  C312 3927   5.003   0.254   8.123  0.0040  0.1328 -0.3869
   29SAPC  H12X 3928   5.016   0.144   8.113 -2.2476 -0.0642 -1.7986
   29SAPC  H12Y 3929   4.899   0.275   8.092 -0.6965 -0.5624  1.3511
   29SAPC  C313 3930   5.021   0.294   8.273 -0.5744  0.4395  0.5721
   29SAPC  H13X 3931   4.973   0.394   8.274 -1.8422 -0.1316 -0.0701
   29SAPC  H13Y 3932   5.129   0.300   8.295  0.3913 -2.1505 -2.6854
   29SAPC  C314 3933   4.947   0.202   8.372  0.5146 -0.5007  0.2165
   29SAPC  H14X 3934   5.012   0.114   8.389  0.7802 -0.2104  0.7593
   29SAPC  H14Y 3935   4.851   0.163   8.334  1.2826 -1.5850 -0.6600
   29SAPC  C315 3936   4.947   0.275   8.509 -0.1252  0.2546  0.4787
   29SAPC  H15X 3937   4.899   0.374   8.493 -0.2858 -0.2743 -3.1510
   29SAPC  H15Y 3938   5.050   0.296   8.544  0.4030  0.1263 -0.9527
   29SAPC  C316 3939   4.882   0.195   8.621  0.1013  0.8807 -0.5496
   29SAPC  H16X 3940   4.956   0.123   8.660  0.1926  1.2341 -0.0597
   29SAPC  H16Y 3941   4.795   0.137   8.583  0.7790  0.6765 -1.8595
   29SAPC  C317 3942   4.840   0.272   8.750 -0.5008 -0.0646 -0.4632
   29SAPC  H17X 3943   4.916   0.349   8.776  0.9562 -1.6181  0.1049
   29SAPC  H17Y 3944   4.843   0.197   8.832  1.8932  2.1218  1.6529
   29SAPC  C318 3945   4.701   0.334   8.734  0.0081 -0.4419 -0.8153
   29SAPC  H18X 3946   4.635   0.272   8.668  1.1822 -0.6929 -1.7898
   29SAPC  H18Y 3947   4.712   0.437   8.695  2.5270  0.2138  1.4024
   29SAPC  H18Z 3948   4.662   0.340   8.838  5.3525  0.3048  1.4699
   30SAPC     N 3949   1.536   2.545   6.293  0.0652 -0.0005 -0.0517
   30SAPC   C12 3950   1.499   2.419   6.208 -0.1616 -0.1962  0.2965
   30SAPC  H12A 3951   1.568   2.408   6.125  0.9339 -0.2404  1.1939
   30SAPC  H12B 3952   1.402   2.451   6.173  0.6242  1.3356 -0.6199
   30SAPC   C13 3953   1.693   2.531   6.310  0.4910  0.5051 -0.2559
   30SAPC  H13A 3954   1.712   2.441   6.365 -0.3024  0.1050 -0.6238
   30SAPC  H13B 3955   1.750   2.517   6.219  1.4437  0.5970  0.3088
   30SAPC  H13C 3956   1.743   2.619   6.347  1.1065 -0.5267  1.4598
   30SAPC   C14 3957   1.529   2.668   6.215  0.1812  0.0922  0.4878
   30SAPC  H14A 3958   1.440   2.681   6.156  1.0350 -0.8346 -1.1092
   30SAPC  H14B 3959   1.555   2.756   6.272  2.4431 -0.3538  0.2700
   30SAPC  H14C 3960   1.606   2.676   6.139  0.5192  0.0728  0.8271
   30SAPC   C15 3961   1.460   2.551   6.422  0.2601  0.3840  0.5929
   30SAPC  H15A 3962   1.503   2.631   6.480  2.0586  0.8715 -1.3108
   30SAPC  H15B 3963   1.355   2.572   6.413  0.3506  2.2471  2.7927
   30SAPC  H15C 3964   1.477   2.453   6.466 -0.5353  0.1607  0.4132
   30SAPC   C11 3965   1.475   2.287   6.282 -0.1873  0.1403  0.2882
   30SAPC  H11A 3966   1.570   2.260   6.333  1.0652  2.3084 -0.7761
   30SAPC  H11B 3967   1.450   2.225   6.194 -0.2367  1.6799 -0.8251
   30SAPC     P 3968   1.220   2.278   6.331  0.1099 -0.1399 -0.3285
   30SAPC   O13 3969   1.154   2.413   6.294  0.5298  0.4228 -0.4006
   30SAPC   O14 3970   1.218   2.170   6.229  0.3700  0.4663 -0.0479
   30SAPC   O12 3971   1.375   2.296   6.376  0.4071  0.1436 -0.1097
   30SAPC   O11 3972   1.138   2.216   6.449 -0.2591  0.5897  0.0389
   30SAPC    C1 3973   1.179   2.168   6.573  0.0026 -0.0539 -0.2579
   30SAPC    HA 3974   1.149   2.065   6.603  0.6344 -0.4635 -0.9856
   30SAPC    HB 3975   1.289   2.154   6.581 -0.2171 -2.2608 -0.3774
   30SAPC    C2 3976   1.136   2.269   6.672  0.2341 -0.9350 -0.8023
   30SAPC    HS 3977   1.026   2.285   6.661  0.1040 -1.8367 -0.9354
   30SAPC   O21 3978   1.205   2.392   6.650  0.3389 -0.0217 -0.1031
   30SAPC   C21 3979   1.135   2.503   6.675  0.0242 -0.5861  0.3467
   30SAPC   O22 3980   1.011   2.517   6.680 -0.2092 -0.0373  0.1560
   30SAPC   C22 3981   1.229   2.628   6.697  0.4304  0.1334 -0.2472
   30SAPC   H2R 3982   1.329   2.611   6.652  0.8248 -0.3431  0.7836
   30SAPC   H2S 3983   1.171   2.701   6.636 -0.4269  0.8845  1.3834
   30SAPC    C3 3984   1.164   2.227   6.816  0.0504 -0.1625  0.3909
   30SAPC    HX 3985   1.271   2.207   6.837  0.3261  1.3000  0.4770
   30SAPC    HY 3986   1.119   2.127   6.829  0.2568 -0.6167 -1.9688
   30SAPC   O31 3987   1.102   2.307   6.927  0.8678 -0.1181 -0.1501
   30SAPC   C31 3988   1.172   2.355   7.013 -0.3167 -0.5853 -1.3933
   30SAPC   O32 3989   1.293   2.342   7.023  0.3146 -0.4169 -0.4961
   30SAPC   C32 3990   1.083   2.446   7.105  0.1660  0.6897  0.7460
   30SAPC   H2X 3991   0.989   2.398   7.140  0.3052 -0.5314 -0.4741
   30SAPC   H2Y 3992   1.047   2.522   7.032  0.6034 -1.6132 -2.0811
   30SAPC   C23 3993   1.228   2.674   6.846  0.5960 -0.0277 -0.1796
   30SAPC   H3R 3994   1.288   2.594   6.896  0.7081  0.6096  0.7330
   30SAPC   H3S 3995   1.127   2.672   6.894 -0.0145 -3.4797 -1.2746
   30SAPC   C24 3996   1.294   2.809   6.869  0.9747 -0.2157 -0.3292
   30SAPC   H4R 3997   1.377   2.813   6.795  0.9965  0.5591 -0.2699
   30SAPC   H4S 3998   1.330   2.814   6.973 -1.7333  2.6834  0.6411
   30SAPC   C25 3999   1.194   2.922   6.847  0.6006  0.1256 -0.3530
   30SAPC   H5R 4000   1.161   2.923   6.742  0.3589 -4.4551 -0.5314
   30SAPC   C26 4001   1.148   3.008   6.934 -0.3454 -0.7183 -0.3445
   30SAPC   H6R 4002   1.079   3.088   6.904 -0.5114 -0.6784  0.1386
   30SAPC   C27 4003   1.180   3.007   7.087  0.2585  0.2576  0.7857
   30SAPC   H7R 4004   1.168   2.900   7.115 -0.5950  0.6735  2.1140
   30SAPC   H7S 4005   1.097   3.053   7.144 -0.5481  0.3493 -0.4086
   30SAPC   C28 4006   1.312   3.062   7.127 -0.0614  0.7848 -0.1814
   30SAPC   H8R 4007   1.383   3.061   7.043 -0.3205 -3.2086 -0.5314
   30SAPC   C29 4008   1.343   3.106   7.249 -0.5301 -0.8471 -0.9110
   30SAPC   H9R 4009   1.450   3.129   7.260  0.0544 -1.4888 -4.2943
   30SAPC  C210 4010   1.268   3.107   7.374 -0.2483 -0.3164 -1.2875
   30SAPC  H10R 4011   1.237   3.003   7.399 -0.1054 -0.0981 -0.1655
   30SAPC  H10S 4012   1.172   3.163   7.359 -1.1797 -0.3539  3.2266
   30SAPC  C211 4013   1.345   3.170   7.487 -0.2503  0.7805  0.5607
   30SAPC  H11R 4014   1.382   3.268   7.453  2.1972 -0.2239  0.1489
   30SAPC  C212 4015   1.384   3.122   7.609  0.3992  0.2180  0.2395
   30SAPC  H12R 4016   1.434   3.195   7.674  1.7676 -0.6248  0.1669
   30SAPC  C213 4017   1.359   2.990   7.673  0.0092  0.1114 -1.0121
   30SAPC  H13R 4018   1.457   2.948   7.706  0.0746  0.5894 -0.5778
   30SAPC  H13S 4019   1.312   2.923   7.598 -1.9571  1.4768 -1.0588
   30SAPC  C214 4020   1.261   3.009   7.787 -0.2646  0.0070  0.2952
   30SAPC  H14R 4021   1.157   3.029   7.757 -0.6957 -1.4755  0.7131
   30SAPC  C215 4022   1.295   3.000   7.919 -0.2855 -0.0868 -0.6504
   30SAPC  H15R 4023   1.224   3.026   8.000  2.4947 -0.9368  2.2701
   30SAPC  C216 4024   1.438   2.975   7.962  0.4051 -0.1566  0.0606
   30SAPC  H16R 4025   1.515   3.037   7.911  3.1166 -4.9659 -2.4223
   30SAPC  H16S 4026   1.458   2.866   7.958  1.1645  0.0169 -1.2565
   30SAPC  C217 4027   1.448   3.012   8.111  0.3450 -0.2865  0.1538
   30SAPC  H17R 4028   1.549   2.981   8.146 -0.0463 -0.9495  0.7207
   30SAPC  H17S 4029   1.386   2.946   8.174 -0.3988 -0.9745 -1.2647
   30SAPC  C218 4030   1.433   3.168   8.127 -0.3593  0.6723  0.4026
   30SAPC  H18R 4031   1.325   3.190   8.113 -0.4189  0.6957  0.8955
   30SAPC  H18S 4032   1.490   3.215   8.043 -1.5413 -0.4504 -1.0715
   30SAPC  C219 4033   1.478   3.221   8.260  0.1149  0.5271  0.1805
   30SAPC  H19R 4034   1.436   3.150   8.335  1.2645 -2.2290 -1.6083
   30SAPC  H19S 4035   1.446   3.326   8.274 -0.2617  0.2010  1.9976
   30SAPC  C220 4036   1.626   3.216   8.287  0.3817  0.5218 -0.0999
   30SAPC  H20R 4037   1.667   3.114   8.277  2.1738  1.2026 -0.0107
   30SAPC  H20S 4038   1.641   3.263   8.386 -0.1922  0.2858  0.1061
   30SAPC  H20T 4039   1.672   3.281   8.210  2.3802 -0.6894  0.0139
   30SAPC   C33 4040   1.158   2.514   7.222 -0.0377  0.1632  0.1317
   30SAPC   H3X 4041   1.257   2.554   7.192 -0.9241  1.7299 -0.8524
   30SAPC   H3Y 4042   1.185   2.426   7.284  0.5879 -0.6060 -1.1957
   30SAPC   C34 4043   1.094   2.630   7.297 -0.0646  0.5894 -0.2388
   30SAPC   H4X 4044   0.984   2.616   7.294 -0.1677  1.1189  0.7509
   30SAPC   H4Y 4045   1.109   2.720   7.234 -2.8527  0.3616 -1.3462
   30SAPC   C35 4046   1.136   2.646   7.440 -0.9773  0.5471 -0.1218
   30SAPC   H5X 4047   1.075   2.723   7.492  0.4616  1.4526  0.2938
   30SAPC   H5Y 4048   1.240   2.685   7.438 -0.3578 -1.0390 -0.7489
   30SAPC   C36 4049   1.130   2.520   7.533  0.1751  0.4269  0.5405
   30SAPC   H6X 4050   1.180   2.429   7.492 -1.5120 -0.7467  0.9705
   30SAPC   H6Y 4051   1.024   2.485   7.537  0.3177  0.0492  4.1161
   30SAPC   C37 4052   1.188   2.540   7.665 -0.7782  0.0983 -0.2697
   30SAPC   H7X 4053   1.291   2.581   7.665  0.2442 -2.3264 -0.5881
   30SAPC   H7Y 4054   1.201   2.445   7.722 -1.8790  0.1517  0.0990
   30SAPC   C38 4055   1.097   2.632   7.747 -0.0611  0.5093 -0.5900
   30SAPC   H8X 4056   0.992   2.598   7.740  0.0474  0.4848 -4.0665
   30SAPC   H8Y 4057   1.094   2.731   7.695  0.3865  0.3131 -0.9988
   30SAPC   C39 4058   1.127   2.652   7.896 -0.3995 -0.4072  0.0857
   30SAPC   H9X 4059   1.045   2.712   7.942 -0.3767  0.0026 -0.4082
   30SAPC   H9Y 4060   1.210   2.720   7.925  0.5581 -1.2113 -0.7147
   30SAPC  C310 4061   1.141   2.520   7.970 -0.3208 -0.8370 -0.8328
   30SAPC  H10X 4062   1.231   2.461   7.942  1.7063  1.4401  0.4489
   30SAPC  H10Y 4063   1.055   2.450   7.963  0.3645 -2.0618  1.8202
   30SAPC  C311 4064   1.145   2.563   8.121 -0.4264  0.2883  0.4564
   30SAPC  H11X 4065   1.041   2.595   8.146  0.0105  1.1318  1.2381
   30SAPC  H11Y 4066   1.213   2.648   8.138 -0.9722  0.9913 -0.7391
   30SAPC  C312 4067   1.185   2.440   8.201 -0.0511 -0.4741 -0.4153
   30SAPC  H12X 4068   1.292   2.418   8.181  0.7071  0.8784  1.7299
   30SAPC  H12Y 4069   1.125   2.350   8.176  0.7948 -0.7762 -1.4261
   30SAPC  C313 4070   1.199   2.466   8.357  0.1895  0.7506  0.0600
   30SAPC  H13X 4071   1.240   2.372   8.398  1.9266  1.9406  1.1964
   30SAPC  H13Y 4072   1.095   2.487   8.393 -1.1793 -1.3083 -2.3688
   30SAPC  C314 4073   1.285   2.585   8.397  0.6090 -0.5448 -0.5459
   30SAPC  H14X 4074   1.272   2.591   8.507  0.0328 -0.9496 -0.5865
   30SAPC  H14Y 4075   1.245   2.680   8.354  0.9106 -0.4179 -0.5477
   30SAPC  C315 4076   1.437   2.575   8.362 -0.2684  0.0151  0.1985
   30SAPC  H15X 4077   1.446   2.561   8.252 -2.9158  2.0883 -0.3759
   30SAPC  H15Y 4078   1.472   2.481   8.411  3.5815  1.6689  0.9353
   30SAPC  C316 4079   1.522   2.695   8.407 -0.1926  0.2106 -0.4572
   30SAPC  H16X 4080   1.517   2.713   8.516  2.7862  0.1630 -0.2308
   30SAPC  H16Y 4081   1.477   2.788   8.366 -0.1732  0.5518  0.2818
   30SAPC  C317 4082   1.669   2.682   8.374 -0.0211  0.8030  0.3800
   30SAPC  H17X 4083   1.673   2.694   8.264 -1.7671 -2.0524 -0.0958
   30SAPC  H17Y 4084   1.718   2.588   8.409 -0.9582  0.2811  0.3257
   30SAPC  C318 4085   1.749   2.791   8.444  0.0853 -0.4356 -0.2619
   30SAPC  H18X 4086   1.856   2.799   8.415  0.9842 -1.7483  2.3288
   30SAPC  H18Y 4087   1.757   2.772   8.554  2.0389 -3.8501 -0.8769
   30SAPC  H18Z 4088   1.709   2.895   8.447  2.5991  0.6085  1.8894
   31SAPC     N 4089   1.873   6.464   6.473 -0.5564 -0.3140  0.8482
   31SAPC   C12 4090   1.871   6.572   6.578 -0.0331 -0.4461 -0.1097
   31SAPC  H12A 4091   1.799   6.554   6.656  0.9289  0.5584  1.0699
   31SAPC  H12B 4092   1.828   6.666   6.546 -0.3430  0.1001  1.7360
   31SAPC   C13 4093   1.930   6.338   6.536 -0.0804 -0.3101  0.7928
   31SAPC  H13A 4094   1.961   6.283   6.449 -0.2865  1.4275 -0.4386
   31SAPC  H13B 4095   2.022   6.349   6.591  0.6775 -0.0119 -0.4934
   31SAPC  H13C 4096   1.858   6.281   6.593 -0.7051 -0.0624  0.2615
   31SAPC   C14 4097   1.735   6.441   6.427  0.2130 -0.3601  0.6233
   31SAPC  H14A 4098   1.732   6.361   6.354 -1.3476 -0.9548  1.2994
   31SAPC  H14B 4099   1.680   6.412   6.515 -0.1729  0.0192  0.5088
   31SAPC  H14C 4100   1.694   6.521   6.368 -0.7153 -2.6244 -2.0276
   31SAPC   C15 4101   1.967   6.509   6.365  0.4228 -0.1941  0.0843
   31SAPC  H15A 4102   1.969   6.450   6.274 -1.1835 -2.6239  1.5334
   31SAPC  H15B 4103   1.946   6.608   6.327 -0.7750  0.0654  1.3631
   31SAPC  H15C 4104   2.070   6.514   6.399  0.8667 -0.3406 -1.1790
   31SAPC   C11 4105   1.993   6.609   6.655 -0.0051  0.2554 -0.3688
   31SAPC  H11A 4106   2.033   6.517   6.703 -0.6990  0.9432  1.6684
   31SAPC  H11B 4107   1.985   6.677   6.743  1.2552 -1.0683  0.8310
   31SAPC     P 4108   2.078   6.811   6.502  0.0249 -0.3369 -0.2104
   31SAPC   O13 4109   2.195   6.831   6.414 -0.5912  0.2371 -0.7162
   31SAPC   O14 4110   1.941   6.827   6.445  0.0741  0.2704 -0.4884
   31SAPC   O12 4111   2.092   6.664   6.563 -0.0183  0.5940  0.2659
   31SAPC   O11 4112   2.079   6.886   6.636  0.0567  0.6237  0.1967
   31SAPC    C1 4113   2.193   6.966   6.683  0.2192  0.4141  0.6153
   31SAPC    HA 4114   2.210   7.052   6.615  2.7297  0.1839  0.8650
   31SAPC    HB 4115   2.173   7.015   6.781  1.3872  0.2365  0.9545
   31SAPC    C2 4116   2.332   6.892   6.699  0.2763 -0.3367 -0.1047
   31SAPC    HS 4117   2.367   6.854   6.600 -0.4303  0.0483 -0.5130
   31SAPC   O21 4118   2.309   6.783   6.789  0.4275 -0.0703  0.2736
   31SAPC   C21 4119   2.404   6.702   6.799 -0.0183  0.8207  0.2227
   31SAPC   O22 4120   2.512   6.697   6.736  0.0226  0.0644 -0.4052
   31SAPC   C22 4121   2.367   6.591   6.901 -0.1449 -0.0806  0.0181
   31SAPC   H2R 4122   2.273   6.615   6.954 -0.0055 -0.9889  0.6933
   31SAPC   H2S 4123   2.349   6.499   6.841  0.5292  0.2829 -0.7643
   31SAPC    C3 4124   2.437   6.994   6.753 -0.1385  0.3734 -0.2827
   31SAPC    HX 4125   2.441   7.078   6.681  0.2467  0.0804 -0.6085
   31SAPC    HY 4126   2.529   6.932   6.746 -0.6620 -0.2844 -1.5966
   31SAPC   O31 4127   2.405   7.038   6.891  0.3196 -0.5739  1.1325
   31SAPC   C31 4128   2.493   7.011   6.978  0.0234 -0.3032  0.3420
   31SAPC   O32 4129   2.604   6.955   6.961 -0.1939  0.2001  0.5078
   31SAPC   C32 4130   2.446   7.056   7.119  0.9364  0.5110 -0.1467
   31SAPC   H2X 4131   2.341   7.092   7.113  1.2532  1.2541 -2.0230
   31SAPC   H2Y 4132   2.510   7.143   7.147 -0.8214  1.8199 -0.0150
   31SAPC   C23 4133   2.488   6.571   6.993 -0.5869  0.1873 -0.0741
   31SAPC   H3R 4134   2.516   6.670   7.036 -3.4922  1.1077 -0.0172
   31SAPC   H3S 4135   2.571   6.533   6.931 -2.0097 -2.0530 -0.7303
   31SAPC   C24 4136   2.457   6.474   7.112 -0.3921  0.1350 -0.2112
   31SAPC   H4R 4137   2.549   6.441   7.165 -0.7545  0.0177  0.3490
   31SAPC   H4S 4138   2.404   6.389   7.065  0.8360 -0.5929 -0.3386
   31SAPC   C25 4139   2.357   6.542   7.206  0.1608  0.5972  0.1068
   31SAPC   H5R 4140   2.275   6.599   7.160  0.3164  0.5334 -0.2530
   31SAPC   C26 4141   2.350   6.540   7.343 -0.3226 -0.2366  0.8067
   31SAPC   H6R 4142   2.265   6.584   7.398 -0.2616 -1.9643  2.3878
   31SAPC   C27 4143   2.439   6.463   7.439 -0.3360  0.0735 -0.1620
   31SAPC   H7R 4144   2.463   6.369   7.386 -0.5415  0.0588 -0.2289
   31SAPC   H7S 4145   2.375   6.441   7.527  0.3527  0.9694  0.5938
   31SAPC   C28 4146   2.560   6.540   7.476  0.1355  0.2920  0.2064
   31SAPC   H8R 4147   2.588   6.612   7.398 -1.7171  0.2088 -0.5879
   31SAPC   C29 4148   2.611   6.546   7.607  0.1861  0.2010 -0.1737
   31SAPC   H9R 4149   2.689   6.622   7.622 -1.5321  1.7671  1.3813
   31SAPC  C210 4150   2.563   6.459   7.719 -0.5258  0.1484 -0.0310
   31SAPC  H10R 4151   2.465   6.412   7.696 -0.7380  0.3450  0.4724
   31SAPC  H10S 4152   2.532   6.532   7.796  2.0226  1.0468  0.2541
   31SAPC  C211 4153   2.666   6.362   7.762  0.0293  0.9161  0.5155
   31SAPC  H11R 4154   2.721   6.308   7.683 -0.0580 -1.3355  1.9019
   31SAPC  C212 4155   2.693   6.328   7.886  0.1012  0.4745 -0.3915
   31SAPC  H12R 4156   2.792   6.283   7.903 -0.1367  0.6640  1.9300
   31SAPC  C213 4157   2.639   6.377   8.016 -0.3791 -0.1993  0.7779
   31SAPC  H13R 4158   2.680   6.306   8.091  1.7830  1.4854  1.2846
   31SAPC  H13S 4159   2.528   6.365   8.020 -0.3830 -0.2384  0.5764
   31SAPC  C214 4160   2.676   6.522   8.046  0.2420 -0.2154 -0.1273
   31SAPC  H14R 4161   2.734   6.576   7.970  0.2546 -0.7116 -0.4789
   31SAPC  C215 4162   2.665   6.583   8.160 -0.7820  0.3243 -0.9190
   31SAPC  H15R 4163   2.692   6.690   8.157 -2.0991  0.6763 -0.9019
   31SAPC  C216 4164   2.620   6.515   8.284  0.0614  0.5162 -0.2240
   31SAPC  H16R 4165   2.657   6.411   8.294  0.8505  0.8974  1.0920
   31SAPC  H16S 4166   2.510   6.502   8.276  0.2109 -0.4259 -0.9559
   31SAPC  C217 4167   2.658   6.599   8.399 -0.2545  0.2714  0.3992
   31SAPC  H17R 4168   2.624   6.702   8.374 -0.1122 -0.3587 -2.7453
   31SAPC  H17S 4169   2.769   6.597   8.411  0.0032  0.2726 -1.6905
   31SAPC  C218 4170   2.591   6.560   8.526 -0.1213  0.1564  0.0507
   31SAPC  H18R 4171   2.482   6.552   8.511 -0.0604  0.9564 -0.8902
   31SAPC  H18S 4172   2.611   6.645   8.595 -0.7134  0.3607 -0.0312
   31SAPC  C219 4173   2.625   6.423   8.575 -0.0184  0.0115  0.6385
   31SAPC  H19R 4174   2.736   6.425   8.581  0.0115 -1.8076  1.8674
   31SAPC  H19S 4175   2.598   6.334   8.515  1.4514  0.1851 -0.3373
   31SAPC  C220 4176   2.572   6.399   8.719  0.5396  0.0674 -0.0944
   31SAPC  H20R 4177   2.462   6.390   8.718  0.4736  0.3586  1.7736
   31SAPC  H20S 4178   2.588   6.486   8.786 -0.4295 -0.6622  1.1158
   31SAPC  H20T 4179   2.595   6.299   8.763  0.3850 -0.8470 -1.9535
   31SAPC   C33 4180   2.478   6.945   7.224  0.3620 -0.9250 -0.4141
   31SAPC   H3X 4181   2.583   6.909   7.230  1.2116  1.5944  2.8313
   31SAPC   H3Y 4182   2.413   6.856   7.216 -1.0988  0.1308 -0.5994
   31SAPC   C34 4183   2.453   6.999   7.366  0.1023  1.1043 -0.7761
   31SAPC   H4X 4184   2.344   7.007   7.389 -0.0206 -2.1775  0.3519
   31SAPC   H4Y 4185   2.500   7.099   7.365  1.0113  0.7727  1.6060
   31SAPC   C35 4186   2.504   6.905   7.484 -0.1071  0.0028 -0.4413
   31SAPC   H5X 4187   2.612   6.884   7.467 -0.3921 -0.9945 -1.1274
   31SAPC   H5Y 4188   2.460   6.804   7.476  0.7555 -0.3439 -1.0680
   31SAPC   C36 4189   2.464   6.961   7.617 -0.3252 -0.0512  0.4053
   31SAPC   H6X 4190   2.363   7.005   7.601 -0.3196 -0.4206 -0.8309
   31SAPC   H6Y 4191   2.523   7.051   7.644  0.4841 -0.2323 -0.6968
   31SAPC   C37 4192   2.449   6.853   7.727 -0.1156 -0.3829 -0.2616
   31SAPC   H7X 4193   2.543   6.794   7.729  0.0629 -0.0857  0.7574
   31SAPC   H7Y 4194   2.375   6.779   7.690 -0.6500  1.2749 -2.7981
   31SAPC   C38 4195   2.428   6.913   7.870  0.1468  0.2948  0.2064
   31SAPC   H8X 4196   2.392   6.831   7.935  2.1279  0.6364  1.8310
   31SAPC   H8Y 4197   2.361   7.002   7.867 -0.0554  0.1111 -1.3065
   31SAPC   C39 4198   2.556   6.959   7.938  0.4738 -0.4494  0.8222
   31SAPC   H9X 4199   2.600   7.038   7.875  1.3612 -1.4595  0.1458
   31SAPC   H9Y 4200   2.636   6.883   7.931  3.9573  2.9596  0.4636
   31SAPC  C310 4201   2.536   6.996   8.088 -0.2984 -0.5887  0.2694
   31SAPC  H10X 4202   2.504   6.904   8.142 -0.4469 -1.2312 -0.8878
   31SAPC  H10Y 4203   2.457   7.074   8.081 -0.3315 -0.6870 -0.5300
   31SAPC  C311 4204   2.669   7.050   8.149 -0.5636 -0.2234 -0.0375
   31SAPC  H11X 4205   2.693   7.144   8.096  1.0180 -0.5411  0.0644
   31SAPC  H11Y 4206   2.755   6.980   8.155  0.1913  0.8060  3.2010
   31SAPC  C312 4207   2.652   7.094   8.300 -0.9715  0.1789 -0.1474
   31SAPC  H12X 4208   2.569   7.166   8.319 -0.4528  0.5468  0.8380
   31SAPC  H12Y 4209   2.741   7.160   8.315  0.5660 -1.4398 -1.7114
   31SAPC  C313 4210   2.635   6.980   8.401 -0.1137 -0.0185 -0.4206
   31SAPC  H13X 4211   2.720   6.912   8.380 -2.2470 -2.3729 -2.0220
   31SAPC  H13Y 4212   2.547   6.914   8.387  0.1696 -0.6272  0.5159
   31SAPC  C314 4213   2.638   7.037   8.543 -0.5762  0.7429  0.8732
   31SAPC  H14X 4214   2.603   6.948   8.601 -1.3030  1.4004  1.4612
   31SAPC  H14Y 4215   2.568   7.122   8.555 -0.4346  0.8383  1.0148
   31SAPC  C315 4216   2.780   7.077   8.592  0.3205 -0.5806 -0.1854
   31SAPC  H15X 4217   2.827   7.157   8.531  1.2804 -1.0607 -0.1031
   31SAPC  H15Y 4218   2.843   6.986   8.581  0.6520 -0.7560  2.5114
   31SAPC  C316 4219   2.785   7.130   8.737 -0.0765  0.3119 -0.3986
   31SAPC  H16X 4220   2.692   7.083   8.776 -0.4540  1.2454 -0.1414
   31SAPC  H16Y 4221   2.761   7.238   8.748 -2.9450 -0.1652 -1.0516
   31SAPC  C317 4222   2.908   7.090   8.811 -0.0412 -0.1903 -0.6165
   31SAPC  H17X 4223   2.921   6.981   8.795  1.2644 -0.0042 -0.8761
   31SAPC  H17Y 4224   2.891   7.091   8.921  0.7165 -0.8346 -0.4808
   31SAPC  C318 4225   3.033   7.169   8.774  0.5929 -0.0129 -0.2916
   31SAPC  H18X 4226   3.025   7.189   8.665  0.4029  0.9982 -0.1076
   31SAPC  H18Y 4227   3.132   7.122   8.792 -0.2647 -1.8809 -0.2051
   31SAPC  H18Z 4228   3.029   7.260   8.838 -0.5350 -0.3175  0.0969
   32SAPC     N 4229   1.359   4.628   6.018  0.4948  0.2561 -0.4685
   32SAPC   C12 4230   1.222   4.661   5.952 -0.4219 -0.1869  0.6685
   32SAPC  H12A 4231   1.183   4.566   5.920 -0.4603 -1.0512  3.0707
   32SAPC  H12B 4232   1.247   4.728   5.871  0.7274 -1.4362 -0.0545
   32SAPC   C13 4233   1.436   4.750   6.022  0.6618 -1.0154 -0.3772
   32SAPC  H13A 4234   1.477   4.781   5.926  2.9217 -0.9579  0.5394
   32SAPC  H13B 4235   1.367   4.820   6.065  1.4868 -0.1790 -0.3791
   32SAPC  H13C 4236   1.518   4.749   6.092 -0.6382 -1.7491  1.1889
   32SAPC   C14 4237   1.340   4.587   6.161 -0.1194  0.0635  0.3756
   32SAPC  H14A 4238   1.293   4.489   6.167  1.7240 -1.0819 -1.9925
   32SAPC  H14B 4239   1.438   4.575   6.204  1.4372  0.7501 -2.7076
   32SAPC  H14C 4240   1.283   4.660   6.216 -0.2089  0.1229  0.2056
   32SAPC   C15 4241   1.434   4.524   5.943 -0.2597  0.5363 -0.7489
   32SAPC  H15A 4242   1.531   4.504   5.986 -1.8281 -0.4800  2.6289
   32SAPC  H15B 4243   1.382   4.430   5.943 -0.6537  0.7512 -1.2069
   32SAPC  H15C 4244   1.446   4.548   5.838  1.3766 -0.2666 -0.7860
   32SAPC   C11 4245   1.119   4.732   6.039 -0.2088  0.3501  0.1108
   32SAPC  H11A 4246   1.086   4.659   6.116  1.9412 -2.2097 -1.2328
   32SAPC  H11B 4247   1.031   4.750   5.973  1.6045  2.7709 -1.8354
   32SAPC     P 4248   1.122   4.916   6.226 -0.1527 -0.9765  0.1511
   32SAPC   O13 4249   1.202   5.037   6.259  0.0034  0.1205 -0.2472
   32SAPC   O14 4250   0.971   4.923   6.221 -0.0568 -0.2816  0.0353
   32SAPC   O12 4251   1.160   4.862   6.086  0.0571 -0.6562 -0.0590
   32SAPC   O11 4252   1.175   4.798   6.318  0.1179 -0.2012 -0.0460
   32SAPC    C1 4253   1.306   4.806   6.371 -0.5846 -0.4135 -0.5514
   32SAPC    HA 4254   1.351   4.706   6.391  2.1788  0.5948 -1.3007
   32SAPC    HB 4255   1.387   4.845   6.306  0.8538  0.8003  1.8434
   32SAPC    C2 4256   1.305   4.879   6.512  0.0327  0.5304 -0.2217
   32SAPC    HS 4257   1.316   4.988   6.493 -1.5450  1.0672  1.5922
   32SAPC   O21 4258   1.419   4.825   6.586  0.5285  0.2902 -0.5569
   32SAPC   C21 4259   1.482   4.919   6.656  0.4557  0.1268 -0.0220
   32SAPC   O22 4260   1.471   5.039   6.637 -0.1662  0.2863 -0.3335
   32SAPC   C22 4261   1.574   4.851   6.761  0.0058 -0.2518  0.5745
   32SAPC   H2R 4262   1.515   4.806   6.843  1.6504 -0.1359  1.8840
   32SAPC   H2S 4263   1.634   4.770   6.713 -0.9900 -0.8126  0.2641
   32SAPC    C3 4264   1.179   4.863   6.598  0.1558 -0.1117 -0.3414
   32SAPC    HX 4265   1.161   4.759   6.631 -1.9014 -0.1949 -1.5484
   32SAPC    HY 4266   1.097   4.880   6.524  0.6066  2.1811 -0.4000
   32SAPC   O31 4267   1.158   4.953   6.705  0.2239  0.2610  0.1898
   32SAPC   C31 4268   1.190   4.915   6.831 -0.3185 -0.1748 -0.6784
   32SAPC   O32 4269   1.223   4.799   6.860 -0.5102  0.2570  0.1779
   32SAPC   C32 4270   1.176   5.034   6.927 -0.3226 -0.1205 -0.6771
   32SAPC   H2X 4271   1.069   5.066   6.928 -1.5209 -3.6520 -0.6018
   32SAPC   H2Y 4272   1.231   5.122   6.887  1.1475 -0.8273 -0.2834
   32SAPC   C23 4273   1.665   4.962   6.821 -0.2749 -0.6379  0.5868
   32SAPC   H3R 4274   1.605   5.047   6.861 -1.0866 -1.5135  1.2919
   32SAPC   H3S 4275   1.740   4.995   6.747 -1.3861  0.0030 -0.2867
   32SAPC   C24 4276   1.739   4.917   6.946 -0.2732  0.1374 -0.3316
   32SAPC   H4R 4277   1.661   4.880   7.016 -0.9202 -0.0807 -1.1558
   32SAPC   H4S 4278   1.790   5.003   6.994 -1.1325  0.8064 -0.5985
   32SAPC   C25 4279   1.838   4.809   6.913  0.1982 -0.1036  0.2381
   32SAPC   H5R 4280   1.867   4.798   6.808 -0.4056  3.0400 -0.3573
   32SAPC   C26 4281   1.878   4.712   6.994 -0.2355  0.3999 -0.2863
   32SAPC   H6R 4282   1.941   4.632   6.953  0.3959 -0.1398  1.6279
   32SAPC   C27 4283   1.841   4.696   7.137  0.4224 -0.3408  0.2312
   32SAPC   H7R 4284   1.810   4.589   7.143  2.0297 -0.9284 -1.1781
   32SAPC   H7S 4285   1.764   4.766   7.176  0.9482  1.5960 -1.9921
   32SAPC   C28 4286   1.970   4.702   7.214  0.3272  0.1116 -0.4548
   32SAPC   H8R 4287   2.035   4.786   7.187  1.2407 -0.0370  1.1588
   32SAPC   C29 4288   2.013   4.615   7.310  0.4259  0.6455 -0.6798
   32SAPC   H9R 4289   2.108   4.633   7.363 -0.7047 -0.5100  1.9484
   32SAPC  C210 4290   1.930   4.504   7.373  0.4194  0.5491  0.1926
   32SAPC  H10R 4291   1.844   4.474   7.309  0.8643  0.4186 -0.3499
   32SAPC  H10S 4292   1.872   4.533   7.464 -0.4965  2.0660 -0.8289
   32SAPC  C211 4293   2.031   4.390   7.400 -0.4071 -0.4205 -0.0694
   32SAPC  H11R 4294   2.025   4.300   7.337 -2.6098  0.3920 -1.0940
   32SAPC  C212 4295   2.114   4.378   7.506  0.2360  0.1100 -0.3368
   32SAPC  H12R 4296   2.177   4.289   7.515 -0.1615 -0.1327  0.1038
   32SAPC  C213 4297   2.138   4.468   7.627  0.0609 -0.2967 -0.2630
   32SAPC  H13R 4298   2.115   4.573   7.599  2.1282 -0.8576 -5.2824
   32SAPC  H13S 4299   2.245   4.474   7.654  0.4258  0.8443 -1.8659
   32SAPC  C214 4300   2.054   4.436   7.751 -0.2043 -0.1791 -0.0383
   32SAPC  H14R 4301   1.948   4.431   7.723 -0.0964 -3.0430 -0.2262
   32SAPC  C215 4302   2.084   4.405   7.877 -0.2370  0.6878 -0.5402
   32SAPC  H15R 4303   1.999   4.381   7.943 -0.3522 -0.4475 -1.0753
   32SAPC  C216 4304   2.209   4.388   7.955 -0.0097  0.5482 -0.9282
   32SAPC  H16R 4305   2.263   4.484   7.967  0.7717  0.0365 -0.2132
   32SAPC  H16S 4306   2.279   4.326   7.894 -1.2060 -0.5208 -1.2679
   32SAPC  C217 4307   2.183   4.327   8.096 -0.0261  0.4861  0.0003
   32SAPC  H17R 4308   2.268   4.267   8.135  0.2415  1.4247  0.9179
   32SAPC  H17S 4309   2.105   4.248   8.088  1.1300 -0.7579  0.5745
   32SAPC  C218 4310   2.122   4.435   8.195  0.2084  0.2679  0.9081
   32SAPC  H18R 4311   2.029   4.469   8.146 -0.2264  0.2215  1.6824
   32SAPC  H18S 4312   2.194   4.518   8.212 -2.5776  3.1015 -0.2487
   32SAPC  C219 4313   2.115   4.383   8.338 -0.2847  0.8746  0.3294
   32SAPC  H19R 4314   2.214   4.347   8.375 -0.6407 -0.3289  0.1406
   32SAPC  H19S 4315   2.053   4.291   8.340 -1.5779  1.5582 -2.7179
   32SAPC  C220 4316   2.065   4.468   8.449 -0.0903 -1.1018  0.1362
   32SAPC  H20R 4317   2.145   4.532   8.490 -0.7053 -1.0834  1.3457
   32SAPC  H20S 4318   2.007   4.423   8.533  0.5547 -1.4904  0.3778
   32SAPC  H20T 4319   1.992   4.546   8.418  0.2801 -0.9822 -0.4501
   32SAPC   C33 4320   1.212   5.008   7.078  0.3148 -0.6161  0.3574
   32SAPC   H3X 4321   1.143   4.928   7.115 -0.1694  0.4556  1.8565
   32SAPC   H3Y 4322   1.181   5.096   7.138 -1.2230 -0.6764 -0.3007
   32SAPC   C34 4323   1.364   4.971   7.099  0.1393  0.1626 -0.0488
   32SAPC   H4X 4324   1.422   5.066   7.095 -0.7723  0.7634  0.6876
   32SAPC   H4Y 4325   1.376   4.898   7.016  0.0046  0.2657 -0.1577
   32SAPC   C35 4326   1.388   4.917   7.237 -0.4291  0.2304 -0.0325
   32SAPC   H5X 4327   1.497   4.899   7.249 -0.5171  0.6907  1.5901
   32SAPC   H5Y 4328   1.329   4.823   7.244 -2.0608  1.1649 -0.7669
   32SAPC   C36 4329   1.356   5.021   7.339 -0.1863  0.2930  0.3165
   32SAPC   H6X 4330   1.249   5.048   7.325 -0.8635 -2.0153  0.6565
   32SAPC   H6Y 4331   1.420   5.112   7.333  2.0409 -1.2680 -1.5263
   32SAPC   C37 4332   1.382   4.957   7.472  1.1298  0.4717 -0.4933
   32SAPC   H7X 4333   1.490   4.929   7.477  1.7790  2.8047 -0.2167
   32SAPC   H7Y 4334   1.310   4.874   7.486  2.1568 -0.2844  0.5935
   32SAPC   C38 4335   1.369   5.059   7.591  1.2689  0.4189  1.0093
   32SAPC   H8X 4336   1.271   5.110   7.603  1.5686  0.9694  1.1455
   32SAPC   H8Y 4337   1.431   5.149   7.569 -0.7153  1.5415 -0.3130
   32SAPC   C39 4338   1.430   5.012   7.722  0.2120  0.3302  0.2283
   32SAPC   H9X 4339   1.523   4.962   7.687 -1.9499 -2.7409 -1.6289
   32SAPC   H9Y 4340   1.368   4.944   7.784  1.1639  2.0586  3.3196
   32SAPC  C310 4341   1.469   5.125   7.816  0.2773 -0.2278  0.6239
   32SAPC  H10X 4342   1.377   5.183   7.840 -1.5624 -1.5201 -2.5784
   32SAPC  H10Y 4343   1.522   5.204   7.760 -0.8073  1.7813  2.2875
   32SAPC  C311 4344   1.551   5.077   7.927  0.4381  0.5036 -0.0070
   32SAPC  H11X 4345   1.651   5.057   7.885  1.2074  2.3232  0.8381
   32SAPC  H11Y 4346   1.516   4.984   7.977  3.6856  0.0743  1.7057
   32SAPC  C312 4347   1.587   5.165   8.052  0.1583  0.3566 -0.1966
   32SAPC  H12X 4348   1.495   5.170   8.114 -0.4589  1.8695 -1.1634
   32SAPC  H12Y 4349   1.599   5.271   8.020 -0.6408  0.2275 -0.9650
   32SAPC  C313 4350   1.710   5.115   8.122 -0.7894  0.6715  0.4388
   32SAPC  H13X 4351   1.795   5.157   8.064  1.5965  0.2059  3.3299
   32SAPC  H13Y 4352   1.726   5.005   8.127  1.1940  0.9427  0.6466
   32SAPC  C314 4353   1.736   5.167   8.264  0.5402 -0.3962  0.4747
   32SAPC  H14X 4354   1.838   5.154   8.307 -0.1058 -1.1732  1.8152
   32SAPC  H14Y 4355   1.677   5.118   8.344  0.7994  1.5477  1.9346
   32SAPC  C315 4356   1.715   5.317   8.276 -0.0805  0.3377 -0.5651
   32SAPC  H15X 4357   1.706   5.375   8.181  0.7379 -1.1374 -1.5906
   32SAPC  H15Y 4358   1.807   5.349   8.329  0.0022  1.0831 -1.1373
   32SAPC  C316 4359   1.598   5.346   8.366 -0.2100 -0.1986 -0.3058
   32SAPC  H16X 4360   1.623   5.319   8.470  1.1046 -0.7898 -0.7531
   32SAPC  H16Y 4361   1.511   5.290   8.325 -0.3117 -0.7988  0.6937
   32SAPC  C317 4362   1.556   5.498   8.364  0.4305  0.3197  0.8568
   32SAPC  H17X 4363   1.450   5.505   8.396  0.2588 -0.8145  0.5773
   32SAPC  H17Y 4364   1.571   5.542   8.263 -1.3786 -1.0185 -0.0695
   32SAPC  C318 4365   1.640   5.589   8.455 -0.0506  0.7093  0.1739
   32SAPC  H18X 4366   1.616   5.559   8.560 -0.1921  0.9742  0.2206
   32SAPC  H18Y 4367   1.610   5.694   8.432 -0.4389  0.4380 -0.5951
   32SAPC  H18Z 4368   1.747   5.576   8.429  0.0989 -0.6432  1.3178
   33POPC     N 4369   5.548   4.454  10.759  0.3004 -0.9132  1.1751
   33POPC   C12 4370   5.423   4.370  10.757 -0.8707  0.0666  0.5557
   33POPC  H12A 4371   5.340   4.423  10.713 -1.5504 -1.1747  0.2813
   33POPC  H12B 4372   5.397   4.349  10.860 -0.5751 -0.4749  0.5276
   33POPC   C13 4373   5.668   4.385  10.813 -0.2668  0.2776  0.9492
   33POPC  H13A 4374   5.662   4.365  10.919  0.9169  1.1722  1.2075
   33POPC  H13B 4375   5.686   4.289  10.768  0.7340  0.6223  0.5974
   33POPC  H13C 4376   5.760   4.439  10.800  0.2205 -0.9409 -1.1061
   33POPC   C14 4377   5.580   4.504  10.622 -1.2836 -0.1208 -0.4008
   33POPC  H14A 4378   5.663   4.573  10.622 -0.3274 -1.1056 -3.7296
   33POPC  H14B 4379   5.599   4.427  10.548 -0.4878 -0.2222 -0.1097
   33POPC  H14C 4380   5.493   4.554  10.583  0.2114  1.6341 -1.6878
   33POPC   C15 4381   5.526   4.568  10.841 -0.3402  0.4458  0.1827
   33POPC  H15A 4382   5.480   4.647  10.785 -0.1923 -0.5852 -1.4499
   33POPC  H15B 4383   5.618   4.597  10.891 -0.4503 -2.6300  2.4596
   33POPC  H15C 4384   5.469   4.537  10.927  0.3572 -2.9220 -0.3910
   33POPC   C11 4385   5.433   4.233  10.684  0.1260  0.0207 -0.5905
   33POPC  H11A 4386   5.455   4.248  10.576  0.3746 -2.8240 -1.0108
   33POPC  H11B 4387   5.336   4.180  10.681  0.6323 -1.0985  1.3070
   33POPC     P 4388   5.540   4.000  10.728  0.4878 -0.2394  0.0384
   33POPC   O13 4389   5.405   3.939  10.744  0.4920  0.6378  0.0941
   33POPC   O14 4390   5.645   3.941  10.818 -0.0326 -0.5435 -0.5565
   33POPC   O12 4391   5.528   4.155  10.755  0.1438 -0.1074  0.0760
   33POPC   O11 4392   5.579   3.980  10.577 -0.2470 -0.1037 -0.0624
   33POPC    C1 4393   5.691   4.044  10.521 -0.0168  0.1317 -0.0909
   33POPC    HA 4394   5.668   4.152  10.533 -3.0859 -0.6338  2.3708
   33POPC    HB 4395   5.786   4.018  10.572 -1.4231  0.0420  2.6829
   33POPC    C2 4396   5.693   4.016  10.365 -0.2725 -0.1264  0.9271
   33POPC    HS 4397   5.600   4.065  10.328 -1.5475 -0.8614  2.9815
   33POPC   O21 4398   5.696   3.877  10.329  0.2793 -0.0413 -0.0795
   33POPC   C21 4399   5.589   3.824  10.262  0.7223 -0.2476 -0.6506
   33POPC   O22 4400   5.486   3.882  10.235 -0.1670 -0.0825 -0.4447
   33POPC   C22 4401   5.624   3.681  10.234 -0.6494  0.2138  0.0501
   33POPC   H2R 4402   5.558   3.622  10.301 -0.0992 -0.1131  0.3091
   33POPC   H2S 4403   5.732   3.676  10.262 -0.9920  2.2120  2.0645
   33POPC    C3 4404   5.812   4.090  10.299 -0.0088 -0.8784 -0.0380
   33POPC    HX 4405   5.908   4.072  10.351  1.4272  0.9539 -1.8996
   33POPC    HY 4406   5.789   4.195  10.327 -0.6352 -1.3158  1.1745
   33POPC   O31 4407   5.829   4.063  10.162 -0.5969 -0.6443 -0.0368
   33POPC   C31 4408   5.801   4.168  10.075  0.3258  0.5627  0.3728
   33POPC   O32 4409   5.744   4.268  10.108 -0.2945  0.0320 -0.0417
   33POPC   C32 4410   5.839   4.119   9.935  0.3905 -0.2339  0.4487
   33POPC   H2X 4411   5.797   4.017   9.927 -1.9174  0.7701 -1.8620
   33POPC   H2Y 4412   5.950   4.109   9.935  0.3244 -1.0027  1.0249
   33POPC   C23 4413   5.615   3.646  10.088  0.2437 -0.5361  0.8510
   33POPC   H3R 4414   5.512   3.644  10.047  1.1907 -1.3695 -1.6852
   33POPC   H3S 4415   5.647   3.542  10.066 -0.5307 -0.8514  1.1945
   33POPC   C24 4416   5.703   3.735   9.996  1.1820 -0.2204  0.3272
   33POPC   H4R 4417   5.798   3.768  10.044  1.2081 -0.4320  0.4222
   33POPC   H4S 4418   5.647   3.824   9.961  2.0066  0.2542  0.1941
   33POPC   C25 4419   5.747   3.663   9.866  0.0715  0.5599 -0.4719
   33POPC   H5R 4420   5.658   3.632   9.808 -0.7882  0.1941  1.0041
   33POPC   H5S 4421   5.805   3.572   9.892 -1.4280  0.3566  2.4788
   33POPC   C26 4422   5.820   3.738   9.762  0.0597 -0.3174 -0.2736
   33POPC   H6R 4423   5.922   3.772   9.790  0.6534 -0.5119 -2.0591
   33POPC   H6S 4424   5.757   3.828   9.746 -0.8216 -1.1870 -1.9649
   33POPC   C27 4425   5.852   3.654   9.638  0.4187  1.0053 -0.1783
   33POPC   H7R 4426   5.908   3.561   9.661  0.1896  0.8133 -0.3963
   33POPC   H7S 4427   5.910   3.713   9.564 -1.5598  0.5842 -2.1546
   33POPC   C28 4428   5.722   3.594   9.565  0.4301  0.0357 -0.3021
   33POPC   H8R 4429   5.655   3.679   9.542 -1.7723 -1.3841  0.5782
   33POPC   H8S 4430   5.662   3.536   9.638  1.9718 -2.4215 -0.8590
   33POPC   C29 4431   5.753   3.505   9.448 -0.3493  0.2038 -0.4033
   33POPC   H91 4432   5.755   3.399   9.476  0.7320  0.0867 -0.8982
   33POPC  C210 4433   5.785   3.540   9.319  0.3671 -0.8175 -1.0990
   33POPC  H101 4434   5.807   3.448   9.262 -2.8952 -1.3472 -1.6871
   33POPC  C211 4435   5.807   3.678   9.266  0.0063  0.4342 -0.7440
   33POPC  H11R 4436   5.914   3.702   9.248  0.1392 -0.9382 -1.9025
   33POPC  H11S 4437   5.764   3.756   9.334  0.9710 -1.1139  1.7953
   33POPC  C212 4438   5.737   3.690   9.130 -0.3256  0.7672  0.2412
   33POPC  H12R 4439   5.722   3.797   9.103  1.0377  0.9215  0.0158
   33POPC  H12S 4440   5.634   3.662   9.161 -0.2247  2.2502  2.1209
   33POPC  C213 4441   5.784   3.598   9.016  0.2486  0.0859  0.6547
   33POPC  H13R 4442   5.815   3.498   9.054  2.0953 -0.2589 -1.5198
   33POPC  H13S 4443   5.872   3.644   8.967 -0.7749  2.1668  0.6598
   33POPC  C214 4444   5.670   3.578   8.914 -0.1962  0.0775  0.1659
   33POPC  H14R 4445   5.624   3.673   8.881 -1.8131 -1.1018 -1.1408
   33POPC  H14S 4446   5.582   3.523   8.955 -1.1906  0.8323 -0.8987
   33POPC  C215 4447   5.708   3.496   8.789 -0.4791 -0.2204  0.0241
   33POPC  H15R 4448   5.616   3.488   8.727 -1.4691 -0.7726  1.5071
   33POPC  H15S 4449   5.747   3.398   8.821 -0.8246 -0.8302 -1.3454
   33POPC  C216 4450   5.834   3.548   8.711 -0.4421  0.1636 -0.0036
   33POPC  H16R 4451   5.919   3.583   8.772  0.5455 -2.1030  0.0303
   33POPC  H16S 4452   5.785   3.622   8.644  0.0871 -1.3545 -2.1769
   33POPC  C217 4453   5.896   3.451   8.603  0.4734  0.1348 -0.0619
   33POPC  H17R 4454   5.949   3.373   8.661 -0.5675 -0.2415  0.4038
   33POPC  H17S 4455   5.968   3.501   8.535 -1.0040  1.0179 -1.0405
   33POPC  C218 4456   5.790   3.379   8.523 -0.8603 -0.5521  0.0427
   33POPC  H18R 4457   5.838   3.314   8.447 -0.4603 -1.5361  1.0995
   33POPC  H18S 4458   5.718   3.451   8.477 -2.0971 -1.2822  0.7946
   33POPC  H18T 4459   5.730   3.313   8.589 -1.5922  0.4682  0.4327
   33POPC   C33 4460   5.780   4.198   9.816  0.5018 -0.6934  0.0836
   33POPC   H3X 4461   5.780   4.303   9.852  2.5323  0.4614 -2.8149
   33POPC   H3Y 4462   5.676   4.167   9.795  0.0484  0.4007  0.6748
   33POPC   C34 4463   5.864   4.185   9.688  0.0104  0.9022 -0.7845
   33POPC   H4X 4464   5.969   4.210   9.715  0.1646 -1.1240  0.6956
   33POPC   H4Y 4465   5.836   4.255   9.606  1.0055  1.8998 -0.3142
   33POPC   C35 4466   5.865   4.038   9.622 -0.3128  0.3238 -0.5387
   33POPC   H5X 4467   5.764   3.990   9.623  0.4334 -1.3361  0.5388
   33POPC   H5Y 4468   5.923   3.967   9.685 -1.8178  0.3142  0.9191
   33POPC   C36 4469   5.915   4.032   9.475  0.1984 -0.1715 -0.2088
   33POPC   H6X 4470   5.855   4.095   9.407  0.3546 -0.6353 -0.7845
   33POPC   H6Y 4471   5.910   3.925   9.442 -3.4814  0.0669 -0.8200
   33POPC   C37 4472   6.063   4.072   9.462 -0.5068  0.3008 -0.5575
   33POPC   H7X 4473   6.133   4.026   9.536 -0.1532  0.1278 -0.9954
   33POPC   H7Y 4474   6.069   4.183   9.470 -0.1573  0.2005  0.8882
   33POPC   C38 4475   6.109   4.028   9.322 -0.0928 -0.8459  0.4394
   33POPC   H8X 4476   6.035   4.071   9.251 -0.0079 -1.2997  0.0700
   33POPC   H8Y 4477   6.091   3.918   9.322 -1.8976 -0.5946  1.5229
   33POPC   C39 4478   6.247   4.062   9.277 -0.3965 -0.0647 -0.5461
   33POPC   H9X 4479   6.314   4.036   9.361 -0.2776 -1.0045 -0.9060
   33POPC   H9Y 4480   6.261   4.170   9.257  2.3354 -0.1113  0.6615
   33POPC  C310 4481   6.283   3.978   9.155 -0.2215 -0.4738  0.3972
   33POPC  H10X 4482   6.247   3.875   9.175  0.0318 -0.5423  0.5134
   33POPC  H10Y 4483   6.393   3.976   9.139 -0.6838  0.2590 -4.6145
   33POPC  C311 4484   6.212   4.030   9.027 -0.1265  0.8313  0.0637
   33POPC  H11X 4485   6.108   3.990   9.028 -0.1154  0.6602 -2.1536
   33POPC  H11Y 4486   6.257   3.980   8.939 -0.9059  0.3288 -0.0611
   33POPC  C312 4487   6.225   4.180   9.010 -0.0771 -0.3346 -0.5396
   33POPC  H12X 4488   6.332   4.196   9.036 -0.1806 -1.2622  0.4896
   33POPC  H12Y 4489   6.156   4.223   9.085 -0.2022  0.9558 -1.3560
   33POPC  C313 4490   6.191   4.233   8.872  0.5157 -0.5476  0.7007
   33POPC  H13X 4491   6.096   4.188   8.835  0.3720  0.8036 -0.6695
   33POPC  H13Y 4492   6.270   4.187   8.809 -1.3054 -1.5613 -0.9320
   33POPC  C314 4493   6.181   4.387   8.852  0.2683 -0.2454  0.2392
   33POPC  H14X 4494   6.096   4.428   8.910  0.0757 -1.6418  0.9973
   33POPC  H14Y 4495   6.167   4.420   8.746 -0.9983  0.4993  0.6184
   33POPC  C315 4496   6.313   4.465   8.887 -0.3283  0.1018  0.2047
   33POPC  H15X 4497   6.365   4.430   8.979  0.5613  0.1228 -0.2824
   33POPC  H15Y 4498   6.286   4.572   8.899 -0.0023  0.4185 -1.5997
   33POPC  C316 4499   6.420   4.447   8.776  0.4257  0.1658 -0.2248
   33POPC  H16X 4500   6.444   4.339   8.771 -1.1425 -0.3737  2.2518
   33POPC  H16Y 4501   6.507   4.515   8.789  0.2932  0.3861 -0.4711
   33POPC  H16Z 4502   6.371   4.468   8.679  0.7896  1.9049 -0.0668
   34POPC     N 4503   0.059   3.208  10.770 -0.6980 -0.7381  0.0403
   34POPC   C12 4504  -0.044   3.207  10.659  0.0890  0.4512 -0.2967
   34POPC  H12A 4505  -0.010   3.133  10.588 -0.8413 -0.5703  0.3097
   34POPC  H12B 4506  -0.049   3.306  10.615 -0.0188 -0.5863 -2.8215
   34POPC   C13 4507   0.086   3.068  10.827  0.0605  0.1829  0.8433
   34POPC  H13A 4508   0.166   3.067  10.899  0.6941 -0.9015  0.1518
   34POPC  H13B 4509  -0.006   3.020  10.859  0.6707 -2.6192 -1.2316
   34POPC  H13C 4510   0.127   3.021  10.739 -1.5005  1.7846 -0.8309
   34POPC   C14 4511   0.191   3.258  10.716 -0.3046 -0.0714 -0.6740
   34POPC  H14A 4512   0.264   3.268  10.795  0.0968  0.6184 -1.1265
   34POPC  H14B 4513   0.224   3.185  10.644  0.5296 -1.5954  1.1728
   34POPC  H14C 4514   0.189   3.351  10.662 -1.8670 -0.4598 -1.3444
   34POPC   C15 4515   0.010   3.288  10.887 -0.7604 -0.0871 -0.1176
   34POPC  H15A 4516   0.017   3.389  10.851  1.1428  0.4041  1.4723
   34POPC  H15B 4517   0.082   3.278  10.967 -0.9037 -1.7223 -0.1481
   34POPC  H15C 4518  -0.088   3.245  10.904 -0.5137 -1.2259 -1.3836
   34POPC   C11 4519  -0.187   3.160  10.701 -0.2241 -0.3494  0.2320
   34POPC  H11A 4520  -0.261   3.179  10.621  1.7480  1.3222 -1.3137
   34POPC  H11B 4521  -0.226   3.225  10.783  2.0388 -2.0839  2.8659
   34POPC     P 4522  -0.180   2.900  10.677 -0.0028  0.1611 -0.2590
   34POPC   O13 4523  -0.303   2.830  10.667  0.4424 -0.3150 -0.5008
   34POPC   O14 4524  -0.064   2.820  10.725  0.0159 -0.1639 -0.1063
   34POPC   O12 4525  -0.197   3.031  10.757 -0.1979 -0.1194 -0.4641
   34POPC   O11 4526  -0.151   2.967  10.527 -0.2577  0.4353 -0.8942
   34POPC    C1 4527  -0.233   2.926  10.416 -0.6142 -0.2911 -0.8463
   34POPC    HA 4528  -0.198   2.988  10.331  0.7701 -0.0067 -0.0994
   34POPC    HB 4529  -0.343   2.934  10.425 -0.4009  0.8276  1.3908
   34POPC    C2 4530  -0.190   2.778  10.374  0.2800  0.5242 -0.1999
   34POPC    HS 4531  -0.148   2.735  10.467  0.9423  0.7245 -0.3976
   34POPC   O21 4532  -0.098   2.790  10.263 -0.1887  0.0895 -0.8326
   34POPC   C21 4533  -0.032   2.682  10.236  0.0618 -0.6172  0.4959
   34POPC   O22 4534  -0.055   2.574  10.287 -0.0052  0.0488 -0.6152
   34POPC   C22 4535   0.074   2.708  10.125  0.0147 -0.2432 -0.6393
   34POPC   H2R 4536   0.134   2.614  10.118  0.5463  0.0517 -0.2204
   34POPC   H2S 4537   0.140   2.794  10.150 -1.2346 -0.2297  3.2783
   34POPC    C3 4538  -0.315   2.696  10.342  0.8317 -0.1148  0.3565
   34POPC    HX 4539  -0.364   2.701  10.442  0.1819  1.3082 -0.0208
   34POPC    HY 4540  -0.295   2.588  10.322 -0.7191  0.0199 -2.2871
   34POPC   O31 4541  -0.407   2.757  10.249  0.0529 -0.5569  0.0058
   34POPC   C31 4542  -0.396   2.717  10.121  0.4061  0.4346  0.3996
   34POPC   O32 4543  -0.334   2.616  10.090  0.1168 -0.1336  0.2071
   34POPC   C32 4544  -0.491   2.793  10.025  0.1227  0.3094  0.0659
   34POPC   H2X 4545  -0.489   2.901  10.053 -0.6428  0.5834 -0.8703
   34POPC   H2Y 4546  -0.599   2.767  10.033  0.3005 -0.5762 -0.3066
   34POPC   C23 4547   0.022   2.739   9.982 -0.0012  0.6996  0.0373
   34POPC   H3R 4548   0.107   2.786   9.928  1.3585 -0.5696  0.9760
   34POPC   H3S 4549  -0.056   2.818   9.989 -0.4401  0.2662  0.1514
   34POPC   C24 4550   0.004   2.604   9.900  0.1950 -0.7473 -0.0887
   34POPC   H4R 4551  -0.083   2.546   9.936 -0.8429  1.3982  1.0542
   34POPC   H4S 4552   0.104   2.555   9.906  1.8758  2.4219  0.6210
   34POPC   C25 4553  -0.027   2.629   9.749  0.1993 -0.2517 -0.9706
   34POPC   H5R 4554   0.054   2.695   9.712  2.9675 -1.3293  2.5672
   34POPC   H5S 4555  -0.127   2.677   9.743 -0.7231 -1.8920  0.2829
   34POPC   C26 4556  -0.021   2.514   9.649 -0.3228  0.2856  0.2126
   34POPC   H6R 4557  -0.072   2.428   9.698  0.0234 -0.2117 -0.2706
   34POPC   H6S 4558   0.083   2.489   9.619 -0.5278  1.1195 -1.3342
   34POPC   C27 4559  -0.084   2.559   9.511 -0.0362  0.4227 -0.6697
   34POPC   H7R 4560  -0.021   2.635   9.460 -1.4319  1.0652 -1.5097
   34POPC   H7S 4561  -0.184   2.604   9.530 -0.6443 -0.7120 -1.1543
   34POPC   C28 4562  -0.111   2.444   9.420 -0.2912  0.4109  0.0980
   34POPC   H8R 4563  -0.141   2.485   9.321  0.2122 -1.4116 -0.8391
   34POPC   H8S 4564  -0.198   2.389   9.462  0.0585 -0.5233 -0.3933
   34POPC   C29 4565   0.006   2.344   9.399  0.2114 -1.1708 -0.4602
   34POPC   H91 4566   0.076   2.331   9.482  0.3621  0.2866 -0.3309
   34POPC  C210 4567   0.038   2.285   9.281  0.1864  0.0034 -0.3051
   34POPC  H101 4568   0.128   2.222   9.285 -1.4515 -2.4018  2.8702
   34POPC  C211 4569  -0.043   2.305   9.152 -0.0392  0.0785  0.4451
   34POPC  H11R 4570  -0.034   2.409   9.115 -1.2052  0.8033  2.0870
   34POPC  H11S 4571  -0.153   2.301   9.162 -0.0775 -0.6852 -0.2212
   34POPC  C212 4572   0.004   2.223   9.033 -0.0944  0.2258 -0.0229
   34POPC  H12R 4573  -0.079   2.248   8.963 -1.1671 -1.5812  0.5295
   34POPC  H12S 4574  -0.005   2.115   9.060  0.1662  0.1924 -0.0725
   34POPC  C213 4575   0.138   2.265   8.982 -1.0799 -0.3985 -0.1909
   34POPC  H13R 4576   0.217   2.238   9.056 -0.5383 -1.1276 -1.0242
   34POPC  H13S 4577   0.141   2.375   8.965 -2.2970 -0.5654 -1.7054
   34POPC  C214 4578   0.179   2.205   8.844  0.3002 -0.6582 -0.5755
   34POPC  H14R 4579   0.121   2.111   8.827 -0.1682 -0.1111 -2.1534
   34POPC  H14S 4580   0.289   2.190   8.843  0.5302  0.5505  1.5030
   34POPC  C215 4581   0.156   2.299   8.729  0.2838 -0.4944  0.2650
   34POPC  H15R 4582   0.231   2.380   8.718 -0.1597 -0.0469  0.4515
   34POPC  H15S 4583   0.062   2.358   8.742  0.5422  0.0589 -0.3296
   34POPC  C216 4584   0.146   2.224   8.600  0.3746  0.2789  0.5432
   34POPC  H16R 4585   0.076   2.138   8.597  1.0487 -0.2654 -0.0925
   34POPC  H16S 4586   0.244   2.170   8.598  0.4635  0.4559 -0.0578
   34POPC  C217 4587   0.133   2.307   8.469 -0.1853 -0.9534  0.0953
   34POPC  H17R 4588   0.147   2.230   8.391 -0.2549 -1.6401  0.7541
   34POPC  H17S 4589   0.218   2.378   8.478 -0.8935 -0.2914  2.5378
   34POPC  C218 4590  -0.011   2.363   8.463  0.7647 -0.3173 -0.0315
   34POPC  H18R 4591  -0.039   2.409   8.560  1.5134 -2.2730  1.1568
   34POPC  H18S 4592  -0.072   2.271   8.455 -1.6523  1.1417  0.5663
   34POPC  H18T 4593  -0.026   2.427   8.373 -0.7585 -1.9181 -0.9768
   34POPC   C33 4594  -0.475   2.767   9.876 -0.1259  0.5909 -0.4064
   34POPC   H3X 4595  -0.380   2.803   9.830  0.6997 -1.9484 -0.8037
   34POPC   H3Y 4596  -0.543   2.840   9.827  0.5980  1.8741  0.4146
   34POPC   C34 4597  -0.530   2.633   9.834 -0.5572  0.7117  0.5098
   34POPC   H4X 4598  -0.623   2.614   9.892  1.2586 -0.5451  3.2233
   34POPC   H4Y 4599  -0.455   2.556   9.862  2.2587  2.6705 -1.1071
   34POPC   C35 4600  -0.559   2.626   9.680 -0.7690 -0.3954 -0.0256
   34POPC   H5X 4601  -0.623   2.709   9.642  0.8570  1.3585  0.8748
   34POPC   H5Y 4602  -0.626   2.539   9.662 -1.3566  0.2204 -0.8715
   34POPC   C36 4603  -0.438   2.604   9.590 -0.4322  0.4000 -0.3836
   34POPC   H6X 4604  -0.370   2.546   9.656 -1.0763  1.4508  1.2429
   34POPC   H6Y 4605  -0.396   2.706   9.587  0.6864 -0.0577 -0.9752
   34POPC   C37 4606  -0.468   2.541   9.455 -0.0112  0.3667 -0.2876
   34POPC   H7X 4607  -0.521   2.445   9.475 -1.3394  0.7201 -1.9533
   34POPC   H7Y 4608  -0.370   2.518   9.407 -0.0986 -3.2676  0.9525
   34POPC   C38 4609  -0.543   2.632   9.363  0.9153 -0.2344  0.5553
   34POPC   H8X 4610  -0.527   2.739   9.389  1.6862 -0.4551  1.0083
   34POPC   H8Y 4611  -0.652   2.610   9.371  0.4063  1.6048 -0.5968
   34POPC   C39 4612  -0.515   2.599   9.217  0.1837  0.6050  0.6220
   34POPC   H9X 4613  -0.589   2.640   9.145  1.2913 -1.4446 -1.8884
   34POPC   H9Y 4614  -0.514   2.488   9.207 -0.2642  0.7100 -0.8283
   34POPC  C310 4615  -0.380   2.648   9.167  0.1876  0.6640 -0.0658
   34POPC  H10X 4616  -0.301   2.623   9.241 -0.4253  0.7979  0.6606
   34POPC  H10Y 4617  -0.392   2.757   9.147  2.7341  1.0881  0.4049
   34POPC  C311 4618  -0.338   2.582   9.033  0.2974 -0.0878 -1.0521
   34POPC  H11X 4619  -0.407   2.602   8.949 -1.7369 -0.8657  0.3449
   34POPC  H11Y 4620  -0.337   2.472   9.049 -0.4469  0.1818  1.3115
   34POPC  C312 4621  -0.193   2.628   9.001  0.1412 -0.7742 -0.4372
   34POPC  H12X 4622  -0.118   2.591   9.075  0.1668  0.2313  0.0469
   34POPC  H12Y 4623  -0.203   2.738   9.005 -0.6560 -0.8622  2.8384
   34POPC  C313 4624  -0.138   2.592   8.867  0.5856  0.2466 -0.5900
   34POPC  H13X 4625  -0.212   2.601   8.785 -0.6022 -0.5465  0.3417
   34POPC  H13Y 4626  -0.090   2.492   8.861 -0.8745 -0.8126  2.6348
   34POPC  C314 4627  -0.033   2.706   8.826 -1.0196  1.0101  0.3234
   34POPC  H14X 4628   0.060   2.691   8.884 -0.0780  1.1930 -1.0814
   34POPC  H14Y 4629  -0.060   2.812   8.848 -1.4205  1.1070 -0.5603
   34POPC  C315 4630   0.011   2.697   8.675 -0.5482 -0.8449 -0.0185
   34POPC  H15X 4631  -0.075   2.747   8.625  0.5955  0.4928 -0.7165
   34POPC  H15Y 4632   0.029   2.597   8.630 -1.9882 -1.1407  0.0059
   34POPC  C316 4633   0.130   2.789   8.645  0.4984 -0.1413 -0.4029
   34POPC  H16X 4634   0.104   2.894   8.668  0.0733  0.2126 -2.3303
   34POPC  H16Y 4635   0.165   2.787   8.539 -0.0219 -2.9666 -0.5868
   34POPC  H16Z 4636   0.217   2.755   8.705 -0.3156  0.5687  1.2239
   35POPC     N 4637   2.892   4.720  10.813  0.3655 -0.0013 -0.1797
   35POPC   C12 4638   3.045   4.710  10.797 -0.6637 -0.3617 -0.5240
   35POPC  H12A 4639   3.077   4.669  10.703  2.7611  2.3630 -0.7656
   35POPC  H12B 4640   3.078   4.655  10.884 -1.4630  1.7039  1.2044
   35POPC   C13 4641   2.846   4.803  10.698 -0.2224 -0.0685  0.1003
   35POPC  H13A 4642   2.905   4.893  10.698  0.7606 -0.6956  0.5899
   35POPC  H13B 4643   2.874   4.756  10.604 -3.4719 -0.1928 -0.9241
   35POPC  H13C 4644   2.741   4.824  10.706 -0.6049 -2.2120  1.9532
   35POPC   C14 4645   2.825   4.586  10.800 -0.6203  0.4029 -0.3859
   35POPC  H14A 4646   2.718   4.577  10.801 -0.4994 -1.4269 -0.1024
   35POPC  H14B 4647   2.853   4.536  10.708  0.1215  1.5612 -0.8109
   35POPC  H14C 4648   2.863   4.512  10.869 -1.3661 -2.4252 -2.7695
   35POPC   C15 4649   2.847   4.775  10.949 -0.8630  0.2028  0.1330
   35POPC  H15A 4650   2.885   4.711  11.027  3.3029  0.7660 -1.2130
   35POPC  H15B 4651   2.742   4.799  10.940 -0.8501  0.1842 -0.0505
   35POPC  H15C 4652   2.893   4.867  10.982 -1.0495  0.2319  0.3175
   35POPC   C11 4653   3.128   4.845  10.815 -0.2573 -0.2656  0.5337
   35POPC  H11A 4654   3.237   4.827  10.809  0.1299  2.1689 -3.5473
   35POPC  H11B 4655   3.097   4.891  10.911  1.2668  0.5956  0.6429
   35POPC     P 4656   3.070   5.090  10.741  0.1965 -0.3257 -0.1610
   35POPC   O13 4657   3.158   5.150  10.840 -0.3833  0.2779 -0.0938
   35POPC   O14 4658   2.927   5.097  10.771 -0.5253  0.4379  0.2014
   35POPC   O12 4659   3.113   4.939  10.711  0.1315 -0.4651  1.0694
   35POPC   O11 4660   3.088   5.164  10.596 -0.3399  0.0747 -0.3405
   35POPC    C1 4661   3.097   5.091  10.477 -0.0026 -0.1818  0.8272
   35POPC    HA 4662   3.076   5.160  10.392  0.3765  1.8212  2.2758
   35POPC    HB 4663   3.021   5.012  10.458 -0.2807  0.5634 -1.5231
   35POPC    C2 4664   3.241   5.034  10.447 -0.2173  0.3160 -0.0067
   35POPC    HS 4665   3.276   4.990  10.542  1.4086 -0.9750 -1.1393
   35POPC   O21 4666   3.318   5.153  10.426  0.0385 -0.0158  0.1244
   35POPC   C21 4667   3.448   5.132  10.442 -0.2851  0.4987  0.7312
   35POPC   O22 4668   3.501   5.035  10.489 -0.1411 -0.3962 -1.2681
   35POPC   C22 4669   3.533   5.250  10.401  0.0015 -0.2874 -0.0248
   35POPC   H2R 4670   3.583   5.274  10.497  0.4150 -1.3673  0.0433
   35POPC   H2S 4671   3.489   5.345  10.363  1.0681  0.2114 -0.0349
   35POPC    C3 4672   3.254   4.940  10.330 -0.0884  0.7879  0.4266
   35POPC    HX 4673   3.214   4.846  10.374 -2.0085  1.0129 -0.7036
   35POPC    HY 4674   3.358   4.932  10.293 -0.3845  0.9165 -0.4611
   35POPC   O31 4675   3.174   4.982  10.219  0.4231 -0.7093 -0.8095
   35POPC   C31 4676   3.090   4.896  10.165  0.0015 -0.3815  0.1510
   35POPC   O32 4677   3.073   4.779  10.201 -0.1954 -0.4049 -0.3600
   35POPC   C32 4678   3.011   4.960  10.048  0.8195  0.0311 -0.6628
   35POPC   H2X 4679   2.964   5.043  10.104  3.0359  1.3861 -0.7013
   35POPC   H2Y 4680   2.945   4.889   9.993  2.0541 -0.2331 -1.8625
   35POPC   C23 4681   3.639   5.204  10.298  0.4253  0.0720  0.7154
   35POPC   H3R 4682   3.719   5.132  10.324 -0.4328 -1.3927 -0.5849
   35POPC   H3S 4683   3.689   5.296  10.259  0.8267 -0.8958 -1.2124
   35POPC   C24 4684   3.577   5.151  10.165  0.0522  0.3928  0.2670
   35POPC   H4R 4685   3.501   5.215  10.116  0.7272 -0.0394 -1.4237
   35POPC   H4S 4686   3.528   5.055  10.190  2.1426 -0.6151  0.7076
   35POPC   C25 4687   3.692   5.116  10.057  0.2523 -0.2512  0.8211
   35POPC   H5R 4688   3.764   5.043  10.098  0.1673 -1.0164 -0.3385
   35POPC   H5S 4689   3.737   5.213  10.024 -1.3786  0.9916  2.0928
   35POPC   C26 4690   3.616   5.037   9.946  0.6690  0.6889  0.2091
   35POPC   H6R 4691   3.514   5.072   9.919  1.6640  2.5362 -1.3745
   35POPC   H6S 4692   3.594   4.936   9.986 -0.5786  0.4273 -1.0438
   35POPC   C27 4693   3.694   5.015   9.819  0.7226  0.6393 -0.8392
   35POPC   H7R 4694   3.704   5.112   9.765 -0.3323  0.3317 -1.6225
   35POPC   H7S 4695   3.643   4.939   9.756  1.4888 -0.3054 -0.3500
   35POPC   C28 4696   3.845   4.970   9.833  0.2378  0.4766  0.3808
   35POPC   H8R 4697   3.892   5.045   9.900 -1.1523  0.6657  1.1822
   35POPC   H8S 4698   3.900   4.985   9.738  2.0096 -1.9710  0.9227
   35POPC   C29 4699   3.852   4.832   9.889 -0.5528 -0.0108 -0.2613
   35POPC   H91 4700   3.847   4.827   9.999  1.4408  1.8212 -0.0005
   35POPC  C210 4701   3.858   4.721   9.814 -0.6393  0.1402 -0.9285
   35POPC  H101 4702   3.862   4.626   9.868 -0.8074  1.0108  0.6573
   35POPC  C211 4703   3.870   4.714   9.667 -0.3630 -0.2032  0.6220
   35POPC  H11R 4704   3.805   4.790   9.617 -0.9148  0.3016  2.0228
   35POPC  H11S 4705   3.837   4.613   9.635 -1.5612  0.6657 -1.0709
   35POPC  C212 4706   4.018   4.724   9.621  0.1425  0.2853  0.5309
   35POPC  H12R 4707   4.073   4.634   9.654 -1.5019 -0.7756  0.5152
   35POPC  H12S 4708   4.066   4.814   9.665  1.9812 -0.3594 -0.0797
   35POPC  C213 4709   4.017   4.751   9.469 -0.3211  0.3430  0.0147
   35POPC  H13R 4710   4.116   4.785   9.432  0.1905 -1.4573 -0.3897
   35POPC  H13S 4711   3.948   4.836   9.451 -3.1486 -1.7691  0.3570
   35POPC  C214 4712   3.965   4.633   9.394  0.5181  0.6247  0.4246
   35POPC  H14R 4713   3.857   4.622   9.417  0.8976 -1.0048  1.5960
   35POPC  H14S 4714   4.017   4.542   9.431  0.6931  0.7196  0.4120
   35POPC  C215 4715   3.982   4.644   9.243 -0.0231 -0.0237  0.1143
   35POPC  H15R 4716   4.085   4.686   9.230  0.9658 -1.8504  1.6524
   35POPC  H15S 4717   3.912   4.716   9.195 -0.8011 -0.4191  0.6519
   35POPC  C216 4718   3.981   4.511   9.179  0.4495 -0.6443 -0.3333
   35POPC  H16R 4719   3.888   4.456   9.206 -1.0708  1.4531 -0.9899
   35POPC  H16S 4720   4.069   4.460   9.223  0.0038 -0.7524  0.4454
   35POPC  C217 4721   3.994   4.519   9.027 -0.0465  0.0642 -0.3688
   35POPC  H17R 4722   4.030   4.421   8.989  1.2283  0.7846 -1.0969
   35POPC  H17S 4723   4.071   4.590   8.990 -0.9606  1.3893  0.2257
   35POPC  C218 4724   3.866   4.551   8.962  0.1667 -0.7298  0.5270
   35POPC  H18R 4725   3.787   4.488   9.009 -1.4042  1.3556  0.8149
   35POPC  H18S 4726   3.875   4.519   8.856 -2.0826 -1.0558  0.3699
   35POPC  H18T 4727   3.829   4.655   8.972  1.0328 -0.4172  0.5337
   35POPC   C33 4728   3.105   5.029   9.949 -0.0466  0.4253  0.2080
   35POPC   H3X 4729   3.191   5.078   9.998 -1.0593  1.1900  1.2622
   35POPC   H3Y 4730   3.048   5.111   9.901 -0.7531  1.9344  3.3683
   35POPC   C34 4731   3.161   4.939   9.839 -0.2273  0.3837  0.0365
   35POPC   H4X 4732   3.095   4.852   9.821 -0.3867  0.5942 -0.4116
   35POPC   H4Y 4733   3.255   4.889   9.869 -0.4027 -0.2643 -0.4724
   35POPC   C35 4734   3.176   5.020   9.706  0.2317 -0.6549 -0.5342
   35POPC   H5X 4735   3.243   5.106   9.726  1.0102 -1.7053  1.7885
   35POPC   H5Y 4736   3.075   5.054   9.677  0.9770  0.2226 -2.2363
   35POPC   C36 4737   3.249   4.948   9.590 -0.5167  0.6149  0.1638
   35POPC   H6X 4738   3.227   4.841   9.612  0.6831  0.4067  0.4280
   35POPC   H6Y 4739   3.357   4.969   9.606 -0.3019  0.1465 -0.6167
   35POPC   C37 4740   3.201   4.998   9.452  0.3042 -0.2223 -0.2274
   35POPC   H7X 4741   3.234   5.103   9.436  0.0464  0.5399  3.2846
   35POPC   H7Y 4742   3.090   4.988   9.451  0.3023 -1.2227 -3.7834
   35POPC   C38 4743   3.249   4.915   9.328  0.2416 -0.2775  0.6798
   35POPC   H8X 4744   3.231   4.806   9.335  0.1452 -0.3136 -0.0262
   35POPC   H8Y 4745   3.359   4.930   9.326  0.0818  1.0094  0.2113
   35POPC   C39 4746   3.191   4.967   9.192 -0.5116  0.3360  0.3855
   35POPC   H9X 4747   3.240   5.066   9.180 -0.4414  0.4173  1.2764
   35POPC   H9Y 4748   3.081   4.979   9.201 -0.4238  0.7665  0.9770
   35POPC  C310 4749   3.226   4.878   9.074  0.4188 -0.3816 -0.1843
   35POPC  H10X 4750   3.190   4.775   9.094 -0.5285  0.2328  1.4270
   35POPC  H10Y 4751   3.336   4.858   9.068  0.3187 -1.0614  0.1316
   35POPC  C311 4752   3.171   4.927   8.939 -0.7511  0.0875 -0.4351
   35POPC  H11X 4753   3.218   4.873   8.854  2.4063 -0.9790  1.8250
   35POPC  H11Y 4754   3.199   5.033   8.921  0.8463 -0.4624 -1.3690
   35POPC  C312 4755   3.017   4.904   8.928  0.0229 -0.0639  0.2776
   35POPC  H12X 4756   2.974   4.980   8.997 -0.6675  0.0598 -0.2856
   35POPC  H12Y 4757   2.997   4.805   8.974  2.5946 -0.0926  1.5688
   35POPC  C313 4758   2.968   4.910   8.785  0.2506  0.1077 -0.3165
   35POPC  H13X 4759   3.010   4.822   8.732  2.1697  1.2109 -0.7142
   35POPC  H13Y 4760   3.011   4.994   8.727 -0.1409  0.0447 -0.6991
   35POPC  C314 4761   2.820   4.896   8.774  0.6721 -0.2245  0.2611
   35POPC  H14X 4762   2.768   4.994   8.787  2.3234  0.6833  0.2548
   35POPC  H14Y 4763   2.798   4.831   8.861  1.0324 -1.3485 -0.4690
   35POPC  C315 4764   2.770   4.838   8.646  0.2989 -0.2647  0.4694
   35POPC  H15X 4765   2.823   4.742   8.628  2.6941  1.3442 -1.6968
   35POPC  H15Y 4766   2.784   4.909   8.562  2.0416 -0.8870  0.2058
   35POPC  C316 4767   2.623   4.792   8.643 -0.4519  0.3595 -0.0240
   35POPC  H16X 4768   2.552   4.875   8.660  0.8260  1.2367  1.2084
   35POPC  H16Y 4769   2.607   4.708   8.715 -0.0789  0.6887  0.4527
   35POPC  H16Z 4770   2.596   4.749   8.544  0.1009 -1.1445  0.4350
   36POPC     N 4771   1.815   1.137  11.077 -0.2118 -0.0947 -0.0866
   36POPC   C12 4772   1.945   1.088  11.012  0.1519  0.0113  0.1990
   36POPC  H12A 4773   1.925   1.013  10.938  1.1027  0.3444 -0.4150
   36POPC  H12B 4774   2.008   1.050  11.091 -0.5572  0.2737  0.9057
   36POPC   C13 4775   1.744   1.024  11.142 -0.2086 -0.0896  0.4586
   36POPC  H13A 4776   1.710   0.951  11.070  0.3136 -0.3867  0.5029
   36POPC  H13B 4777   1.815   0.970  11.203  2.5878  0.7468 -1.8357
   36POPC  H13C 4778   1.666   1.067  11.202  1.0724  2.3770  0.4586
   36POPC   C14 4779   1.847   1.227  11.193 -0.9070  0.3478  0.4346
   36POPC  H14A 4780   1.754   1.243  11.246 -0.2540  3.6267  0.8244
   36POPC  H14B 4781   1.915   1.178  11.261 -0.5319  0.6652  0.2958
   36POPC  H14C 4782   1.882   1.324  11.159 -1.4363  1.4192  2.7279
   36POPC   C15 4783   1.734   1.228  10.986 -0.6205 -0.0742  0.3690
   36POPC  H15A 4784   1.664   1.286  11.044  0.1671 -0.4722  1.7430
   36POPC  H15B 4785   1.704   1.171  10.899 -0.9659  1.4609 -0.5557
   36POPC  H15C 4786   1.793   1.312  10.951  0.4860 -0.6293  0.8527
   36POPC   C11 4787   2.029   1.190  10.928  0.1777  0.7796  0.3851
   36POPC  H11A 4788   1.965   1.247  10.858  3.3663  2.0367 -1.7478
   36POPC  H11B 4789   2.098   1.140  10.858  0.3013  0.8665  0.4436
   36POPC     P 4790   2.235   1.233  11.076  0.2554 -0.2198 -0.4496
   36POPC   O13 4791   2.215   1.217  11.218  0.4635 -0.0705  0.6007
   36POPC   O14 4792   2.336   1.332  11.034  0.3641  0.2961  0.0355
   36POPC   O12 4793   2.094   1.279  11.007 -0.5587 -0.0911  0.1482
   36POPC   O11 4794   2.266   1.092  11.012  0.5454  0.0809  0.0352
   36POPC    C1 4795   2.388   1.046  10.974 -0.6819 -0.3468  0.8147
   36POPC    HA 4796   2.387   0.935  10.966  1.3302 -0.5274  2.3971
   36POPC    HB 4797   2.460   1.074  11.054 -1.4456 -0.0404  1.4081
   36POPC    C2 4798   2.448   1.093  10.837  0.0514  0.4175 -0.2446
   36POPC    HS 4799   2.431   1.203  10.838  0.3865  0.5323  2.6925
   36POPC   O21 4800   2.361   1.029  10.735 -0.4935 -0.0308 -0.0228
   36POPC   C21 4801   2.299   1.117  10.657 -0.2616  0.3727 -0.1610
   36POPC   O22 4802   2.278   1.236  10.681 -0.1179 -0.2986  0.0237
   36POPC   C22 4803   2.246   1.037  10.528 -0.6049  0.2188 -0.6820
   36POPC   H2R 4804   2.169   1.099  10.477 -0.6467  0.1579 -0.6918
   36POPC   H2S 4805   2.204   0.940  10.560 -0.6092  0.7863  1.1236
   36POPC    C3 4806   2.589   1.048  10.819 -0.4200 -0.5268 -0.5522
   36POPC    HX 4807   2.592   0.939  10.837  2.4717 -0.4014  0.1708
   36POPC    HY 4808   2.651   1.103  10.893 -0.7847  0.5370 -1.0061
   36POPC   O31 4809   2.626   1.083  10.686 -0.0091 -0.1754  0.4641
   36POPC   C31 4810   2.694   0.987  10.617  0.1355  0.3720  0.3447
   36POPC   O32 4811   2.717   0.874  10.660 -0.1885 -0.2987  0.0620
   36POPC   C32 4812   2.729   1.041  10.475 -0.0264  0.4726 -0.0204
   36POPC   H2X 4813   2.829   1.090  10.478  1.0667 -1.6087 -0.5704
   36POPC   H2Y 4814   2.652   1.114  10.442  1.0984  1.5189 -0.3983
   36POPC   C23 4815   2.350   0.997  10.420 -0.3854 -0.0913 -0.2712
   36POPC   H3R 4816   2.437   0.949  10.471 -0.4410 -0.9600 -0.9740
   36POPC   H3S 4817   2.380   1.097  10.383  1.2060 -1.1491 -1.9611
   36POPC   C24 4818   2.293   0.905  10.321  0.2490  0.1800  0.3055
   36POPC   H4R 4819   2.209   0.962  10.277  1.2927  0.0984 -1.9606
   36POPC   H4S 4820   2.270   0.811  10.374  3.6795 -1.5069 -0.8801
   36POPC   C25 4821   2.405   0.871  10.224  0.1539 -0.1531 -0.1895
   36POPC   H5R 4822   2.466   0.795  10.279 -1.8285 -0.7324  1.3238
   36POPC   H5S 4823   2.459   0.961  10.188 -0.7984  0.3202 -0.4609
   36POPC   C26 4824   2.338   0.810  10.101 -0.1414 -0.0995  0.1142
   36POPC   H6R 4825   2.250   0.867  10.064 -0.7484 -0.0593  1.5557
   36POPC   H6S 4826   2.301   0.705  10.108  3.6829 -1.5702  0.8663
   36POPC   C27 4827   2.449   0.792   9.999 -1.0969  0.9867 -0.3078
   36POPC   H7R 4828   2.408   0.715   9.929  1.3692  0.9401 -1.8095
   36POPC   H7S 4829   2.531   0.732  10.043 -0.9954 -1.0063 -2.9616
   36POPC   C28 4830   2.497   0.919   9.920  0.7517 -0.6136 -0.1020
   36POPC   H8R 4831   2.592   0.893   9.868  0.3838 -1.5584 -0.3174
   36POPC   H8S 4832   2.545   0.990   9.991  0.5626 -0.6235  0.0356
   36POPC   C29 4833   2.394   0.978   9.825 -0.2370  0.2520  0.2327
   36POPC   H91 4834   2.304   1.019   9.874 -0.2761  0.8082 -0.3008
   36POPC  C210 4835   2.403   0.988   9.692  0.4320 -0.6405 -0.6920
   36POPC  H101 4836   2.322   1.027   9.629  0.4615 -1.2266 -1.1066
   36POPC  C211 4837   2.533   0.960   9.618 -0.2485 -0.4181 -0.2450
   36POPC  H11R 4838   2.592   0.875   9.658  0.2817  0.0943  0.0847
   36POPC  H11S 4839   2.596   1.052   9.618 -2.2043  0.9956 -0.6884
   36POPC  C212 4840   2.499   0.939   9.468 -0.5697  0.9672  0.0618
   36POPC  H12R 4841   2.452   1.029   9.424 -0.9433  0.2190 -1.1141
   36POPC  H12S 4842   2.440   0.845   9.455 -0.9650  0.7508  2.8043
   36POPC  C213 4843   2.638   0.921   9.391 -0.3067 -0.0648 -0.6987
   36POPC  H13R 4844   2.696   0.845   9.447 -2.9393 -0.6703  1.4394
   36POPC  H13S 4845   2.685   1.020   9.407 -0.7103  0.0825 -0.3966
   36POPC  C214 4846   2.613   0.904   9.237 -0.4751 -0.2756 -0.4840
   36POPC  H14R 4847   2.521   0.960   9.213 -0.1985  0.4131  0.0455
   36POPC  H14S 4848   2.580   0.797   9.233 -0.9364 -0.1123 -3.3058
   36POPC  C215 4849   2.729   0.933   9.139  0.1003 -0.2323 -0.2328
   36POPC  H15R 4850   2.821   0.875   9.160  0.9983  1.1208 -0.3131
   36POPC  H15S 4851   2.759   1.040   9.147  0.2714 -0.2223 -0.9698
   36POPC  C216 4852   2.695   0.906   8.992 -0.0521 -0.3111  0.4144
   36POPC  H16R 4853   2.594   0.948   8.973 -0.2955 -1.0547  0.0179
   36POPC  H16S 4854   2.688   0.796   8.976  0.5435 -0.0911 -1.4970
   36POPC  C217 4855   2.793   0.969   8.883  0.2408  0.5734 -1.1978
   36POPC  H17R 4856   2.900   0.960   8.913  0.1005  1.3462 -0.4323
   36POPC  H17S 4857   2.764   1.075   8.868 -0.5481  0.2876 -1.7842
   36POPC  C218 4858   2.766   0.911   8.743 -1.2481  0.2259  0.4429
   36POPC  H18R 4859   2.821   0.972   8.668 -0.1508  0.1412  1.1531
   36POPC  H18S 4860   2.657   0.901   8.727 -1.1065 -2.0077  0.5517
   36POPC  H18T 4861   2.803   0.807   8.733 -2.5901 -0.1482 -1.0964
   36POPC   C33 4862   2.771   0.925  10.377 -0.5427 -0.0530  0.2986
   36POPC   H3X 4863   2.677   0.868  10.363 -1.0364  0.8946 -0.2959
   36POPC   H3Y 4864   2.852   0.861  10.419 -0.2158  0.7620  0.9547
   36POPC   C34 4865   2.816   0.985  10.244  0.3351  0.4553  0.5147
   36POPC   H4X 4866   2.902   1.053  10.260  1.1677 -0.6453  0.8116
   36POPC   H4Y 4867   2.735   1.052  10.209  1.6013  1.6432 -0.2310
   36POPC   C35 4868   2.838   0.880  10.136 -0.0891  0.0129 -0.0405
   36POPC   H5X 4869   2.744   0.823  10.122 -0.4592  0.9426 -1.5928
   36POPC   H5Y 4870   2.924   0.820  10.175  0.1810  0.5974  0.2717
   36POPC   C36 4871   2.881   0.942  10.004  0.5360  0.0323 -0.1479
   36POPC   H6X 4872   2.974   1.004  10.006  2.4871 -2.7122 -0.1714
   36POPC   H6Y 4873   2.809   1.024   9.983 -0.0234 -0.6331 -0.8604
   36POPC   C37 4874   2.881   0.855   9.876 -0.6128 -0.8062  0.5041
   36POPC   H7X 4875   2.787   0.798   9.857 -0.9502  0.0408 -0.4632
   36POPC   H7Y 4876   2.960   0.778   9.889 -1.0944 -1.0588  2.2299
   36POPC   C38 4877   2.906   0.927   9.741 -0.2341  0.5362  0.2502
   36POPC   H8X 4878   3.002   0.981   9.756 -1.1974  2.2392  0.6285
   36POPC   H8Y 4879   2.835   1.007   9.710 -0.3605  0.4689  0.3675
   36POPC   C39 4880   2.911   0.825   9.625 -0.5390  0.3415  0.1670
   36POPC   H9X 4881   2.805   0.794   9.612 -0.2711 -2.3323  3.1208
   36POPC   H9Y 4882   2.954   0.728   9.657 -3.7914 -1.1494  0.4379
   36POPC  C310 4883   2.977   0.888   9.503  1.0088  0.0332  0.0517
   36POPC  H10X 4884   3.079   0.924   9.526 -0.0360  2.4405  1.2071
   36POPC  H10Y 4885   2.907   0.971   9.480  0.5507 -0.4966 -0.5359
   36POPC  C311 4886   2.988   0.806   9.371  0.0359 -0.3800  0.1207
   36POPC  H11X 4887   2.887   0.790   9.328 -1.0249  1.4494  1.7433
   36POPC  H11Y 4888   3.028   0.710   9.410  1.4040  0.0047 -0.2525
   36POPC  C312 4889   3.092   0.856   9.271 -0.2729  0.0388  0.1216
   36POPC  H12X 4890   3.194   0.858   9.315  0.2478 -2.0615 -0.8628
   36POPC  H12Y 4891   3.056   0.954   9.232 -2.5415 -0.4182  0.8948
   36POPC  C313 4892   3.096   0.778   9.133  0.0424 -0.6010 -0.1553
   36POPC  H13X 4893   2.997   0.784   9.083 -0.0347 -1.9557 -0.1987
   36POPC  H13Y 4894   3.110   0.670   9.156  0.2577 -0.5985 -0.2685
   36POPC  C314 4895   3.194   0.841   9.032 -0.5551  0.2557  0.5160
   36POPC  H14X 4896   3.285   0.838   9.096  0.1509 -1.1073 -0.4951
   36POPC  H14Y 4897   3.178   0.949   9.015  1.3444  0.7060  1.3157
   36POPC  C315 4898   3.216   0.768   8.898 -0.8523  0.1708 -0.1022
   36POPC  H15X 4899   3.253   0.665   8.914  0.7787  1.0515  2.3278
   36POPC  H15Y 4900   3.303   0.807   8.841 -0.3071  0.3262  0.8254
   36POPC  C316 4901   3.091   0.765   8.812 -0.1546 -0.8322 -0.1789
   36POPC  H16X 4902   2.997   0.733   8.860 -0.4578 -0.8532 -0.7803
   36POPC  H16Y 4903   3.110   0.713   8.715 -0.6815 -1.0267 -0.1771
   36POPC  H16Z 4904   3.082   0.873   8.789  2.5190 -0.2268  1.1844
   37POPC     N 4905   2.757   2.547   6.298  0.0854  0.8294  0.0840
   37POPC   C12 4906   2.715   2.692   6.312 -0.3787 -0.2991  0.2818
   37POPC  H12A 4907   2.624   2.696   6.370 -0.0969  0.6561  0.6798
   37POPC  H12B 4908   2.712   2.737   6.214  4.0392 -0.3094 -0.0433
   37POPC   C13 4909   2.791   2.497   6.439  0.2271  0.3132  0.1070
   37POPC  H13A 4910   2.699   2.506   6.495 -0.6693 -0.6887 -1.1434
   37POPC  H13B 4911   2.826   2.396   6.423 -1.1179 -0.3308  1.0476
   37POPC  H13C 4912   2.868   2.558   6.484  0.8795 -0.4593  0.0642
   37POPC   C14 4913   2.644   2.470   6.235 -0.2757 -0.4981  0.4948
   37POPC  H14A 4914   2.614   2.516   6.142 -1.9574 -0.7406  0.8848
   37POPC  H14B 4915   2.669   2.368   6.210 -0.1525 -0.1024 -1.1044
   37POPC  H14C 4916   2.557   2.460   6.298  0.3399 -1.6993  1.1961
   37POPC   C15 4917   2.877   2.529   6.214  0.5246 -0.1361  0.1554
   37POPC  H15A 4918   2.860   2.564   6.113  1.1243  0.5086  0.2717
   37POPC  H15B 4919   2.892   2.424   6.197  3.2030  0.1113  0.5826
   37POPC  H15C 4920   2.966   2.575   6.253  0.4702  0.3040 -0.2251
   37POPC   C11 4921   2.816   2.778   6.390  0.0868 -0.0907  0.7584
   37POPC  H11A 4922   2.781   2.880   6.363 -0.2834 -0.9919 -2.6030
   37POPC  H11B 4923   2.918   2.787   6.347  1.0088  1.2684  3.0908
   37POPC     P 4924   2.734   2.835   6.622 -0.1325  0.2693  0.2902
   37POPC   O13 4925   2.687   2.759   6.733  0.6566 -0.1987 -0.5447
   37POPC   O14 4926   2.632   2.891   6.536 -0.2390 -0.3353  0.4504
   37POPC   O12 4927   2.823   2.746   6.530  0.2814 -0.3803  0.3864
   37POPC   O11 4928   2.827   2.943   6.684  0.4669 -0.1220  0.7928
   37POPC    C1 4929   2.975   2.913   6.677  1.1677 -0.2334 -0.7270
   37POPC    HA 4930   3.014   2.942   6.577 -0.4082  0.0569 -1.2797
   37POPC    HB 4931   2.991   2.804   6.691  2.3683  0.2783  3.3741
   37POPC    C2 4932   3.051   2.987   6.791  1.0159  0.3277 -0.3598
   37POPC    HS 4933   3.157   2.955   6.781  0.9043 -0.2316  0.1508
   37POPC   O21 4934   3.000   2.951   6.920  0.0320 -0.0034  0.2931
   37POPC   C21 4935   3.048   2.837   6.979 -0.3239 -0.0518  0.9273
   37POPC   O22 4936   3.108   2.748   6.927 -0.2310  0.7667 -0.1705
   37POPC   C22 4937   3.036   2.858   7.127 -0.3499 -1.0590  0.1061
   37POPC   H2R 4938   2.929   2.858   7.157 -0.6507 -1.1425 -0.9008
   37POPC   H2S 4939   3.078   2.956   7.159 -3.8487  0.6492  0.0071
   37POPC    C3 4940   3.042   3.147   6.783  0.0986  0.1694 -0.4439
   37POPC    HX 4941   2.932   3.163   6.786  0.2300  0.8775  1.7563
   37POPC    HY 4942   3.094   3.171   6.688  0.4088 -0.2376 -0.3798
   37POPC   O31 4943   3.108   3.197   6.906  0.2676 -0.2072  0.5797
   37POPC   C31 4944   3.133   3.322   6.894 -0.2844 -0.3500  0.0477
   37POPC   O32 4945   3.132   3.379   6.785 -0.3368  0.5342  0.0753
   37POPC   C32 4946   3.162   3.389   7.025  0.3095  0.5869 -0.1506
   37POPC   H2X 4947   3.068   3.430   7.066  0.3433 -0.4857  1.0684
   37POPC   H2Y 4948   3.218   3.482   7.001 -0.2893  0.5369 -1.9581
   37POPC   C23 4949   3.110   2.752   7.210  0.3791  0.0792 -0.6088
   37POPC   H3R 4950   3.214   2.740   7.172  0.0517 -0.0381 -1.5031
   37POPC   H3S 4951   3.060   2.653   7.200 -0.8078  0.2365  2.5722
   37POPC   C24 4952   3.116   2.789   7.361  0.8989 -0.6711 -0.3492
   37POPC   H4R 4953   3.023   2.841   7.391  0.7557 -1.6962  1.0983
   37POPC   H4S 4954   3.195   2.865   7.380 -1.2957  1.6251  0.0529
   37POPC   C25 4955   3.133   2.676   7.460  1.0552 -0.0805  0.2676
   37POPC   H5R 4956   3.212   2.600   7.442  0.1814 -1.8682  3.3271
   37POPC   H5S 4957   3.038   2.619   7.464  2.1920 -2.0757  0.3271
   37POPC   C26 4958   3.149   2.735   7.599 -0.0498  0.7858 -0.3971
   37POPC   H6R 4959   3.060   2.799   7.612 -2.5646 -2.4974  0.0660
   37POPC   H6S 4960   3.245   2.790   7.597  0.6480 -0.2527  1.7212
   37POPC   C27 4961   3.144   2.625   7.720  0.5514  0.1921 -0.3335
   37POPC   H7R 4962   3.211   2.546   7.680  1.6298  1.4079 -1.0197
   37POPC   H7S 4963   3.040   2.586   7.728  0.8586 -0.3429  1.3599
   37POPC   C28 4964   3.185   2.672   7.860  0.8555  0.5106  0.4775
   37POPC   H8R 4965   3.165   2.586   7.927  1.9788  1.0599  1.5491
   37POPC   H8S 4966   3.110   2.751   7.881 -3.6808 -2.5933 -2.1347
   37POPC   C29 4967   3.328   2.718   7.868 -1.1317 -0.6540 -0.0668
   37POPC   H91 4968   3.346   2.820   7.830 -0.4541 -0.3908  0.9355
   37POPC  C210 4969   3.439   2.648   7.906 -0.2189  0.2244 -0.4006
   37POPC  H101 4970   3.541   2.688   7.895  0.7201 -1.8771  0.1381
   37POPC  C211 4971   3.436   2.509   7.957 -0.0692 -0.3114  0.5206
   37POPC  H11R 4972   3.507   2.448   7.896  0.7470  1.4967 -0.4115
   37POPC  H11S 4973   3.339   2.455   7.961 -0.2664  0.0777  1.0463
   37POPC  C212 4974   3.478   2.507   8.108  0.5030 -0.1791 -0.2800
   37POPC  H12R 4975   3.398   2.547   8.173  0.9919  0.5142 -0.0907
   37POPC  H12S 4976   3.565   2.576   8.117  0.1932  0.2510 -0.5913
   37POPC  C213 4977   3.514   2.372   8.165 -0.4147  0.8351  0.7055
   37POPC  H13R 4978   3.616   2.339   8.137 -0.5545  0.9657  0.0345
   37POPC  H13S 4979   3.443   2.298   8.122  1.2606  0.0069 -0.7086
   37POPC  C214 4980   3.497   2.352   8.315  0.4141 -0.2194 -0.4440
   37POPC  H14R 4981   3.399   2.372   8.362  1.3609  0.2406  1.4086
   37POPC  H14S 4982   3.572   2.418   8.364  1.8684 -1.5883 -0.7568
   37POPC  C215 4983   3.545   2.215   8.350 -0.4802  0.4632  0.6026
   37POPC  H15R 4984   3.649   2.202   8.314 -0.5717 -0.3622  0.6239
   37POPC  H15S 4985   3.487   2.144   8.287 -0.6493 -0.3096  1.5951
   37POPC  C216 4986   3.542   2.187   8.507 -0.0630 -0.3720  0.5477
   37POPC  H16R 4987   3.435   2.184   8.538 -0.2033  0.2019  0.1216
   37POPC  H16S 4988   3.594   2.272   8.556 -1.6541  0.2559  1.2065
   37POPC  C217 4989   3.621   2.067   8.551  0.0306  0.5627  0.1041
   37POPC  H17R 4990   3.611   2.070   8.661  0.5022  3.8225  0.1543
   37POPC  H17S 4991   3.728   2.069   8.522  0.7231 -0.5378  2.3703
   37POPC  C218 4992   3.554   1.940   8.497 -0.5758  0.2597 -0.1210
   37POPC  H18R 4993   3.446   1.933   8.521 -0.1778 -1.3164  1.4730
   37POPC  H18S 4994   3.594   1.843   8.533 -1.3168 -0.1985 -0.5033
   37POPC  H18T 4995   3.552   1.937   8.386 -0.9301 -2.4039 -0.1258
   37POPC   C33 4996   3.231   3.306   7.137  0.1122 -0.2361 -0.2895
   37POPC   H3X 4997   3.314   3.244   7.099  0.6860  2.5427 -4.1291
   37POPC   H3Y 4998   3.153   3.241   7.182  0.0175 -0.0297 -0.1505
   37POPC   C34 4999   3.264   3.392   7.255  0.6328 -0.3761 -0.1413
   37POPC   H4X 5000   3.185   3.467   7.274 -1.0210 -1.9798 -0.4783
   37POPC   H4Y 5001   3.357   3.450   7.239 -0.1794  0.4940 -1.9686
   37POPC   C35 5002   3.274   3.312   7.387  0.4043  0.4394  0.3272
   37POPC   H5X 5003   3.353   3.234   7.380 -0.0855 -0.0017 -0.3489
   37POPC   H5Y 5004   3.177   3.260   7.398  0.8275 -0.9848 -2.0577
   37POPC   C36 5005   3.282   3.403   7.512 -0.2082 -0.2735  0.6735
   37POPC   H6X 5006   3.204   3.480   7.495 -0.5888 -0.6909  0.5260
   37POPC   H6Y 5007   3.378   3.459   7.501  0.3143 -1.0617  1.0906
   37POPC   C37 5008   3.286   3.334   7.649  0.6389  0.2275  0.1168
   37POPC   H7X 5009   3.309   3.406   7.731  1.1142 -0.5239  0.6475
   37POPC   H7Y 5010   3.380   3.275   7.649 -2.0000 -4.4976 -0.3691
   37POPC   C38 5011   3.178   3.235   7.671  0.5545 -0.0833 -0.6174
   37POPC   H8X 5012   3.197   3.150   7.602  0.3069  0.1859 -1.0245
   37POPC   H8Y 5013   3.080   3.282   7.646 -1.9587 -3.0797  2.7314
   37POPC   C39 5014   3.159   3.191   7.816  0.3167 -0.4511  0.0810
   37POPC   H9X 5015   3.145   3.273   7.890  2.7279  0.9848 -0.9144
   37POPC   H9Y 5016   3.237   3.130   7.868 -0.7533  0.8815  3.5481
   37POPC  C310 5017   3.038   3.100   7.832 -0.4480  0.2686  0.1636
   37POPC  H10X 5018   3.081   3.001   7.804  3.8000  0.7176  4.0461
   37POPC  H10Y 5019   2.970   3.146   7.757 -2.9245 -1.9470  0.8641
   37POPC  C311 5020   2.960   3.097   7.959  0.7035 -0.0573 -0.3596
   37POPC  H11X 5021   2.854   3.091   7.927 -0.0462 -1.9137  2.1698
   37POPC  H11Y 5022   2.965   3.200   8.001 -1.6311  0.7816 -1.9618
   37POPC  C312 5023   2.999   2.989   8.061 -0.4065  0.0199  0.1750
   37POPC  H12X 5024   2.970   2.893   8.014 -1.8013  0.7084 -0.4370
   37POPC  H12Y 5025   2.938   2.994   8.154 -0.8292 -1.1731 -0.0267
   37POPC  C313 5026   3.146   3.002   8.095 -0.0788  0.5440 -0.6582
   37POPC  H13X 5027   3.171   3.107   8.121 -0.3037  0.1628  1.2516
   37POPC  H13Y 5028   3.214   2.973   8.012 -1.4710  1.0086 -2.0012
   37POPC  C314 5029   3.180   2.920   8.220  0.5280 -0.0062 -0.1317
   37POPC  H14X 5030   3.172   2.810   8.206 -0.0432  0.1658 -1.3038
   37POPC  H14Y 5031   3.104   2.956   8.293 -2.5322 -1.0235 -2.6082
   37POPC  C315 5032   3.320   2.956   8.279 -0.6239  0.5249  0.1026
   37POPC  H15X 5033   3.344   2.891   8.366  0.7305  2.0334  0.9029
   37POPC  H15Y 5034   3.328   3.061   8.313  0.2233  0.5472 -0.1249
   37POPC  C316 5035   3.430   2.939   8.176 -0.2716 -0.2979 -0.8837
   37POPC  H16X 5036   3.413   3.011   8.093  1.7030 -0.3744 -1.4070
   37POPC  H16Y 5037   3.438   2.839   8.128 -0.5621  0.5552 -2.8271
   37POPC  H16Z 5038   3.529   2.957   8.224 -0.0696 -0.4276 -1.2464
   38POPC     N 5039   6.255   1.592   6.583  0.4321  0.8385 -0.2174
   38POPC   C12 5040   6.255   1.460   6.658 -0.1005  0.1515  0.0534
   38POPC  H12A 5041   6.191   1.387   6.610  0.8405  0.2693 -1.4407
   38POPC  H12B 5042   6.209   1.475   6.755 -1.0602 -0.4477 -0.2934
   38POPC   C13 5043   6.279   1.573   6.435  0.0025  0.0339 -0.0719
   38POPC  H13A 5044   6.191   1.553   6.375  0.2655  2.0024 -1.2108
   38POPC  H13B 5045   6.325   1.662   6.395 -1.1040 -0.4052 -2.5288
   38POPC  H13C 5046   6.350   1.493   6.420  1.6454  1.7818 -2.1368
   38POPC   C14 5047   6.124   1.659   6.599  0.1611 -0.3687  0.2345
   38POPC  H14A 5048   6.104   1.750   6.544 -1.8936 -1.4475 -0.8988
   38POPC  H14B 5049   6.050   1.593   6.557 -0.7937  1.3359 -0.8880
   38POPC  H14C 5050   6.097   1.676   6.703 -0.2543  0.4243  0.0049
   38POPC   C15 5051   6.366   1.676   6.631  0.8151  0.2567  0.1213
   38POPC  H15A 5052   6.459   1.622   6.619  0.0835 -1.5806  2.0551
   38POPC  H15B 5053   6.355   1.701   6.735  1.8234  0.3992  0.2105
   38POPC  H15C 5054   6.378   1.765   6.571  2.8922  0.1622  0.3005
   38POPC   C11 5055   6.395   1.397   6.690  0.1256 -0.4710  0.0229
   38POPC  H11A 5056   6.385   1.315   6.764  1.8070 -1.4563 -0.7891
   38POPC  H11B 5057   6.453   1.478   6.740  0.3797  0.4982 -1.7570
   38POPC     P 5058   6.602   1.398   6.522  0.0263  0.2448  0.3538
   38POPC   O13 5059   6.626   1.533   6.574 -0.3399 -0.7377 -0.0199
   38POPC   O14 5060   6.611   1.397   6.372 -0.0890  0.0460 -0.1906
   38POPC   O12 5061   6.457   1.346   6.571  0.3205 -0.0682  0.3188
   38POPC   O11 5062   6.704   1.299   6.579  0.4643 -0.1242  0.2498
   38POPC    C1 5063   6.704   1.162   6.532 -0.3557  0.5811  0.0769
   38POPC    HA 5064   6.807   1.120   6.535 -0.4677  0.3083  0.1408
   38POPC    HB 5065   6.672   1.164   6.426  0.0358 -0.0071 -0.0545
   38POPC    C2 5066   6.618   1.064   6.619 -0.0394  0.2075  0.0188
   38POPC    HS 5067   6.520   1.117   6.620  0.6509  1.5212  0.0617
   38POPC   O21 5068   6.672   1.069   6.751 -0.1477  0.0776  0.0425
   38POPC   C21 5069   6.583   1.074   6.848 -0.2537 -0.2592  0.3612
   38POPC   O22 5070   6.462   1.057   6.828  0.0338  0.0077 -0.3323
   38POPC   C22 5071   6.655   1.100   6.982  0.0910  0.0576  0.1166
   38POPC   H2R 5072   6.756   1.143   6.968 -0.5639  0.8214 -3.1776
   38POPC   H2S 5073   6.656   1.005   7.040 -0.4717  0.8500  1.4798
   38POPC    C3 5074   6.615   0.916   6.573 -0.1519 -0.1779 -0.1026
   38POPC    HX 5075   6.720   0.885   6.591  0.1442  0.1589 -1.1894
   38POPC    HY 5076   6.586   0.903   6.467 -0.9466  0.3511  0.0399
   38POPC   O31 5077   6.535   0.829   6.660 -0.4321  0.0383 -0.0955
   38POPC   C31 5078   6.409   0.837   6.624 -0.3477 -0.7220 -0.1430
   38POPC   O32 5079   6.359   0.919   6.550  0.4362  0.0931  0.1321
   38POPC   C32 5080   6.319   0.734   6.706 -0.1188 -0.4187 -0.0493
   38POPC   H2X 5081   6.251   0.680   6.637  0.8305 -2.5496  0.5912
   38POPC   H2Y 5082   6.254   0.792   6.776 -0.1643 -0.1195 -0.3376
   38POPC   C23 5083   6.576   1.192   7.079  0.3833 -0.7129  0.1028
   38POPC   H3R 5084   6.472   1.155   7.093  0.3311 -0.7107 -0.2644
   38POPC   H3S 5085   6.557   1.287   7.025  1.3024 -1.4706 -1.6370
   38POPC   C24 5086   6.636   1.226   7.211 -0.6069 -0.5125 -0.0469
   38POPC   H4R 5087   6.708   1.309   7.198 -1.8218  0.7629  0.9596
   38POPC   H4S 5088   6.691   1.136   7.248  2.1947  0.9076 -0.5383
   38POPC   C25 5089   6.527   1.272   7.317  0.5297  0.6581  0.1796
   38POPC   H5R 5090   6.468   1.179   7.331  1.3824 -0.2620 -1.9093
   38POPC   H5S 5091   6.449   1.335   7.270 -0.2609  0.5041  1.2424
   38POPC   C26 5092   6.589   1.312   7.448  0.4345  0.3080  0.1022
   38POPC   H6R 5093   6.676   1.380   7.434 -0.1551  1.0130 -0.2198
   38POPC   H6S 5094   6.623   1.221   7.502 -1.0976 -1.7185 -2.1428
   38POPC   C27 5095   6.498   1.396   7.534  0.0030 -0.8602 -0.6784
   38POPC   H7R 5096   6.415   1.333   7.572  0.0354 -0.3333  0.3062
   38POPC   H7S 5097   6.452   1.485   7.485 -0.7936  0.2840  1.9784
   38POPC   C28 5098   6.580   1.439   7.656 -0.3130  0.2903 -0.8279
   38POPC   H8R 5099   6.655   1.509   7.615 -0.2159  0.3621 -0.5267
   38POPC   H8S 5100   6.634   1.350   7.694 -0.4663  0.0612 -1.1444
   38POPC   C29 5101   6.504   1.510   7.764 -0.1310  0.2388 -0.0369
   38POPC   H91 5102   6.482   1.615   7.737  0.9304  0.5141  0.1116
   38POPC  C210 5103   6.473   1.463   7.885 -0.6284  0.9154  0.8184
   38POPC  H101 5104   6.422   1.533   7.954  1.7546  1.6462  1.9178
   38POPC  C211 5105   6.503   1.325   7.948 -0.4104 -0.1654 -0.0652
   38POPC  H11R 5106   6.585   1.283   7.887  0.4866  1.9875 -0.4183
   38POPC  H11S 5107   6.413   1.260   7.956  0.8750 -1.8760  1.2497
   38POPC  C212 5108   6.576   1.343   8.083 -0.0363 -0.1452 -0.0280
   38POPC  H12R 5109   6.512   1.388   8.162  1.0514 -0.2516  0.9420
   38POPC  H12S 5110   6.667   1.407   8.075  0.4193 -0.7553  0.1183
   38POPC  C213 5111   6.619   1.202   8.139  0.0638  1.1256  0.1544
   38POPC  H13R 5112   6.674   1.144   8.061 -0.3765  0.4276  0.3620
   38POPC  H13S 5113   6.528   1.143   8.163  0.8117 -1.0269 -1.9064
   38POPC  C214 5114   6.713   1.219   8.253 -0.2791  0.2076  0.2653
   38POPC  H14R 5115   6.679   1.290   8.332  0.5776 -0.2249  1.0366
   38POPC  H14S 5116   6.801   1.266   8.204 -1.9669  1.7474 -1.5035
   38POPC  C215 5117   6.749   1.085   8.317 -0.1947  0.4446  0.0866
   38POPC  H15R 5118   6.783   1.017   8.236 -0.0658 -1.3904  1.6095
   38POPC  H15S 5119   6.657   1.038   8.357  0.2845 -0.6008 -0.0193
   38POPC  C216 5120   6.846   1.096   8.434 -0.2550 -0.5036  0.1349
   38POPC  H16R 5121   6.841   1.195   8.485 -1.7220 -1.0081  1.0370
   38POPC  H16S 5122   6.949   1.071   8.401  0.2439 -0.7486  1.7828
   38POPC  C217 5123   6.818   0.992   8.549 -0.4486 -0.3513 -0.8042
   38POPC  H17R 5124   6.818   0.888   8.509 -0.1237 -1.1864  1.2408
   38POPC  H17S 5125   6.712   1.006   8.580 -0.3281 -0.3940 -0.3585
   38POPC  C218 5126   6.923   0.999   8.664  0.0039  0.4978  0.0055
   38POPC  H18R 5127   7.028   0.980   8.634 -0.6256 -0.3340 -1.8314
   38POPC  H18S 5128   6.905   0.916   8.735  1.1709  0.3927  0.1841
   38POPC  H18T 5129   6.916   1.091   8.726 -0.8851 -0.4588  1.3900
   38POPC   C33 5130   6.402   0.633   6.783  0.0428 -0.0250 -0.3798
   38POPC   H3X 5131   6.487   0.596   6.721 -0.1860 -0.4693 -0.4275
   38POPC   H3Y 5132   6.343   0.543   6.808  0.6820 -0.0229  1.2511
   38POPC   C34 5133   6.461   0.700   6.909  0.6825  0.2581 -0.0916
   38POPC   H4X 5134   6.516   0.793   6.883 -0.8461  1.1912 -0.1198
   38POPC   H4Y 5135   6.536   0.634   6.956  1.9220  0.9414 -1.0536
   38POPC   C35 5136   6.364   0.753   7.017  0.5434  0.2759 -1.1045
   38POPC   H5X 5137   6.285   0.679   7.043 -0.1160  1.2996 -0.0783
   38POPC   H5Y 5138   6.302   0.842   6.990 -0.8832 -0.8306 -1.5784
   38POPC   C36 5139   6.432   0.802   7.143 -0.4024  0.5680 -0.1885
   38POPC   H6X 5140   6.497   0.890   7.118  1.6625 -0.5299  1.0272
   38POPC   H6Y 5141   6.500   0.726   7.186  0.6368  0.8565 -1.2521
   38POPC   C37 5142   6.345   0.883   7.234  0.0529  0.3963  0.3644
   38POPC   H7X 5143   6.250   0.826   7.236 -0.2518  0.8596 -0.4093
   38POPC   H7Y 5144   6.327   0.978   7.180  0.8579  0.2099 -0.2381
   38POPC   C38 5145   6.398   0.921   7.377  0.0372 -0.4786  0.1111
   38POPC   H8X 5146   6.329   1.004   7.403 -1.4193 -1.3922 -0.7027
   38POPC   H8Y 5147   6.505   0.949   7.373  0.2930 -1.1590  1.4093
   38POPC   C39 5148   6.380   0.813   7.485 -0.2052  0.0350 -0.1838
   38POPC   H9X 5149   6.449   0.729   7.462 -1.7905 -1.6857  0.9967
   38POPC   H9Y 5150   6.277   0.769   7.486 -0.5921  0.9127  0.9199
   38POPC  C310 5151   6.404   0.867   7.631  0.2841 -0.5148  0.2309
   38POPC  H10X 5152   6.490   0.937   7.633 -1.0453  1.1826 -0.1309
   38POPC  H10Y 5153   6.423   0.782   7.700  1.2834  0.0218  0.6380
   38POPC  C311 5154   6.280   0.940   7.677  0.4220 -0.0051 -0.6687
   38POPC  H11X 5155   6.186   0.881   7.675  0.0600  0.5569 -0.5616
   38POPC  H11Y 5156   6.265   1.028   7.610 -0.7795  2.1497  2.1921
   38POPC  C312 5157   6.293   0.998   7.821  0.6461 -0.4656 -0.1320
   38POPC  H12X 5158   6.191   1.042   7.834  0.0289 -0.9720 -2.6213
   38POPC  H12Y 5159   6.372   1.075   7.833 -0.3739  0.2702  2.5716
   38POPC  C313 5160   6.317   0.892   7.930  0.0158 -0.1686 -0.0728
   38POPC  H13X 5161   6.421   0.857   7.910 -0.7524 -2.0068 -1.0535
   38POPC  H13Y 5162   6.252   0.803   7.915  0.8539 -0.9437  0.7617
   38POPC  C314 5163   6.312   0.947   8.073  0.5406  0.3483  0.2597
   38POPC  H14X 5164   6.211   0.987   8.093  0.6001 -0.8820  3.6630
   38POPC  H14Y 5165   6.383   1.029   8.099 -0.2925  0.2423  3.1508
   38POPC  C315 5166   6.334   0.827   8.166  0.3143  0.0471 -0.8718
   38POPC  H15X 5167   6.423   0.764   8.143  2.3270  1.9523  1.1748
   38POPC  H15Y 5168   6.255   0.759   8.128  0.0259 -1.1891  1.7393
   38POPC  C316 5169   6.322   0.860   8.315 -0.4766  0.3394 -0.0350
   38POPC  H16X 5170   6.281   0.769   8.363 -1.3575  0.6558 -0.1641
   38POPC  H16Y 5171   6.248   0.942   8.332 -1.6430 -0.9828  1.6010
   38POPC  H16Z 5172   6.419   0.891   8.360 -0.6571  1.8178 -0.6050
   39POPC     N 5173   6.744   4.700   6.324 -0.4871  0.1563  0.8530
   39POPC   C12 5174   6.706   4.588   6.420 -0.5985 -0.0360  0.2421
   39POPC  H12A 5175   6.657   4.641   6.501  0.6742  0.2134  0.8865
   39POPC  H12B 5176   6.797   4.550   6.464 -1.7674  0.1307  3.0059
   39POPC   C13 5177   6.798   4.637   6.197  0.2563  0.5898 -0.2688
   39POPC  H13A 5178   6.728   4.577   6.141  0.7395  0.2614 -0.5259
   39POPC  H13B 5179   6.847   4.711   6.136  1.8498  1.5261  2.0049
   39POPC  H13C 5180   6.879   4.572   6.226  1.0178  1.8389  0.4810
   39POPC   C14 5181   6.621   4.772   6.281 -0.0280  1.0777  0.0430
   39POPC  H14A 5182   6.630   4.840   6.197  0.3802  0.6594 -0.2603
   39POPC  H14B 5183   6.547   4.702   6.247  0.7042  0.6354 -0.6912
   39POPC  H14C 5184   6.582   4.827   6.365  1.1913  1.5042  0.3665
   39POPC   C15 5185   6.851   4.790   6.375  0.5899  0.2268 -0.2048
   39POPC  H15A 5186   6.873   4.858   6.294  1.3883  0.0749 -0.1287
   39POPC  H15B 5187   6.935   4.729   6.406  0.1412 -0.6008 -0.5812
   39POPC  H15C 5188   6.816   4.846   6.460  1.3604 -0.1938  0.4073
   39POPC   C11 5189   6.628   4.465   6.364  0.2493 -0.0837  0.0047
   39POPC  H11A 5190   6.623   4.396   6.450 -1.5362 -0.7614 -0.6058
   39POPC  H11B 5191   6.694   4.420   6.286 -0.1754 -0.8812  0.1004
   39POPC     P 5192   6.438   4.436   6.188  0.5701  0.1471  0.0672
   39POPC   O13 5193   6.539   4.443   6.078 -0.6016  0.1253 -0.0934
   39POPC   O14 5194   6.316   4.512   6.155 -0.4326  0.4081 -0.0993
   39POPC   O12 5195   6.498   4.497   6.324 -0.3306  0.3770  0.1370
   39POPC   O11 5196   6.415   4.288   6.228 -0.4886 -0.6121 -0.6672
   39POPC    C1 5197   6.279   4.242   6.257  0.6345  0.7207  0.2059
   39POPC    HA 5198   6.256   4.158   6.188 -0.9386 -0.6518  2.2732
   39POPC    HB 5199   6.205   4.322   6.236  0.0972  0.7347  2.0283
   39POPC    C2 5200   6.246   4.196   6.403  0.0627  0.5562 -0.3122
   39POPC    HS 5201   6.169   4.263   6.448  2.6426  1.5648  3.0130
   39POPC   O21 5202   6.365   4.190   6.480  0.7419  0.3945 -0.4539
   39POPC   C21 5203   6.355   4.238   6.607  0.3827 -0.5252 -0.3519
   39POPC   O22 5204   6.253   4.288   6.649  0.7468 -0.3803 -0.0202
   39POPC   C22 5205   6.480   4.203   6.690 -0.9659  0.3120 -0.0684
   39POPC   H2R 5206   6.570   4.214   6.625 -1.1756  0.8958 -0.2672
   39POPC   H2S 5207   6.468   4.094   6.709 -0.2223  0.5170  1.7982
   39POPC    C3 5208   6.175   4.067   6.400 -0.1268 -0.1894 -0.2854
   39POPC    HX 5209   6.242   4.004   6.338 -1.7510 -0.4363 -1.9004
   39POPC    HY 5210   6.085   4.059   6.335  0.4660  0.9728 -1.2792
   39POPC   O31 5211   6.152   4.024   6.532 -0.1971  0.2916  0.0621
   39POPC   C31 5212   6.026   4.051   6.585 -0.0295  0.4283  0.5571
   39POPC   O32 5213   5.944   4.129   6.535 -0.3964 -0.0867 -0.2406
   39POPC   C32 5214   6.005   3.971   6.720 -0.1253  0.3508  0.8793
   39POPC   H2X 5215   6.004   3.866   6.686 -0.4790  1.1148 -1.7123
   39POPC   H2Y 5216   6.100   3.999   6.769  1.7700  0.7584 -2.6797
   39POPC   C23 5217   6.487   4.272   6.828 -0.1170  0.2576 -0.5513
   39POPC   H3R 5218   6.387   4.272   6.877  0.2895 -1.2756  0.3362
   39POPC   H3S 5219   6.518   4.379   6.825  0.9989 -0.0316  0.0417
   39POPC   C24 5220   6.578   4.195   6.932  0.5667  0.6282  0.4607
   39POPC   H4R 5221   6.682   4.214   6.897  0.8262  0.9538  1.3969
   39POPC   H4S 5222   6.546   4.089   6.937 -1.4656  1.0686 -1.4407
   39POPC   C25 5223   6.574   4.250   7.071 -0.8678  0.5798 -0.3344
   39POPC   H5R 5224   6.484   4.218   7.128 -2.3211  3.2405 -0.9552
   39POPC   H5S 5225   6.590   4.360   7.068  0.9209  0.3222 -2.9268
   39POPC   C26 5226   6.699   4.191   7.148 -0.2296  0.2137  0.9455
   39POPC   H6R 5227   6.792   4.236   7.105 -0.2762 -0.5155  0.0552
   39POPC   H6S 5228   6.704   4.082   7.133 -3.4572  0.1694 -0.6994
   39POPC   C27 5229   6.696   4.218   7.299 -0.1375  0.3073 -0.2779
   39POPC   H7R 5230   6.614   4.156   7.342 -1.2875  0.9749 -1.4488
   39POPC   H7S 5231   6.665   4.323   7.315  1.5449  0.5293  2.1837
   39POPC   C28 5232   6.835   4.204   7.367  0.4353  0.5769  1.0450
   39POPC   H8R 5233   6.828   4.259   7.464 -0.2785  1.7717  0.3454
   39POPC   H8S 5234   6.908   4.265   7.310 -0.1146  1.2893  1.0834
   39POPC   C29 5235   6.902   4.065   7.369  0.0405 -0.3394  0.4144
   39POPC   H91 5236   6.906   4.016   7.271 -1.5556  0.6446 -0.1885
   39POPC  C210 5237   6.954   3.998   7.476  0.5566 -0.1207 -0.1935
   39POPC  H101 5238   6.970   3.890   7.467 -1.2228 -0.6599  2.1155
   39POPC  C211 5239   6.953   4.050   7.623  0.9509 -1.1494  0.1741
   39POPC  H11R 5240   6.935   4.159   7.637  0.0634 -1.0796 -1.2043
   39POPC  H11S 5241   7.051   4.029   7.671  0.7958 -1.0782  0.5230
   39POPC  C212 5242   6.838   3.989   7.706 -0.2157  0.4969 -0.2869
   39POPC  H12R 5243   6.848   3.879   7.701  0.7763  0.5021  1.0296
   39POPC  H12S 5244   6.745   4.020   7.655 -0.4511 -0.2744 -0.3403
   39POPC  C213 5245   6.833   4.027   7.850 -0.3011 -0.0860 -0.2559
   39POPC  H13R 5246   6.797   4.129   7.876 -0.4947 -0.9087  3.2189
   39POPC  H13S 5247   6.940   4.009   7.873 -0.4107 -1.4809 -0.7326
   39POPC  C214 5248   6.765   3.921   7.932 -0.4453  0.0804  0.2145
   39POPC  H14R 5249   6.837   3.837   7.943 -1.2729 -0.4483  1.8086
   39POPC  H14S 5250   6.679   3.887   7.870  0.2486 -2.6344  0.6364
   39POPC  C215 5251   6.712   3.958   8.066  0.0288 -0.2290  0.1666
   39POPC  H15R 5252   6.670   4.061   8.057  0.6054 -0.0853 -1.0458
   39POPC  H15S 5253   6.797   3.975   8.136 -0.5406  1.4170  0.5022
   39POPC  C216 5254   6.603   3.870   8.134 -0.6636  0.0755  0.6640
   39POPC  H16R 5255   6.614   3.867   8.244  1.3150  0.3201  0.5081
   39POPC  H16S 5256   6.622   3.768   8.094 -2.7720 -0.6218  1.3357
   39POPC  C217 5257   6.466   3.926   8.093 -0.1399  1.0132 -0.3714
   39POPC  H17R 5258   6.460   3.943   7.984  2.1489 -0.9679 -0.8780
   39POPC  H17S 5259   6.441   4.022   8.143 -0.8612  0.9846 -0.6695
   39POPC  C218 5260   6.374   3.821   8.146 -0.3277  0.3198  0.7197
   39POPC  H18R 5261   6.396   3.794   8.251  0.5148 -2.4447 -0.0852
   39POPC  H18S 5262   6.382   3.723   8.095 -0.0957  0.9831 -0.5726
   39POPC  H18T 5263   6.267   3.848   8.134 -0.3574 -0.7414 -2.3584
   39POPC   C33 5264   5.877   4.024   6.799  0.1021 -0.0038 -0.2653
   39POPC   H3X 5265   5.843   3.941   6.864  0.5022 -1.1201 -1.4312
   39POPC   H3Y 5266   5.794   4.045   6.727  1.8971 -0.7238 -2.6963
   39POPC   C34 5267   5.899   4.153   6.885 -0.4941  0.1662 -0.5718
   39POPC   H4X 5268   5.804   4.210   6.881  0.1535  1.2819 -0.3919
   39POPC   H4Y 5269   5.974   4.208   6.824 -1.2073 -0.1680 -1.7947
   39POPC   C35 5270   5.954   4.133   7.029  0.8146 -0.3098  0.3577
   39POPC   H5X 5271   6.002   4.228   7.061  0.0702  1.0240 -2.2093
   39POPC   H5Y 5272   6.024   4.047   7.040 -1.9730 -2.9162 -0.9165
   39POPC   C36 5273   5.838   4.093   7.119  0.2580  0.2848 -0.4472
   39POPC   H6X 5274   5.776   4.018   7.064 -2.6575  2.9003 -1.0111
   39POPC   H6Y 5275   5.760   4.163   7.157  0.3571 -1.4557  3.4454
   39POPC   C37 5276   5.886   4.035   7.257 -0.8953 -0.4587  0.1625
   39POPC   H7X 5277   5.956   3.952   7.233  0.5516  1.0794 -1.2172
   39POPC   H7Y 5278   5.792   4.013   7.312  0.5507  0.1034  3.0640
   39POPC   C38 5279   5.964   4.141   7.341 -0.1554 -0.0375  0.2254
   39POPC   H8X 5280   6.027   4.205   7.276 -1.5550  1.1287 -0.0391
   39POPC   H8Y 5281   6.031   4.087   7.410  0.9706  1.2665  0.1975
   39POPC   C39 5282   5.876   4.233   7.424 -0.2533  0.3473  0.1037
   39POPC   H9X 5283   5.808   4.162   7.475  1.5452 -1.4673  0.1107
   39POPC   H9Y 5284   5.826   4.306   7.357 -3.7668 -1.1349  0.9087
   39POPC  C310 5285   5.941   4.308   7.550 -0.7317  0.5276  0.1302
   39POPC  H10X 5286   5.984   4.223   7.606  1.6285 -0.0864 -2.3833
   39POPC  H10Y 5287   5.861   4.362   7.604 -0.2924  0.4634  0.8618
   39POPC  C311 5288   6.061   4.405   7.511 -0.3036 -0.2073 -0.4349
   39POPC  H11X 5289   6.043   4.459   7.416  1.1708  2.1685  0.5704
   39POPC  H11Y 5290   6.153   4.352   7.477 -1.1711 -0.7862 -2.0082
   39POPC  C312 5291   6.091   4.498   7.636 -0.0945  0.4043  0.4241
   39POPC  H12X 5292   6.113   4.431   7.723 -1.0898 -1.7947 -0.9163
   39POPC  H12Y 5293   5.993   4.547   7.653 -0.8220 -0.7573 -0.2673
   39POPC  C313 5294   6.199   4.586   7.603  0.0221 -0.2593 -0.0947
   39POPC  H13X 5295   6.164   4.645   7.515  1.7840  0.3928 -0.4151
   39POPC  H13Y 5296   6.286   4.528   7.564 -0.3281 -1.1587  0.4508
   39POPC  C314 5297   6.244   4.670   7.722  0.1776  0.3211  0.9953
   39POPC  H14X 5298   6.246   4.608   7.814 -1.7046 -0.7027  0.3911
   39POPC  H14Y 5299   6.177   4.756   7.745 -0.3247  0.8327 -1.9865
   39POPC  C315 5300   6.378   4.738   7.692 -0.3173  0.0567 -0.6083
   39POPC  H15X 5301   6.358   4.786   7.594  0.7508 -0.0305 -0.8835
   39POPC  H15Y 5302   6.455   4.658   7.691 -0.9209 -0.5945  0.8803
   39POPC  C316 5303   6.421   4.853   7.786 -0.0792  0.0868 -1.2442
   39POPC  H16X 5304   6.493   4.819   7.863  0.1894  1.5567 -0.8178
   39POPC  H16Y 5305   6.336   4.896   7.843  0.4315 -1.3131  0.6830
   39POPC  H16Z 5306   6.472   4.935   7.731  0.4580  0.2659 -0.4952
   40POPC     N 5307   0.820   4.598   6.376 -0.2517 -0.4821 -0.5939
   40POPC   C12 5308   0.730   4.482   6.334 -0.0859 -0.8948 -0.3873
   40POPC  H12A 5309   0.780   4.389   6.356  1.0155 -0.2317  0.0334
   40POPC  H12B 5310   0.716   4.488   6.227 -2.2275  0.5280 -0.0959
   40POPC   C13 5311   0.795   4.625   6.523 -0.1059 -0.2702 -0.1588
   40POPC  H13A 5312   0.817   4.533   6.576  1.4711  0.6549  0.8878
   40POPC  H13B 5313   0.860   4.705   6.555 -1.2285  0.5352  0.1619
   40POPC  H13C 5314   0.690   4.646   6.533 -0.0911 -0.5731  0.7786
   40POPC   C14 5315   0.961   4.573   6.350 -0.3609  0.2302 -0.4214
   40POPC  H14A 5316   1.026   4.657   6.331  1.7101 -1.3492 -0.6239
   40POPC  H14B 5317   0.999   4.519   6.436 -2.6016 -0.9774 -0.1035
   40POPC  H14C 5318   0.974   4.508   6.265  1.8925 -1.4631  1.1125
   40POPC   C15 5319   0.779   4.709   6.293  0.6188  0.0263  0.7180
   40POPC  H15A 5320   0.798   4.680   6.191 -0.1315 -0.9010  0.8257
   40POPC  H15B 5321   0.841   4.792   6.325  2.6512 -2.1944  3.0217
   40POPC  H15C 5322   0.674   4.730   6.305  1.1750  2.9097  1.4276
   40POPC   C11 5323   0.587   4.470   6.404  0.4397 -0.3443  0.9272
   40POPC  H11A 5324   0.597   4.468   6.515 -0.3944 -2.5253  1.0111
   40POPC  H11B 5325   0.538   4.377   6.369  0.9832 -0.2220 -0.2029
   40POPC     P 5326   0.353   4.553   6.380 -0.0932  0.4667 -0.4150
   40POPC   O13 5327   0.331   4.447   6.483 -0.3742  0.0452 -0.3485
   40POPC   O14 5328   0.285   4.532   6.249  0.6052 -0.0183 -0.1012
   40POPC   O12 5329   0.510   4.578   6.365  0.1496  0.4998 -0.4149
   40POPC   O11 5330   0.301   4.680   6.447 -0.0885 -0.3815 -0.4717
   40POPC    C1 5331   0.358   4.808   6.410 -0.0616  0.1588 -0.0043
   40POPC    HA 5332   0.285   4.888   6.384  0.2424  1.1635  2.0768
   40POPC    HB 5333   0.420   4.805   6.317  0.6565 -1.3102  0.4898
   40POPC    C2 5334   0.456   4.856   6.520  0.0535  0.0181  0.6760
   40POPC    HS 5335   0.545   4.792   6.503 -1.3712 -1.3557 -2.6350
   40POPC   O21 5336   0.389   4.855   6.652  0.3553 -0.0638 -0.4137
   40POPC   C21 5337   0.477   4.835   6.754 -0.8636  0.7281  0.0324
   40POPC   O22 5338   0.600   4.827   6.740  0.0513 -0.3240  0.6138
   40POPC   C22 5339   0.405   4.823   6.881  0.1231 -0.2155  0.2357
   40POPC   H2R 5340   0.350   4.727   6.882 -0.0226 -0.1429 -0.3589
   40POPC   H2S 5341   0.333   4.907   6.888 -0.3737 -0.6612  0.5999
   40POPC    C3 5342   0.496   5.005   6.477 -0.7111  0.2035  0.2088
   40POPC    HX 5343   0.531   5.003   6.371 -1.7218  0.7850 -0.1493
   40POPC    HY 5344   0.583   5.047   6.533  1.1233 -1.8654 -0.9281
   40POPC   O31 5345   0.383   5.093   6.485 -0.1565  0.6404  0.3870
   40POPC   C31 5346   0.373   5.160   6.598 -0.2220 -0.2239  0.0957
   40POPC   O32 5347   0.453   5.143   6.692 -0.2417  0.1851  0.4085
   40POPC   C32 5348   0.236   5.218   6.606  0.4382 -0.5474  0.2169
   40POPC   H2X 5349   0.178   5.130   6.573 -1.2361  1.0046 -1.2283
   40POPC   H2Y 5350   0.241   5.304   6.535 -1.5137 -0.2881  0.3320
   40POPC   C23 5351   0.501   4.833   6.998 -0.0235 -0.6187  0.0669
   40POPC   H3R 5352   0.542   4.935   7.011  0.1840 -0.4546 -1.6196
   40POPC   H3S 5353   0.586   4.763   6.986  1.1984  0.5994  1.2598
   40POPC   C24 5354   0.421   4.808   7.132  0.3894  0.8421 -0.1401
   40POPC   H4R 5355   0.447   4.705   7.163 -1.4818  0.8634  1.7504
   40POPC   H4S 5356   0.315   4.821   7.101 -0.7564  0.8565  3.3388
   40POPC   C25 5357   0.448   4.911   7.241 -0.4079 -0.7247  0.9822
   40POPC   H5R 5358   0.425   5.015   7.207  0.5187  0.2343  3.1098
   40POPC   H5S 5359   0.553   4.905   7.277  0.0930  0.9799 -0.0099
   40POPC   C26 5360   0.367   4.879   7.365  0.0566  0.0867 -0.5903
   40POPC   H6R 5361   0.409   4.785   7.407 -0.7603  0.9704  2.5093
   40POPC   H6S 5362   0.259   4.869   7.342 -0.1290  0.9679 -0.1797
   40POPC   C27 5363   0.381   4.989   7.477 -0.4346  0.8354 -0.3198
   40POPC   H7R 5364   0.293   5.000   7.544  1.7007 -0.2009  2.9295
   40POPC   H7S 5365   0.387   5.088   7.428  0.2274  0.5500 -0.8385
   40POPC   C28 5366   0.499   4.975   7.571 -0.3770 -0.1098  0.2045
   40POPC   H8R 5367   0.498   5.077   7.615  3.1540 -0.4147  1.3010
   40POPC   H8S 5368   0.590   4.969   7.508 -0.8629 -0.8901 -0.4422
   40POPC   C29 5369   0.490   4.863   7.670  0.3676  1.1016  0.4767
   40POPC   H91 5370   0.510   4.774   7.608  1.2576  1.9261 -0.4501
   40POPC  C210 5371   0.456   4.870   7.794 -0.1140  0.1262 -0.9253
   40POPC  H101 5372   0.465   4.778   7.854  0.9604  0.2075 -0.9483
   40POPC  C211 5373   0.425   4.988   7.880 -0.0838  0.0987 -0.6457
   40POPC  H11R 5374   0.352   4.942   7.951  0.0600 -2.1738 -1.8566
   40POPC  H11S 5375   0.377   5.068   7.820  2.1359  0.9978 -1.3229
   40POPC  C212 5376   0.548   5.056   7.953 -0.4962 -0.8916 -0.3413
   40POPC  H12R 5377   0.498   5.147   7.991 -0.0432 -0.7496 -0.0885
   40POPC  H12S 5378   0.622   5.080   7.874  0.5406 -1.1472  0.5367
   40POPC  C213 5379   0.614   4.962   8.053 -0.8420  0.0176  0.1169
   40POPC  H13R 5380   0.709   5.007   8.089  0.0650 -1.0338 -0.8943
   40POPC  H13S 5381   0.652   4.872   8.001  0.7309  0.4501  0.4463
   40POPC  C214 5382   0.522   4.924   8.169 -0.1906  0.0525  0.6441
   40POPC  H14R 5383   0.464   4.837   8.132 -0.9314 -0.0618  1.9990
   40POPC  H14S 5384   0.450   5.006   8.188 -0.1848  0.7503 -2.0029
   40POPC  C215 5385   0.601   4.883   8.300  1.0332  0.1995  0.0537
   40POPC  H15R 5386   0.658   4.972   8.333 -0.2207  1.2172 -0.4606
   40POPC  H15S 5387   0.662   4.797   8.265 -1.4367 -0.1027 -4.2629
   40POPC  C216 5388   0.503   4.836   8.419  0.3805 -0.3399  0.7832
   40POPC  H16R 5389   0.428   4.771   8.370  1.6304 -2.0783  1.0976
   40POPC  H16S 5390   0.446   4.923   8.458 -0.7588 -0.5868 -0.2655
   40POPC  C217 5391   0.587   4.765   8.524  0.8066 -0.0922  0.5296
   40POPC  H17R 5392   0.675   4.831   8.538 -0.1319  1.3817 -0.2739
   40POPC  H17S 5393   0.628   4.667   8.491 -2.0000 -2.0331  2.3397
   40POPC  C218 5394   0.514   4.734   8.654  0.7994  0.1930 -0.0885
   40POPC  H18R 5395   0.577   4.681   8.729  0.7846 -2.0456 -1.5792
   40POPC  H18S 5396   0.419   4.681   8.635 -0.8722  3.0357 -0.2500
   40POPC  H18T 5397   0.488   4.830   8.703  0.0639  0.5772 -1.1891
   40POPC   C33 5398   0.204   5.265   6.751  0.4575  0.1181 -0.1154
   40POPC   H3X 5399   0.113   5.329   6.747  0.1553 -0.3513 -1.0666
   40POPC   H3Y 5400   0.291   5.318   6.795  0.8799 -0.9655  0.4040
   40POPC   C34 5401   0.168   5.148   6.848  0.2566 -0.1649 -0.5122
   40POPC   H4X 5402   0.262   5.099   6.881  1.4106  1.4758 -1.2216
   40POPC   H4Y 5403   0.105   5.074   6.794 -1.2705  0.2095  0.6909
   40POPC   C35 5404   0.083   5.198   6.967 -0.4247  0.2597  0.5095
   40POPC   H5X 5405   0.053   5.108   7.024  1.2534  0.2268  1.4012
   40POPC   H5Y 5406  -0.011   5.248   6.934 -0.7334  2.6904  4.4544
   40POPC   C36 5407   0.156   5.293   7.066 -1.1122  0.8581 -0.5170
   40POPC   H6X 5408   0.201   5.375   7.006  0.6602  0.8851  0.7684
   40POPC   H6Y 5409   0.247   5.251   7.114 -0.1992  1.6101 -1.5347
   40POPC   C37 5410   0.065   5.353   7.176 -0.1098  0.5682  0.8377
   40POPC   H7X 5411  -0.018   5.382   7.109  1.7970  1.5274 -1.2503
   40POPC   H7Y 5412   0.109   5.440   7.229 -0.8485  1.2433  0.3639
   40POPC   C38 5413   0.006   5.261   7.285 -0.1258  0.2584  0.4125
   40POPC   H8X 5414  -0.016   5.165   7.233  0.3813 -0.6190  1.7735
   40POPC   H8Y 5415  -0.082   5.312   7.329 -0.8534 -0.5259 -0.1039
   40POPC   C39 5416   0.115   5.247   7.396 -0.5582 -0.7707  0.8313
   40POPC   H9X 5417   0.182   5.335   7.409  2.0136 -2.5812  0.6567
   40POPC   H9Y 5418   0.184   5.173   7.350  0.8762  0.6985  0.4972
   40POPC  C310 5419   0.064   5.207   7.531  0.4792 -0.3854 -1.1668
   40POPC  H10X 5420   0.027   5.102   7.525 -0.7174 -0.0161 -0.5953
   40POPC  H10Y 5421  -0.019   5.282   7.534 -0.9977 -1.9899 -0.0760
   40POPC  C311 5422   0.159   5.232   7.654 -0.6237 -0.4878 -0.1115
   40POPC  H11X 5423   0.158   5.343   7.658  0.6979 -0.4472 -0.6090
   40POPC  H11Y 5424   0.260   5.197   7.626 -0.6906 -0.0116 -1.0082
   40POPC  C312 5425   0.097   5.193   7.788 -0.2474 -0.3622 -0.2360
   40POPC  H12X 5426   0.100   5.082   7.795  0.0318 -0.5190 -2.3920
   40POPC  H12Y 5427  -0.004   5.235   7.805  1.7234  5.2116 -0.0692
   40POPC  C313 5428   0.174   5.259   7.903  0.0553 -0.5256 -0.0205
   40POPC  H13X 5429   0.235   5.348   7.875  0.1089 -0.0785  1.4231
   40POPC  H13Y 5430   0.257   5.196   7.940 -0.4431 -2.4458 -1.9831
   40POPC  C314 5431   0.080   5.309   8.011  0.4993  0.1600 -0.4095
   40POPC  H14X 5432   0.005   5.230   8.031  1.1344 -0.8365 -1.8515
   40POPC  H14Y 5433   0.030   5.402   7.976  0.0710 -1.1959 -3.7594
   40POPC  C315 5434   0.149   5.349   8.144 -0.5105 -0.1083 -0.0571
   40POPC  H15X 5435   0.226   5.427   8.127  1.6319 -2.0170  0.4072
   40POPC  H15Y 5436   0.208   5.261   8.176  0.5831  0.1491 -1.2839
   40POPC  C316 5437   0.046   5.374   8.259  0.2437 -0.2874 -0.1588
   40POPC  H16X 5438  -0.021   5.460   8.238 -0.4633 -0.3926  1.4871
   40POPC  H16Y 5439   0.089   5.398   8.359  0.4458  1.1584 -0.5587
   40POPC  H16Z 5440  -0.018   5.285   8.274 -0.6884  0.0576 -1.8400
   41CHL1    C3 5441   4.987   1.364  10.104  0.0880 -0.7565  0.1320
   41CHL1    H3 5442   4.926   1.272  10.103  0.3984 -0.9608 -0.2935
   41CHL1    O3 5443   4.989   1.420  10.235 -0.7748 -0.4427 -0.1652
   41CHL1   H3' 5444   5.065   1.382  10.279  0.8218  1.2239 -1.3687
   41CHL1    C4 5445   5.126   1.324  10.065 -0.3147  0.1182  0.6118
   41CHL1   H4A 5446   5.193   1.412  10.079 -1.0938  1.2516 -2.0547
   41CHL1   H4B 5447   5.172   1.251  10.134  1.0012  0.9888  0.6925
   41CHL1    C5 5448   5.123   1.277   9.923 -0.6885 -0.1245 -0.5305
   41CHL1    C6 5449   5.187   1.158   9.894  0.5217 -0.1568 -0.6131
   41CHL1    H6 5450   5.234   1.100   9.975 -0.1000  0.9156  0.5463
   41CHL1    C7 5451   5.208   1.120   9.753  0.5407 -0.4331  0.8804
   41CHL1   H7A 5452   5.313   1.099   9.723  0.0702  0.6928 -1.8457
   41CHL1   H7B 5453   5.143   1.032   9.734  0.7895 -1.1002  2.8292
   41CHL1    C8 5454   5.173   1.227   9.645  0.2885  0.3143 -0.4321
   41CHL1    H8 5455   5.257   1.299   9.634 -0.3157  1.3858  1.6211
   41CHL1   C14 5456   5.150   1.165   9.509  1.3208  0.1844  0.4356
   41CHL1   H14 5457   5.054   1.109   9.518  1.4461 -0.0294  0.4554
   41CHL1   C15 5458   5.239   1.051   9.459 -0.9096 -0.0777  0.1340
   41CHL1  H15A 5459   5.348   1.067   9.479 -0.7674 -0.8319  0.0092
   41CHL1  H15B 5460   5.209   0.955   9.506 -2.3291  0.3003  0.0390
   41CHL1   C16 5461   5.208   1.056   9.302 -0.0758  0.5195  0.6919
   41CHL1  H16A 5462   5.303   1.078   9.248 -0.5442  0.8980  0.0108
   41CHL1  H16B 5463   5.175   0.954   9.274 -2.0327  0.9564  1.2140
   41CHL1   C17 5464   5.103   1.159   9.272  0.1951  0.9691 -0.2200
   41CHL1   H17 5465   5.007   1.108   9.292  0.6800  0.6587  1.4960
   41CHL1   C13 5466   5.120   1.257   9.394 -0.0405 -0.5052  0.6988
   41CHL1   C18 5467   5.237   1.350   9.359 -0.1029  0.0630 -0.4751
   41CHL1  H18A 5468   5.254   1.415   9.447  0.3338 -0.6280 -0.0373
   41CHL1  H18B 5469   5.326   1.285   9.344 -0.8583 -1.2050  0.3162
   41CHL1  H18C 5470   5.220   1.417   9.272  1.5892  0.8758 -0.2157
   41CHL1   C12 5471   5.001   1.339   9.426  0.2125  0.1735 -0.2324
   41CHL1  H12A 5472   4.978   1.425   9.360 -0.8697  0.3912  0.4101
   41CHL1  H12B 5473   4.907   1.280   9.429  0.5845 -0.3923  0.8984
   41CHL1   C11 5474   5.009   1.407   9.574  0.0299  0.4331 -0.0461
   41CHL1  H11A 5475   5.088   1.486   9.570  1.0733 -0.6213 -1.6443
   41CHL1  H11B 5476   4.906   1.448   9.582 -1.3495 -2.6936 -0.6559
   41CHL1    C9 5477   5.049   1.315   9.682 -0.7011 -0.2828 -0.7617
   41CHL1    H9 5478   4.969   1.240   9.702 -0.2416 -0.3985  0.8216
   41CHL1   C10 5479   5.069   1.386   9.825 -0.1003 -0.6224 -0.0264
   41CHL1   C19 5480   5.171   1.500   9.813  0.2186  0.6316  0.5055
   41CHL1  H19A 5481   5.261   1.465   9.757 -1.5064 -2.1932 -0.7398
   41CHL1  H19B 5482   5.127   1.590   9.767 -0.7636 -0.0733  0.0420
   41CHL1  H19C 5483   5.204   1.527   9.916 -1.0625  2.8352  0.3850
   41CHL1    C1 5484   4.925   1.434   9.872  0.1442 -0.2999 -0.0640
   41CHL1   H1A 5485   4.897   1.520   9.808 -0.7065 -0.4249  0.1361
   41CHL1   H1B 5486   4.844   1.358   9.867 -0.9661  0.8108  0.7864
   41CHL1    C2 5487   4.928   1.473  10.013 -0.0806  0.3670  0.0578
   41CHL1   H2A 5488   4.838   1.521  10.056  0.4539  1.1305  0.3482
   41CHL1   H2B 5489   5.006   1.553  10.015  1.4770 -1.0960  0.4335
   41CHL1   C20 5490   5.107   1.210   9.127 -0.5073 -0.9079 -0.4561
   41CHL1   H20 5491   5.192   1.281   9.115 -1.8618  0.7805 -0.4345
   41CHL1   C21 5492   4.991   1.308   9.096  0.3286  0.0048  0.5175
   41CHL1  H21A 5493   4.980   1.339   8.990 -0.1166 -0.7484  0.3422
   41CHL1  H21B 5494   4.985   1.399   9.160 -0.5277 -0.9796  1.8862
   41CHL1  H21C 5495   4.898   1.257   9.127  1.4991 -1.2596  2.1212
   41CHL1   C22 5496   5.113   1.099   9.023  0.7347 -0.0799 -0.3139
   41CHL1  H22A 5497   5.097   1.146   8.924 -1.8419  0.2890  0.1963
   41CHL1  H22B 5498   5.217   1.060   9.023  1.3830  1.4412  1.9152
   41CHL1   C23 5499   5.001   0.994   9.021 -0.4713 -0.0914 -0.3228
   41CHL1  H23A 5500   4.998   0.945   9.121  1.7770  0.4699  0.0853
   41CHL1  H23B 5501   4.900   1.039   9.013 -0.1562  0.5780 -0.6487
   41CHL1   C24 5502   5.031   0.889   8.925 -0.0527  0.4019  0.5240
   41CHL1  H24A 5503   5.061   0.934   8.827  2.2379 -1.9294  0.0451
   41CHL1  H24B 5504   5.124   0.836   8.954 -0.6481 -2.4914 -2.2880
   41CHL1   C25 5505   4.926   0.779   8.898 -0.2763 -0.5569  0.1664
   41CHL1   H25 5506   4.825   0.819   8.873 -0.5588 -1.1137  0.3958
   41CHL1   C26 5507   4.958   0.698   8.774 -1.0585 -0.4981  1.0927
   41CHL1  H26A 5508   4.874   0.630   8.746  0.4983 -1.6394 -1.2088
   41CHL1  H26B 5509   4.981   0.764   8.687  1.4733 -1.4770  0.9586
   41CHL1  H26C 5510   5.039   0.626   8.796  1.1455 -0.0249 -4.0062
   41CHL1   C27 5511   4.913   0.684   9.016 -0.3705 -0.5174  1.3586
   41CHL1  H27A 5512   4.904   0.749   9.106  1.6054  0.9516  0.5538
   41CHL1  H27B 5513   4.823   0.622   8.996  0.1868 -0.4581 -1.8240
   41CHL1  H27C 5514   5.004   0.624   9.035  1.4500  0.9749 -1.7515
   42CHL1    C3 5515   6.109   6.569   9.925  0.0932 -0.5968 -0.4372
   42CHL1    H3 5516   6.012   6.529   9.891 -0.0341  0.1905 -1.0232
   42CHL1    O3 5517   6.121   6.547  10.065  0.1181  0.8636 -0.0512
   42CHL1   H3' 5518   6.036   6.519  10.100 -0.5829  2.1346 -0.6717
   42CHL1    C4 5519   6.221   6.487   9.846 -0.4280 -0.4701  0.0840
   42CHL1   H4A 5520   6.318   6.512   9.894 -0.5023 -0.6958  0.3523
   42CHL1   H4B 5521   6.211   6.378   9.865 -1.6141 -0.6130 -1.1868
   42CHL1    C5 5522   6.228   6.521   9.696 -0.1091  0.4355 -0.0989
   42CHL1    C6 5523   6.208   6.422   9.601  0.9739  0.1077 -0.5081
   42CHL1    H6 5524   6.186   6.316   9.619  1.4925  0.1942  0.7030
   42CHL1    C7 5525   6.204   6.459   9.457  0.2570  0.2309 -0.5812
   42CHL1   H7A 5526   6.259   6.383   9.398  1.9546  1.8253 -1.1496
   42CHL1   H7B 5527   6.104   6.468   9.410  0.8494 -0.0292 -1.9317
   42CHL1    C8 5528   6.270   6.598   9.420 -0.3840  0.1215 -0.1632
   42CHL1    H8 5529   6.379   6.595   9.442 -0.8012  1.7132  2.6620
   42CHL1   C14 5530   6.233   6.635   9.272  0.6537 -0.1137  0.2607
   42CHL1   H14 5531   6.123   6.638   9.282  0.4152 -1.1693 -1.5371
   42CHL1   C15 5532   6.265   6.543   9.154  0.1488 -0.4759 -0.2586
   42CHL1  H15A 5533   6.371   6.509   9.148 -0.5021 -2.9030  1.0410
   42CHL1  H15B 5534   6.205   6.450   9.150 -0.1460 -0.4376  2.0006
   42CHL1   C16 5535   6.217   6.623   9.034  0.0306  0.0091  0.3769
   42CHL1  H16A 5536   6.288   6.632   8.949  0.9080  0.3131  1.1293
   42CHL1  H16B 5537   6.119   6.601   8.986  0.5481  0.9430 -1.2052
   42CHL1   C17 5538   6.191   6.772   9.086 -0.2310  0.7632 -0.0398
   42CHL1   H17 5539   6.082   6.776   9.107 -0.6091 -2.5890 -0.7108
   42CHL1   C13 5540   6.255   6.775   9.230 -1.3512  0.3519  0.0613
   42CHL1   C18 5541   6.416   6.792   9.222  0.9283 -0.4317  0.2447
   42CHL1  H18A 5542   6.442   6.899   9.204 -1.4396 -0.2262 -2.5677
   42CHL1  H18B 5543   6.478   6.760   9.308 -0.1224  0.8076  1.5320
   42CHL1  H18C 5544   6.463   6.731   9.142  1.6831  0.7496 -0.2344
   42CHL1   C12 5545   6.200   6.873   9.334 -0.0414 -0.2321  0.0210
   42CHL1  H12A 5546   6.217   6.980   9.308  1.4960 -0.0558  1.6177
   42CHL1  H12B 5547   6.090   6.856   9.338 -0.5889  2.9843  2.4798
   42CHL1   C11 5548   6.252   6.852   9.475  0.3673 -0.6180 -0.0690
   42CHL1  H11A 5549   6.360   6.876   9.481  0.2474 -0.3290  1.4831
   42CHL1  H11B 5550   6.217   6.928   9.547  1.3776  0.4193 -0.6408
   42CHL1    C9 5551   6.217   6.703   9.514 -0.4905 -0.4252  0.2383
   42CHL1    H9 5552   6.108   6.709   9.494 -0.1906  2.8406 -0.9129
   42CHL1   C10 5553   6.248   6.670   9.664  0.3198  0.2414 -0.1055
   42CHL1   C19 5554   6.387   6.727   9.701 -0.2874  0.3222  0.1587
   42CHL1  H19A 5555   6.422   6.690   9.800 -0.7373 -0.3174  0.0883
   42CHL1  H19B 5556   6.469   6.706   9.629  0.6173  0.7098  1.0555
   42CHL1  H19C 5557   6.376   6.837   9.709 -2.6882  0.1491 -0.0068
   42CHL1    C1 5558   6.136   6.753   9.750  0.2662  0.5376  0.5023
   42CHL1   H1A 5559   6.166   6.860   9.750  0.9701  0.3699  2.6594
   42CHL1   H1B 5560   6.042   6.734   9.694  0.5592 -1.5446  0.6177
   42CHL1    C2 5561   6.118   6.720   9.897 -0.1632  0.1938  0.3909
   42CHL1   H2A 5562   6.029   6.778   9.930 -0.9976  0.6789 -2.4198
   42CHL1   H2B 5563   6.214   6.747   9.946  0.0700 -0.9810  0.6126
   42CHL1   C20 5564   6.233   6.879   8.987  0.0756 -0.2808 -0.4275
   42CHL1   H20 5565   6.338   6.872   8.952 -0.8079  1.3064 -3.7796
   42CHL1   C21 5566   6.228   7.026   9.047  0.6770  1.0786 -0.0389
   42CHL1  H21A 5567   6.257   7.111   8.982 -3.0958  1.3493 -1.6668
   42CHL1  H21B 5568   6.302   7.029   9.130  3.0606  1.3552 -2.0507
   42CHL1  H21C 5569   6.128   7.032   9.096  1.2094  0.7395  1.1050
   42CHL1   C22 5570   6.157   6.875   8.857  0.4288  0.5680  0.1916
   42CHL1  H22A 5571   6.166   6.775   8.809 -1.5271  0.5463 -0.2274
   42CHL1  H22B 5572   6.049   6.896   8.872  0.6634  1.5321  0.5753
   42CHL1   C23 5573   6.208   6.964   8.743  0.0749  0.2976  0.6131
   42CHL1  H23A 5574   6.199   7.069   8.775 -0.9954 -0.7187  4.0416
   42CHL1  H23B 5575   6.318   6.948   8.730  0.6608  4.0371 -0.0242
   42CHL1   C24 5576   6.156   6.925   8.605  0.8252  0.2636  0.3010
   42CHL1  H24A 5577   6.205   6.826   8.594  0.9450  0.2982  0.5209
   42CHL1  H24B 5578   6.045   6.913   8.600  0.6667  1.7203  0.1182
   42CHL1   C25 5579   6.198   7.019   8.489  0.4396 -0.1166 -0.0600
   42CHL1   H25 5580   6.302   7.056   8.504  1.0926 -1.2651 -1.4288
   42CHL1   C26 5581   6.176   6.949   8.351 -0.5246 -0.8365  0.2038
   42CHL1  H26A 5582   6.222   7.013   8.273 -2.1552  2.0720  1.4441
   42CHL1  H26B 5583   6.227   6.850   8.344 -0.1945 -0.5396 -2.7123
   42CHL1  H26C 5584   6.066   6.946   8.341 -0.5385  0.2581 -0.0741
   42CHL1   C27 5585   6.104   7.148   8.494 -0.5891  0.6526 -0.3503
   42CHL1  H27A 5586   6.155   7.228   8.436 -0.4302  0.8231  0.0229
   42CHL1  H27B 5587   6.002   7.118   8.462  0.2889 -1.6239 -1.2556
   42CHL1  H27C 5588   6.095   7.190   8.596 -2.0251 -0.6226  0.0750
   43CHL1    C3 5589   4.579   2.029  10.131 -0.6704 -0.5139 -0.2604
   43CHL1    H3 5590   4.542   2.134  10.136  2.1476  0.5395  0.5372
   43CHL1    O3 5591   4.607   1.999  10.267  0.2252 -0.3355 -0.0762
   43CHL1   H3' 5592   4.598   1.904  10.275  0.8006 -0.2641  1.9393
   43CHL1    C4 5593   4.466   1.938  10.086  0.1954  0.3381  0.1709
   43CHL1   H4A 5594   4.503   1.835  10.108 -0.6351  0.2745  1.3617
   43CHL1   H4B 5595   4.373   1.948  10.145 -0.8787  0.0288 -1.3962
   43CHL1    C5 5596   4.433   1.967   9.941 -0.2139 -0.4213  0.1891
   43CHL1    C6 5597   4.306   1.986   9.905  0.7540 -0.0949 -0.1977
   43CHL1    H6 5598   4.224   1.976   9.977  1.0923  0.0785  0.2152
   43CHL1    C7 5599   4.265   2.007   9.757  0.1349 -0.4968  0.1211
   43CHL1   H7A 5600   4.173   1.945   9.742  0.5715 -0.6068 -2.4500
   43CHL1   H7B 5601   4.226   2.109   9.741 -2.4843 -1.7188 -2.2443
   43CHL1    C8 5602   4.370   1.970   9.655 -0.7546  0.6330  0.1722
   43CHL1    H8 5603   4.358   1.859   9.656 -1.1317  0.6664 -0.3382
   43CHL1   C14 5604   4.340   2.022   9.520  0.0670  0.0151 -0.0055
   43CHL1   H14 5605   4.356   2.132   9.528  0.0208 -0.0039  0.3791
   43CHL1   C15 5606   4.195   2.004   9.466 -0.2233  0.0534 -0.2404
   43CHL1  H15A 5607   4.172   1.898   9.489  4.1479 -1.2038 -0.7762
   43CHL1  H15B 5608   4.123   2.072   9.516 -0.0658  1.0492 -1.3170
   43CHL1   C16 5609   4.220   2.016   9.316  0.4499 -0.3463 -0.6828
   43CHL1  H16A 5610   4.184   1.918   9.278  0.2811 -0.4410 -0.2841
   43CHL1  H16B 5611   4.159   2.102   9.281  1.6797  1.1022  0.5999
   43CHL1   C17 5612   4.370   2.034   9.287 -0.6791  0.2054 -0.4570
   43CHL1   H17 5613   4.385   2.144   9.283 -1.7537  0.3985  0.3149
   43CHL1   C13 5614   4.444   1.979   9.408 -0.3858  0.1445  0.5111
   43CHL1   C18 5615   4.447   1.826   9.407  0.0465  0.0154 -0.1381
   43CHL1  H18A 5616   4.530   1.783   9.348  1.4015  1.4404  0.6624
   43CHL1  H18B 5617   4.463   1.785   9.510 -0.9225  0.2557  0.1206
   43CHL1  H18C 5618   4.347   1.782   9.384 -0.2987  0.7955 -0.1450
   43CHL1   C12 5619   4.586   2.036   9.441  0.1310  0.7713 -0.3727
   43CHL1  H12A 5620   4.669   2.002   9.376 -0.1595 -0.1228 -0.2926
   43CHL1  H12B 5621   4.575   2.147   9.435  1.1881  0.9466  0.6854
   43CHL1   C11 5622   4.625   1.999   9.583 -0.3936  0.1399 -0.5483
   43CHL1  H11A 5623   4.662   1.895   9.590  1.6047  0.8206 -0.4490
   43CHL1  H11B 5624   4.714   2.055   9.617 -0.9880  0.9382 -0.2848
   43CHL1    C9 5625   4.512   2.008   9.697 -0.2726  0.4794 -0.7328
   43CHL1    H9 5626   4.500   2.116   9.719 -0.9382 -0.3040  3.5826
   43CHL1   C10 5627   4.550   1.964   9.842 -0.3165 -0.0647 -0.0251
   43CHL1   C19 5628   4.592   1.820   9.827 -0.0013  0.1601 -0.0878
   43CHL1  H19A 5629   4.511   1.766   9.773  1.5031  0.5846 -3.0271
   43CHL1  H19B 5630   4.685   1.805   9.769 -0.8214 -1.1327 -1.1473
   43CHL1  H19C 5631   4.610   1.779   9.928  0.6869  1.5332  0.3655
   43CHL1    C1 5632   4.669   2.050   9.893 -0.7224 -0.5009  0.3954
   43CHL1   H1A 5633   4.754   2.034   9.822 -0.4449  1.5000  0.2330
   43CHL1   H1B 5634   4.641   2.156   9.876  1.3501 -0.2385 -1.9990
   43CHL1    C2 5635   4.708   2.022  10.043  0.0347  0.2918 -0.0005
   43CHL1   H2A 5636   4.787   2.095  10.068  1.0762 -0.4636 -0.9975
   43CHL1   H2B 5637   4.754   1.921  10.054  0.0488  0.1357 -1.3285
   43CHL1   C20 5638   4.416   1.975   9.153  0.2451  0.2610  0.6936
   43CHL1   H20 5639   4.407   1.864   9.158 -1.7787  0.0585 -3.4026
   43CHL1   C21 5640   4.557   2.007   9.124  0.0250 -0.4956 -0.1603
   43CHL1  H21A 5641   4.590   1.983   9.020  0.6214  0.3821 -0.1923
   43CHL1  H21B 5642   4.614   1.933   9.183 -1.2683 -2.2892 -1.0824
   43CHL1  H21C 5643   4.587   2.112   9.144  1.0885 -0.7397 -0.3884
   43CHL1   C22 5644   4.314   2.009   9.043  0.3207 -0.6981  0.3748
   43CHL1  H22A 5645   4.220   1.958   9.071 -0.4975  0.8054  0.4483
   43CHL1  H22B 5646   4.307   2.119   9.031 -0.5383 -0.4505  2.7701
   43CHL1   C23 5647   4.362   1.955   8.908 -0.5761  0.7771  0.7077
   43CHL1  H23A 5648   4.456   1.996   8.864 -0.4149 -1.1346 -0.8889
   43CHL1  H23B 5649   4.371   1.846   8.922 -0.5703  0.5859 -0.6901
   43CHL1   C24 5650   4.253   1.975   8.802 -0.2760  0.0627 -0.0417
   43CHL1  H24A 5651   4.166   1.920   8.845 -0.7635  0.0391 -1.0124
   43CHL1  H24B 5652   4.247   2.085   8.794  0.7622  0.1397  0.1990
   43CHL1   C25 5653   4.280   1.908   8.670 -0.0369 -0.3281  0.4948
   43CHL1   H25 5654   4.315   1.803   8.685  2.2530 -0.3867 -3.5400
   43CHL1   C26 5655   4.158   1.907   8.574 -0.6231  0.4409 -0.1135
   43CHL1  H26A 5656   4.074   1.845   8.611  0.7184  0.0163  2.4377
   43CHL1  H26B 5657   4.117   2.009   8.558 -0.0684  0.5796 -0.6989
   43CHL1  H26C 5658   4.188   1.868   8.475 -1.3148  0.9510 -0.5295
   43CHL1   C27 5659   4.395   1.968   8.588  1.1174 -0.1750  0.8991
   43CHL1  H27A 5660   4.487   1.953   8.647  2.5115  2.4718 -0.4147
   43CHL1  H27B 5661   4.398   1.918   8.488 -0.6143  3.0289 -0.9547
   43CHL1  H27C 5662   4.374   2.075   8.566  1.4315 -0.2064  0.4265
   44CHL1    C3 5663   5.383   6.745  10.148 -0.0526  0.1171 -0.7131
   44CHL1    H3 5664   5.316   6.663  10.115 -1.5171  1.1375 -0.3775
   44CHL1    O3 5665   5.352   6.768  10.284 -0.2829  0.1328 -0.1469
   44CHL1   H3' 5666   5.298   6.692  10.304  0.0578  0.0873  0.6630
   44CHL1    C4 5667   5.533   6.717  10.143  0.1153 -0.5418  0.1727
   44CHL1   H4A 5668   5.582   6.809  10.183  0.8651 -1.2260  0.8664
   44CHL1   H4B 5669   5.559   6.629  10.205 -0.8416 -1.1882 -0.3363
   44CHL1    C5 5670   5.576   6.704   9.999 -0.4501  0.2950  0.0956
   44CHL1    C6 5671   5.633   6.588   9.959 -0.5211 -0.1265 -0.3445
   44CHL1    H6 5672   5.672   6.517  10.033  3.2842  0.4821 -1.5522
   44CHL1    C7 5673   5.685   6.566   9.818 -0.0687 -0.6325  0.3452
   44CHL1   H7A 5674   5.789   6.525   9.823 -0.2001 -0.8771  1.1997
   44CHL1   H7B 5675   5.617   6.490   9.775  0.9617 -0.9146 -0.8524
   44CHL1    C8 5676   5.682   6.696   9.724 -0.3121  0.1162 -1.1573
   44CHL1    H8 5677   5.772   6.756   9.749 -0.3431 -0.4790  0.5569
   44CHL1   C14 5678   5.692   6.659   9.572 -0.5729  0.2138  0.1793
   44CHL1   H14 5679   5.590   6.620   9.555 -0.2782 -0.0775 -0.9958
   44CHL1   C15 5680   5.773   6.541   9.522  0.0545 -0.5031 -0.4805
   44CHL1  H15A 5681   5.860   6.536   9.591 -0.0931  4.8108  0.5106
   44CHL1  H15B 5682   5.712   6.448   9.518 -2.3213  0.9208  0.6149
   44CHL1   C16 5683   5.796   6.576   9.377  0.4893 -0.4082  0.9875
   44CHL1  H16A 5684   5.899   6.586   9.337  0.2762 -0.3722  0.4300
   44CHL1  H16B 5685   5.760   6.491   9.314  1.2984 -0.3038  0.3727
   44CHL1   C17 5686   5.703   6.695   9.336 -0.3916 -0.5057 -0.2775
   44CHL1   H17 5687   5.601   6.656   9.318 -0.1499 -1.6011  0.6359
   44CHL1   C13 5688   5.688   6.775   9.471 -0.2055 -0.2269 -0.0049
   44CHL1   C18 5689   5.816   6.856   9.491  0.2341 -0.0997 -0.4892
   44CHL1  H18A 5690   5.904   6.790   9.474 -0.5522 -2.0940  2.3512
   44CHL1  H18B 5691   5.816   6.946   9.427  1.4480  1.7315  1.9311
   44CHL1  H18C 5692   5.845   6.883   9.595  0.2180  0.8628 -0.7262
   44CHL1   C12 5693   5.567   6.862   9.503  0.8559  0.3254  0.1055
   44CHL1  H12A 5694   5.563   6.957   9.445 -1.4807 -0.8821 -1.9210
   44CHL1  H12B 5695   5.471   6.809   9.485  1.0497 -0.9845  2.5691
   44CHL1   C11 5696   5.549   6.898   9.657 -0.4337 -0.2388  0.0939
   44CHL1  H11A 5697   5.633   6.968   9.680  0.3316 -1.3142  0.6375
   44CHL1  H11B 5698   5.451   6.947   9.676 -0.2342  0.2351 -0.0763
   44CHL1    C9 5699   5.559   6.782   9.754 -0.2163 -0.0565  0.4697
   44CHL1    H9 5700   5.474   6.719   9.720 -1.4059  0.9374  1.5029
   44CHL1   C10 5701   5.534   6.819   9.900 -0.2763  0.0462 -0.3571
   44CHL1   C19 5702   5.622   6.937   9.940 -0.4336 -0.1561 -0.4988
   44CHL1  H19A 5703   5.563   7.028   9.918 -3.0193 -0.9761  2.4215
   44CHL1  H19B 5704   5.654   6.941  10.046 -0.4206  1.2102 -0.5347
   44CHL1  H19C 5705   5.717   6.923   9.883  0.6353  2.8168  0.3740
   44CHL1    C1 5706   5.385   6.854   9.919 -0.3349  0.2606  0.2422
   44CHL1   H1A 5707   5.374   6.953   9.870 -2.1453  0.1774  0.4357
   44CHL1   H1B 5708   5.322   6.774   9.873 -0.2944  0.9100 -1.0007
   44CHL1    C2 5709   5.346   6.863  10.060  0.6349  0.2142  0.0143
   44CHL1   H2A 5710   5.236   6.856  10.066  0.7524 -1.8753  0.2825
   44CHL1   H2B 5711   5.377   6.961  10.104 -1.1005  1.0673 -0.5622
   44CHL1   C20 5712   5.741   6.764   9.206  0.2103 -0.2171  0.1604
   44CHL1   H20 5713   5.838   6.813   9.227 -0.6752  1.3821  0.7108
   44CHL1   C21 5714   5.633   6.872   9.169  1.2228 -0.4789  0.0222
   44CHL1  H21A 5715   5.599   6.936   9.253  1.9278  0.3673 -0.3197
   44CHL1  H21B 5716   5.546   6.815   9.130 -0.0940  1.1689  0.4729
   44CHL1  H21C 5717   5.663   6.940   9.086 -1.3364 -0.8795 -1.3299
   44CHL1   C22 5718   5.749   6.665   9.077 -0.0445  0.2794 -0.2831
   44CHL1  H22A 5719   5.813   6.575   9.093 -0.3955  0.0994  0.1258
   44CHL1  H22B 5720   5.646   6.625   9.064 -0.8899  0.9970  3.1476
   44CHL1   C23 5721   5.792   6.738   8.948  0.3487 -0.2429 -0.0355
   44CHL1  H23A 5722   5.732   6.829   8.926 -2.1467 -1.7001  0.3863
   44CHL1  H23B 5723   5.899   6.767   8.960 -0.1247  2.0835 -0.9042
   44CHL1   C24 5724   5.791   6.653   8.816 -0.4273  0.5011 -0.2620
   44CHL1  H24A 5725   5.827   6.721   8.736  1.7815 -0.4225 -0.1337
   44CHL1  H24B 5726   5.857   6.564   8.820 -1.6721 -0.4563 -0.2577
   44CHL1   C25 5727   5.649   6.583   8.784 -0.8377 -0.1613  0.4359
   44CHL1   H25 5728   5.632   6.511   8.867 -1.8672 -0.6048 -0.1434
   44CHL1   C26 5729   5.531   6.680   8.794  0.0104 -0.1667 -0.5609
   44CHL1  H26A 5730   5.519   6.720   8.897 -0.7990  1.4061 -1.2283
   44CHL1  H26B 5731   5.560   6.770   8.734  1.9084 -1.5844 -1.8918
   44CHL1  H26C 5732   5.431   6.638   8.770  0.0224 -0.7081  0.3029
   44CHL1   C27 5733   5.663   6.497   8.656 -0.2002 -0.3572 -0.5901
   44CHL1  H27A 5734   5.561   6.465   8.625  0.0949  0.9421 -3.2403
   44CHL1  H27B 5735   5.698   6.552   8.566  1.8869 -0.5974  0.0279
   44CHL1  H27C 5736   5.721   6.403   8.660  1.6119  0.6794 -1.2232
   45CHL1    C3 5737   2.307   5.011  10.114  0.0485  0.6168 -0.2468
   45CHL1    H3 5738   2.278   4.905  10.131 -0.0234  0.9173  1.6853
   45CHL1    O3 5739   2.271   5.077  10.233  0.2364 -0.0896 -0.3161
   45CHL1   H3' 5740   2.197   5.033  10.276  0.9673 -0.7427  0.3079
   45CHL1    C4 5741   2.458   5.021  10.079  0.6034 -0.9190 -0.0894
   45CHL1   H4A 5742   2.481   5.129  10.090  1.5935 -1.1660  0.3769
   45CHL1   H4B 5743   2.513   4.977  10.165  1.4189 -1.4294 -0.8562
   45CHL1    C5 5744   2.508   4.972   9.945  0.5525 -1.2254 -0.6275
   45CHL1    C6 5745   2.611   4.893   9.926 -0.1598 -0.5202 -0.4905
   45CHL1    H6 5746   2.674   4.859  10.009 -0.0984  1.3519  0.2678
   45CHL1    C7 5747   2.662   4.866   9.790 -0.5875  0.4533  0.0255
   45CHL1   H7A 5748   2.767   4.902   9.780  0.7004 -3.0615 -0.4106
   45CHL1   H7B 5749   2.683   4.758   9.781  4.7573  1.2160 -0.0534
   45CHL1    C8 5750   2.574   4.907   9.663  0.3144  0.7331 -0.6117
   45CHL1    H8 5751   2.566   4.809   9.612 -0.9674 -0.1545  1.1751
   45CHL1   C14 5752   2.639   5.006   9.573  0.0436  0.5081 -0.1099
   45CHL1   H14 5753   2.652   5.101   9.629  1.5418  1.9719 -2.7713
   45CHL1   C15 5754   2.784   4.976   9.520  0.1973  0.5549  0.4266
   45CHL1  H15A 5755   2.868   5.008   9.586  1.1173 -2.5864  0.9955
   45CHL1  H15B 5756   2.792   4.865   9.532  3.2125  0.7020  0.4502
   45CHL1   C16 5757   2.789   5.015   9.374  0.2028  0.0028 -0.6839
   45CHL1  H16A 5758   2.794   5.126   9.361 -1.3017 -0.1266 -2.9810
   45CHL1  H16B 5759   2.870   4.965   9.317 -0.5383  1.8190 -3.5615
   45CHL1   C17 5760   2.648   4.968   9.332  0.3304  0.1948 -0.2227
   45CHL1   H17 5761   2.658   4.858   9.348  0.2921  0.4303  1.6298
   45CHL1   C13 5762   2.556   5.021   9.442 -0.5527 -0.1038  0.3989
   45CHL1   C18 5763   2.531   5.175   9.416 -0.6371  0.2343 -0.3174
   45CHL1  H18A 5764   2.457   5.205   9.493 -0.6538 -0.4212 -0.0697
   45CHL1  H18B 5765   2.625   5.233   9.430 -1.0348  0.6116  0.9105
   45CHL1  H18C 5766   2.479   5.197   9.320 -0.1069 -3.7274 -1.7064
   45CHL1   C12 5767   2.420   4.944   9.447  0.1661  0.1809 -0.2034
   45CHL1  H12A 5768   2.361   4.951   9.353 -0.9376 -1.5468  0.3111
   45CHL1  H12B 5769   2.445   4.836   9.444  0.9013  0.3610 -2.0386
   45CHL1   C11 5770   2.339   4.974   9.575 -0.7970 -0.1213 -0.7175
   45CHL1  H11A 5771   2.310   5.081   9.562  0.3005  0.1301 -1.1839
   45CHL1  H11B 5772   2.245   4.919   9.596 -2.7511  3.5518  1.3211
   45CHL1    C9 5773   2.434   4.941   9.695  0.1810  0.2254  0.1829
   45CHL1    H9 5774   2.394   4.843   9.730  0.2788 -0.7029 -2.1108
   45CHL1   C10 5775   2.413   5.021   9.830 -0.2628  0.4663  0.6002
   45CHL1   C19 5776   2.442   5.169   9.798 -0.1217  0.3035  0.4837
   45CHL1  H19A 5777   2.544   5.180   9.757 -0.9932 -0.8206 -2.1617
   45CHL1  H19B 5778   2.371   5.214   9.726  0.0728 -0.2469 -0.0585
   45CHL1  H19C 5779   2.441   5.231   9.890 -1.7417 -1.2220  1.5726
   45CHL1    C1 5780   2.266   5.002   9.866  0.6341  0.2575 -0.2254
   45CHL1   H1A 5781   2.197   5.033   9.784  0.1283 -3.0158 -1.1571
   45CHL1   H1B 5782   2.257   4.893   9.882  1.5186  0.1921 -0.1233
   45CHL1    C2 5783   2.216   5.061   9.998 -0.2011  0.1185 -0.5765
   45CHL1   H2A 5784   2.111   5.039  10.027  0.5072 -1.2947  1.0828
   45CHL1   H2B 5785   2.234   5.171   9.990 -0.8009  0.3186  0.5521
   45CHL1   C20 5786   2.614   4.981   9.184 -0.1319  0.2048  0.2467
   45CHL1   H20 5787   2.505   4.989   9.166 -0.1313 -1.8305 -1.0916
   45CHL1   C21 5788   2.658   4.849   9.107 -0.7032 -0.4376  0.5075
   45CHL1  H21A 5789   2.635   4.842   8.999 -1.5031 -3.2058  0.7662
   45CHL1  H21B 5790   2.615   4.757   9.152 -3.1993 -0.0665 -0.9498
   45CHL1  H21C 5791   2.768   4.853   9.101 -0.8062  0.6739 -1.2289
   45CHL1   C22 5792   2.665   5.118   9.112 -0.2968  0.6301  0.2761
   45CHL1  H22A 5793   2.647   5.200   9.184 -1.4327 -1.4480  2.4704
   45CHL1  H22B 5794   2.775   5.107   9.100  0.0444 -0.6341  3.6372
   45CHL1   C23 5795   2.593   5.139   8.977  0.1028  0.5498 -0.9147
   45CHL1  H23A 5796   2.592   5.045   8.917  0.8686 -0.4153  0.5429
   45CHL1  H23B 5797   2.493   5.183   8.996  0.6509  1.7340 -0.6439
   45CHL1   C24 5798   2.674   5.249   8.900 -0.1408 -0.0927  0.4331
   45CHL1  H24A 5799   2.705   5.332   8.967 -0.1339  1.0645 -0.9393
   45CHL1  H24B 5800   2.762   5.197   8.856 -1.0081 -1.0975 -0.1469
   45CHL1   C25 5801   2.598   5.325   8.783 -0.5579  0.3397  0.9116
   45CHL1   H25 5802   2.677   5.366   8.716 -0.7610 -1.5549 -0.5808
   45CHL1   C26 5803   2.511   5.230   8.705 -0.0106 -0.0623  0.4856
   45CHL1  H26A 5804   2.583   5.149   8.682 -0.4158 -0.2462 -0.1632
   45CHL1  H26B 5805   2.416   5.198   8.754 -0.8153  1.5300  0.0441
   45CHL1  H26C 5806   2.483   5.276   8.607  0.2234  1.3772  1.0753
   45CHL1   C27 5807   2.500   5.433   8.831 -0.5417  0.4532 -0.1823
   45CHL1  H27A 5808   2.447   5.388   8.917  0.3645 -0.5867 -0.1515
   45CHL1  H27B 5809   2.553   5.528   8.857  0.7889 -0.2132 -0.3861
   45CHL1  H27C 5810   2.422   5.446   8.753 -0.6361 -0.1026 -0.1823
   46CHL1    C3 5811   4.850   4.083   9.967 -0.3072  0.6670 -1.3042
   46CHL1    H3 5812   4.883   4.187   9.945 -0.4269  1.2821  1.2124
   46CHL1    O3 5813   4.844   4.085  10.107 -0.3160  1.0432 -0.0791
   46CHL1   H3' 5814   4.918   4.041  10.152 -1.5643 -0.9959  0.1225
   46CHL1    C4 5815   4.710   4.070   9.898  0.4610 -0.0534 -0.0540
   46CHL1   H4A 5816   4.656   3.982   9.939 -4.1333  1.8390 -1.3764
   46CHL1   H4B 5817   4.642   4.151   9.930 -0.3680 -1.0110  0.6962
   46CHL1    C5 5818   4.713   4.058   9.744  0.2636  0.1638 -0.8036
   46CHL1    C6 5819   4.639   4.129   9.649 -0.0699 -0.1884 -0.4132
   46CHL1    H6 5820   4.563   4.196   9.690  1.3300  1.4075 -0.3360
   46CHL1    C7 5821   4.639   4.111   9.501  0.9564 -0.7116  0.4620
   46CHL1   H7A 5822   4.536   4.089   9.467  0.5344  0.4759  0.9298
   46CHL1   H7B 5823   4.677   4.199   9.445 -0.0540 -0.7274 -0.2746
   46CHL1    C8 5824   4.724   3.991   9.463 -0.3559 -0.2871 -0.1885
   46CHL1    H8 5825   4.662   3.903   9.491  0.8984 -0.5158  2.0604
   46CHL1   C14 5826   4.753   3.983   9.319  0.4697 -0.4232  0.2659
   46CHL1   H14 5827   4.799   4.081   9.292  0.9197 -1.0968 -1.5383
   46CHL1   C15 5828   4.632   3.973   9.233  1.0871 -0.3714  0.4246
   46CHL1  H15A 5829   4.571   3.887   9.268  2.8268 -2.1020 -0.6162
   46CHL1  H15B 5830   4.570   4.065   9.237  0.3482 -0.7028 -2.0432
   46CHL1   C16 5831   4.686   3.954   9.093 -0.7604  0.4159 -0.0170
   46CHL1  H16A 5832   4.615   3.894   9.032  1.2282  1.0062 -3.1189
   46CHL1  H16B 5833   4.705   4.047   9.034  2.4113  0.5227  0.9692
   46CHL1   C17 5834   4.835   3.892   9.116  0.2747  0.2243  0.5790
   46CHL1   H17 5835   4.906   3.976   9.103  0.6900 -0.3265 -0.8430
   46CHL1   C13 5836   4.842   3.872   9.265  0.0082 -0.6530  0.1873
   46CHL1   C18 5837   4.771   3.737   9.287 -0.0211 -0.1144 -0.7070
   46CHL1  H18A 5838   4.850   3.661   9.267 -2.4459 -2.5755 -1.3668
   46CHL1  H18B 5839   4.734   3.743   9.392 -0.7888 -3.8457 -0.6503
   46CHL1  H18C 5840   4.685   3.715   9.221 -1.0531  0.7997  0.2923
   46CHL1   C12 5841   4.976   3.879   9.339 -0.0669 -0.5379  0.0261
   46CHL1  H12A 5842   5.047   3.800   9.307  3.1760  0.7772  3.2709
   46CHL1  H12B 5843   5.012   3.982   9.320  0.8097 -0.8852 -0.2310
   46CHL1   C11 5844   4.959   3.868   9.487  0.4330  0.5012 -0.7196
   46CHL1  H11A 5845   4.927   3.767   9.520  2.0071  0.2819  0.2417
   46CHL1  H11B 5846   5.057   3.902   9.526  0.0636  0.7497  0.0153
   46CHL1    C9 5847   4.856   3.977   9.545  0.2887  0.0828  0.0214
   46CHL1    H9 5848   4.907   4.073   9.524 -1.4963  1.2919  0.9881
   46CHL1   C10 5849   4.820   3.961   9.694 -0.3875  0.2244  0.5297
   46CHL1   C19 5850   4.780   3.816   9.732  0.2605  0.2073 -0.4431
   46CHL1  H19A 5851   4.749   3.807   9.838  0.3638 -2.2507 -0.5564
   46CHL1  H19B 5852   4.688   3.779   9.682 -2.1454 -1.7388  4.7291
   46CHL1  H19C 5853   4.844   3.734   9.692  0.9580  0.3519  0.3382
   46CHL1    C1 5854   4.952   3.977   9.765 -0.4920 -0.2992 -0.0336
   46CHL1   H1A 5855   5.034   3.911   9.728 -0.0778  0.3767 -0.3555
   46CHL1   H1B 5856   4.990   4.076   9.730 -1.5517  1.4247  3.2412
   46CHL1    C2 5857   4.947   3.975   9.917  0.1148  0.2141 -0.0171
   46CHL1   H2A 5858   5.045   3.994   9.965 -0.0741  2.4927 -0.4018
   46CHL1   H2B 5859   4.918   3.873   9.948  2.7251 -0.4532  0.5097
   46CHL1   C20 5860   4.884   3.792   9.010  1.2669  0.3616 -0.1503
   46CHL1   H20 5861   4.795   3.729   8.991  0.9182  0.1773  1.8581
   46CHL1   C21 5862   5.000   3.695   9.046  0.0636 -0.4605  0.2342
   46CHL1  H21A 5863   5.089   3.742   9.093  0.6440 -1.2592 -0.0516
   46CHL1  H21B 5864   5.037   3.642   8.956 -1.9194 -3.1024  0.8684
   46CHL1  H21C 5865   4.972   3.618   9.120 -2.6801  2.2531  2.2490
   46CHL1   C22 5866   4.919   3.862   8.869  0.7802 -0.1281 -0.2584
   46CHL1  H22A 5867   4.834   3.927   8.838  2.6747  2.1231 -1.0386
   46CHL1  H22B 5868   5.001   3.937   8.878  0.9388 -0.5326  2.5536
   46CHL1   C23 5869   4.954   3.774   8.752  0.7265  0.6541  0.3174
   46CHL1  H23A 5870   5.042   3.708   8.770 -1.1921 -2.7291 -1.6508
   46CHL1  H23B 5871   4.867   3.708   8.729  1.3302  0.0034 -0.1471
   46CHL1   C24 5872   4.983   3.855   8.623 -0.1248 -0.3581  0.2131
   46CHL1  H24A 5873   4.902   3.931   8.619 -1.2617 -1.5225  0.3170
   46CHL1  H24B 5874   5.078   3.911   8.640  0.2620 -1.2235  1.0139
   46CHL1   C25 5875   4.990   3.776   8.491  0.0871  0.7617 -0.2447
   46CHL1   H25 5876   4.900   3.711   8.485  0.0556  0.7527  0.3083
   46CHL1   C26 5877   5.015   3.857   8.367  0.1173 -0.2251 -0.1931
   46CHL1  H26A 5878   5.036   3.796   8.277 -0.3752 -0.9691  0.1897
   46CHL1  H26B 5879   4.928   3.926   8.350  1.7637  1.9328 -0.3148
   46CHL1  H26C 5880   5.096   3.932   8.376 -0.5147  0.4910 -0.3238
   46CHL1   C27 5881   5.105   3.673   8.499 -0.1116  0.7117 -0.3830
   46CHL1  H27A 5882   5.199   3.709   8.544  1.2149 -1.0404 -1.6124
   46CHL1  H27B 5883   5.065   3.592   8.564  1.3196 -1.4269 -2.0183
   46CHL1  H27C 5884   5.137   3.616   8.409  0.8523 -0.3991  0.6427
   47CHL1    C3 5885   0.608   0.296  10.105 -0.5259 -0.5198 -0.1746
   47CHL1    H3 5886   0.717   0.317  10.109 -0.7981  1.0066 -0.2766
   47CHL1    O3 5887   0.559   0.274  10.241 -0.5733  0.2015  0.5384
   47CHL1   H3' 5888   0.476   0.230  10.223 -0.3927 -0.1600  0.5842
   47CHL1    C4 5889   0.532   0.415  10.037 -0.3572 -0.3623 -0.6977
   47CHL1   H4A 5890   0.424   0.387  10.040 -0.8319  1.4045 -0.1936
   47CHL1   H4B 5891   0.549   0.510  10.091 -2.2109 -0.6713  0.5154
   47CHL1    C5 5892   0.553   0.431   9.891  0.3757  0.3751  0.3157
   47CHL1    C6 5893   0.609   0.543   9.847  0.1557 -1.0121 -0.3170
   47CHL1    H6 5894   0.617   0.619   9.926  1.7264 -0.5407 -0.8998
   47CHL1    C7 5895   0.632   0.567   9.701 -0.0643 -0.4772 -0.3024
   47CHL1   H7A 5896   0.596   0.670   9.681 -1.0145 -0.6256  0.5849
   47CHL1   H7B 5897   0.740   0.579   9.677  0.0768  0.2063  0.6145
   47CHL1    C8 5898   0.579   0.461   9.607 -0.3185  0.1580  0.3577
   47CHL1    H8 5899   0.471   0.482   9.598 -0.2600  2.5021  3.6691
   47CHL1   C14 5900   0.647   0.484   9.474  0.3122 -0.3783 -0.1988
   47CHL1   H14 5901   0.756   0.476   9.494  0.0757  0.0543  1.3789
   47CHL1   C15 5902   0.621   0.619   9.397 -0.8383  0.1467 -0.1802
   47CHL1  H15A 5903   0.513   0.642   9.406 -1.2958 -2.1751  0.9294
   47CHL1  H15B 5904   0.695   0.698   9.426  0.4942 -0.7931 -0.9091
   47CHL1   C16 5905   0.662   0.581   9.252 -0.7174  0.2681  0.0258
   47CHL1  H16A 5906   0.587   0.627   9.184  0.6421  0.6907 -1.2534
   47CHL1  H16B 5907   0.754   0.635   9.220 -0.3538  0.5400  1.4856
   47CHL1   C17 5908   0.692   0.430   9.248  0.0496  0.2007  0.6578
   47CHL1   H17 5909   0.802   0.420   9.256  0.1574  1.7585  1.4339
   47CHL1   C13 5910   0.610   0.373   9.372  0.0827  0.2350 -0.5392
   47CHL1   C18 5911   0.457   0.368   9.344  0.5213 -0.7458 -0.2066
   47CHL1  H18A 5912   0.398   0.365   9.438  0.5946  0.4706 -0.1004
   47CHL1  H18B 5913   0.421   0.462   9.298  0.1636 -0.5545  0.4424
   47CHL1  H18C 5914   0.440   0.286   9.272  0.7527  1.8794 -3.4780
   47CHL1   C12 5915   0.655   0.239   9.430  0.0904  0.9986  0.1573
   47CHL1  H12A 5916   0.649   0.156   9.356 -1.2641  0.1911  1.1232
   47CHL1  H12B 5917   0.762   0.249   9.458  0.0798 -0.9094  1.0762
   47CHL1   C11 5918   0.584   0.203   9.566 -0.3577  0.4547  0.2005
   47CHL1  H11A 5919   0.477   0.183   9.544 -0.3888  0.9366 -0.1046
   47CHL1  H11B 5920   0.622   0.109   9.612  2.4340  0.9883 -0.7985
   47CHL1    C9 5921   0.602   0.322   9.664 -0.6622  0.0890  0.1628
   47CHL1    H9 5922   0.713   0.322   9.671 -0.5827 -0.3149 -0.8139
   47CHL1   C10 5923   0.537   0.308   9.802 -0.0257  0.7492  0.1221
   47CHL1   C19 5924   0.376   0.279   9.791  0.1858 -1.2310 -0.0569
   47CHL1  H19A 5925   0.371   0.194   9.720  1.6116  1.0633 -3.1019
   47CHL1  H19B 5926   0.327   0.251   9.887 -1.0368 -1.9067 -0.8632
   47CHL1  H19C 5927   0.324   0.362   9.738  0.1175 -1.5807 -0.5393
   47CHL1    C1 5928   0.618   0.191   9.869 -0.2416 -0.1585  0.3627
   47CHL1   H1A 5929   0.592   0.089   9.833  0.0916  0.7584 -2.8455
   47CHL1   H1B 5930   0.726   0.212   9.853  0.2075 -1.7066  1.2057
   47CHL1    C2 5931   0.586   0.174  10.016 -0.0036  0.8468 -0.1271
   47CHL1   H2A 5932   0.644   0.087  10.052 -3.3188 -1.2832  0.4760
   47CHL1   H2B 5933   0.480   0.141  10.027 -0.1501  1.1457 -0.6021
   47CHL1   C20 5934   0.670   0.366   9.107  0.5005  0.1058  0.1841
   47CHL1   H20 5935   0.566   0.329   9.110  0.6943 -0.5596 -0.8231
   47CHL1   C21 5936   0.764   0.248   9.107  0.4285 -0.3505  0.5775
   47CHL1  H21A 5937   0.743   0.178   9.191 -0.9684 -1.2572 -0.4739
   47CHL1  H21B 5938   0.873   0.268   9.105  0.5251 -0.7624 -2.2733
   47CHL1  H21C 5939   0.755   0.184   9.016  1.1878 -3.3476  2.4630
   47CHL1   C22 5940   0.693   0.465   8.993 -0.7584  0.2163  0.3889
   47CHL1  H22A 5941   0.617   0.546   8.993  0.2680  1.2204  1.4607
   47CHL1  H22B 5942   0.795   0.508   9.005  0.4781 -2.8089  2.0247
   47CHL1   C23 5943   0.694   0.408   8.848  0.1980 -0.2063  0.2753
   47CHL1  H23A 5944   0.766   0.325   8.833 -1.1018 -1.2870 -0.1850
   47CHL1  H23B 5945   0.597   0.358   8.827  0.6721 -0.7286 -0.7786
   47CHL1   C24 5946   0.710   0.522   8.743  0.8204  0.1425 -0.0220
   47CHL1  H24A 5947   0.617   0.580   8.764 -0.0199 -0.5669 -1.6400
   47CHL1  H24B 5948   0.809   0.572   8.752  1.2026 -0.0339 -2.5603
   47CHL1   C25 5949   0.694   0.471   8.604 -0.5007  0.2670 -0.7835
   47CHL1   H25 5950   0.611   0.400   8.583  1.6713 -2.0088 -2.1878
   47CHL1   C26 5951   0.679   0.583   8.507  0.3234  0.2678 -0.4042
   47CHL1  H26A 5952   0.646   0.559   8.404  1.9893 -0.0346 -0.9040
   47CHL1  H26B 5953   0.778   0.633   8.502 -0.1482  1.3868  0.7375
   47CHL1  H26C 5954   0.606   0.655   8.549 -1.0480 -1.4844  0.3269
   47CHL1   C27 5955   0.818   0.389   8.571  0.3996 -0.4879  0.3181
   47CHL1  H27A 5956   0.826   0.365   8.463  1.0939  1.1119 -0.0192
   47CHL1  H27B 5957   0.910   0.445   8.599  1.5138 -1.6086 -0.9895
   47CHL1  H27C 5958   0.825   0.304   8.642 -0.0703 -0.8268 -0.0405
   48CHL1    C3 5959   6.727   1.165  10.231 -0.4598  0.4400  0.0508
   48CHL1    H3 5960   6.633   1.110  10.251  0.1647 -0.1204  1.6082
   48CHL1    O3 5961   6.780   1.208  10.356 -0.0877 -0.1188 -0.0438
   48CHL1   H3' 5962   6.842   1.278  10.334  0.4924  0.0663  1.9930
   48CHL1    C4 5963   6.828   1.070  10.164 -0.2835 -0.2949 -0.1589
   48CHL1   H4A 5964   6.916   1.136  10.147 -0.7691  0.8697  1.5476
   48CHL1   H4B 5965   6.865   0.996  10.238 -1.0495  0.3894  0.9457
   48CHL1    C5 5966   6.788   1.019  10.033 -0.1731  0.4316  0.5762
   48CHL1    C6 5967   6.766   0.888  10.026 -0.3869  0.7137  0.2892
   48CHL1    H6 5968   6.797   0.815  10.102  1.9345 -1.3878 -2.4367
   48CHL1    C7 5969   6.706   0.827   9.899  0.4481 -0.4206 -0.6336
   48CHL1   H7A 5970   6.755   0.730   9.875 -0.2089 -1.8133  2.9489
   48CHL1   H7B 5971   6.602   0.803   9.927  0.8532  0.9257  2.5066
   48CHL1    C8 5972   6.706   0.928   9.780 -0.3682  0.5273 -0.5220
   48CHL1    H8 5973   6.808   0.937   9.737  0.8768 -0.8922  1.9139
   48CHL1   C14 5974   6.609   0.877   9.677 -0.1283 -0.3795  0.1174
   48CHL1   H14 5975   6.512   0.879   9.732  0.1658 -1.9359  0.7500
   48CHL1   C15 5976   6.642   0.734   9.625 -0.2034  0.2262  1.0055
   48CHL1  H15A 5977   6.750   0.720   9.603 -0.3277 -0.9470  1.0810
   48CHL1  H15B 5978   6.614   0.653   9.695  2.3270 -1.6831  0.0102
   48CHL1   C16 5979   6.579   0.729   9.484  0.1028  0.3195 -0.8535
   48CHL1  H16A 5980   6.649   0.701   9.403 -0.3955 -1.9024 -0.5795
   48CHL1  H16B 5981   6.497   0.654   9.482 -0.6471  0.9455  1.8697
   48CHL1   C17 5982   6.531   0.867   9.446  0.2459 -0.3668 -0.2837
   48CHL1   H17 5983   6.424   0.868   9.474 -0.1642  0.2740 -1.7955
   48CHL1   C13 5984   6.601   0.965   9.552 -0.0593  0.5254  0.4193
   48CHL1   C18 5985   6.747   0.991   9.502  0.3269  0.1583 -0.0832
   48CHL1  H18A 5986   6.742   1.058   9.414  1.9808  1.3369  0.6722
   48CHL1  H18B 5987   6.807   1.053   9.572  1.7382  1.7416 -2.5511
   48CHL1  H18C 5988   6.802   0.903   9.464 -0.6149 -0.4620 -0.0464
   48CHL1   C12 5989   6.536   1.098   9.594 -0.2732  0.1363 -0.9625
   48CHL1  H12A 5990   6.533   1.169   9.508 -1.7223  1.5405  0.1953
   48CHL1  H12B 5991   6.427   1.086   9.614 -0.0003 -0.5011  0.2365
   48CHL1   C11 5992   6.609   1.161   9.709 -1.1482  0.2730 -0.1644
   48CHL1  H11A 5993   6.704   1.202   9.668  0.1250 -1.2732  1.1269
   48CHL1  H11B 5994   6.548   1.246   9.748 -0.7803  1.3453 -1.8130
   48CHL1    C9 5995   6.647   1.063   9.823 -0.0456  0.0107 -0.0229
   48CHL1    H9 5996   6.552   1.045   9.878 -0.1504  0.0893 -0.1777
   48CHL1   C10 5997   6.741   1.125   9.930  0.4723 -0.1617  0.3491
   48CHL1   C19 5998   6.865   1.182   9.872 -0.4424  0.4692  0.3421
   48CHL1  H19A 5999   6.851   1.256   9.791  0.3662  0.7680  0.4606
   48CHL1  H19B 6000   6.926   1.249   9.937  1.4785 -0.9848  0.1005
   48CHL1  H19C 6001   6.928   1.097   9.840 -1.0017 -1.4194  3.7592
   48CHL1    C1 6002   6.659   1.243  10.008 -0.2564  0.0058 -0.3799
   48CHL1   H1A 6003   6.647   1.332   9.944  1.3431  1.7024  1.5523
   48CHL1   H1B 6004   6.560   1.194  10.018 -0.3673 -0.3048 -2.4394
   48CHL1    C2 6005   6.707   1.285  10.139 -0.2332  0.4602 -0.2043
   48CHL1   H2A 6006   6.635   1.353  10.187 -0.2623 -0.2784  0.8284
   48CHL1   H2B 6007   6.807   1.334  10.136  1.0091 -1.8887 -1.9578
   48CHL1   C20 6008   6.535   0.893   9.290 -0.8857 -0.2025  0.1119
   48CHL1   H20 6009   6.641   0.878   9.260 -1.3293  0.7343 -2.1739
   48CHL1   C21 6010   6.494   1.036   9.252 -0.0452 -0.5793  0.1208
   48CHL1  H21A 6011   6.495   1.038   9.141 -0.6956 -0.2899  0.1115
   48CHL1  H21B 6012   6.563   1.106   9.303 -1.3780  2.1308 -1.5282
   48CHL1  H21C 6013   6.392   1.060   9.289 -0.7548 -1.5766 -1.1151
   48CHL1   C22 6014   6.433   0.798   9.219  0.0300 -0.1953  0.1863
   48CHL1  H22A 6015   6.428   0.701   9.273  1.1026  1.7383  4.1523
   48CHL1  H22B 6016   6.330   0.841   9.215 -1.1812 -2.6767  1.9087
   48CHL1   C23 6017   6.491   0.755   9.083  0.0952 -0.8436 -0.7005
   48CHL1  H23A 6018   6.483   0.842   9.014 -0.6470 -0.4060 -0.0751
   48CHL1  H23B 6019   6.601   0.757   9.101 -0.2024 -3.6873  2.2179
   48CHL1   C24 6020   6.432   0.635   9.031 -0.2237  0.1671  0.1700
   48CHL1  H24A 6021   6.455   0.547   9.095 -2.0797 -0.5588 -0.0822
   48CHL1  H24B 6022   6.321   0.645   9.032 -0.4370 -1.4456 -1.7406
   48CHL1   C25 6023   6.484   0.595   8.887 -0.4594 -0.1959  0.0359
   48CHL1   H25 6024   6.582   0.647   8.877 -0.4555 -0.3788 -1.0892
   48CHL1   C26 6025   6.518   0.445   8.876  0.2653 -0.3917 -0.3906
   48CHL1  H26A 6026   6.563   0.419   8.778  1.1942  0.2130 -0.1328
   48CHL1  H26B 6027   6.596   0.414   8.949  0.8256  0.6636 -0.5154
   48CHL1  H26C 6028   6.423   0.388   8.889  0.1943 -0.5960 -1.6432
   48CHL1   C27 6029   6.383   0.642   8.780 -0.3312 -0.7337  0.2199
   48CHL1  H27A 6030   6.384   0.748   8.746 -1.2135 -1.0410 -0.8202
   48CHL1  H27B 6031   6.398   0.589   8.683  1.6922  1.4063 -0.7439
   48CHL1  H27C 6032   6.280   0.617   8.813 -0.5505  1.9631  1.9514
   49CHL1    C3 6033   2.991   3.593  10.228  0.0226  0.9382  0.2628
   49CHL1    H3 6034   3.088   3.637  10.194 -0.0861  0.6024 -0.5001
   49CHL1    O3 6035   2.997   3.562  10.368  0.1172 -0.1778 -0.8678
   49CHL1   H3' 6036   3.058   3.489  10.379  0.1084  0.0475  1.0738
   49CHL1    C4 6037   2.878   3.692  10.190 -0.2109 -0.0823 -0.7008
   49CHL1   H4A 6038   2.785   3.658  10.242  0.0890  0.0688 -0.0461
   49CHL1   H4B 6039   2.915   3.785  10.238  1.4758 -1.7427  1.4448
   49CHL1    C5 6040   2.874   3.706  10.039  0.3067  0.0663 -0.6552
   49CHL1    C6 6041   2.882   3.829   9.982  0.5143  0.1229 -0.4867
   49CHL1    H6 6042   2.901   3.912  10.052  0.4917 -2.0534  2.2905
   49CHL1    C7 6043   2.859   3.856   9.836  0.1028 -0.0765  1.1882
   49CHL1   H7A 6044   2.805   3.951   9.816  1.8710  0.4348 -1.8814
   49CHL1   H7B 6045   2.959   3.871   9.789 -0.7957  1.7447 -0.2902
   49CHL1    C8 6046   2.784   3.732   9.772  1.1659  0.2991  0.2703
   49CHL1    H8 6047   2.676   3.740   9.795  0.9283  2.6067 -1.2984
   49CHL1   C14 6048   2.800   3.747   9.618  0.0629  0.0009  0.2032
   49CHL1   H14 6049   2.910   3.734   9.610 -0.2361 -2.4161 -0.5241
   49CHL1   C15 6050   2.777   3.877   9.542 -0.5327 -0.0679  0.0752
   49CHL1  H15A 6051   2.690   3.925   9.592  0.6852  1.5315  0.7299
   49CHL1  H15B 6052   2.865   3.944   9.544  0.7603 -1.6027 -1.6014
   49CHL1   C16 6053   2.754   3.846   9.394  0.4084 -0.6727  0.0201
   49CHL1  H16A 6054   2.663   3.894   9.353  0.0582 -0.0333  1.4563
   49CHL1  H16B 6055   2.843   3.876   9.336  0.8619 -2.6554 -0.3753
   49CHL1   C17 6056   2.749   3.694   9.390  0.2353 -0.3288 -0.5549
   49CHL1   H17 6057   2.852   3.661   9.367 -0.3015 -3.0857  0.6423
   49CHL1   C13 6058   2.730   3.643   9.541  0.2087 -0.4505  0.4430
   49CHL1   C18 6059   2.584   3.635   9.582  0.5452 -0.8627  0.1683
   49CHL1  H18A 6060   2.556   3.613   9.687  1.1204  2.7810  1.2196
   49CHL1  H18B 6061   2.543   3.735   9.558 -1.7717 -2.1435 -1.7147
   49CHL1  H18C 6062   2.536   3.562   9.513 -2.0687  0.9544 -0.0932
   49CHL1   C12 6063   2.804   3.511   9.568  1.2665 -0.0758 -0.7075
   49CHL1  H12A 6064   2.763   3.437   9.496  0.5905 -0.4088  0.0148
   49CHL1  H12B 6065   2.905   3.528   9.525  1.5187 -1.0499 -0.5355
   49CHL1   C11 6066   2.800   3.484   9.714 -0.2793  0.4657 -0.4119
   49CHL1  H11A 6067   2.700   3.447   9.748  1.3644 -2.4615  1.7243
   49CHL1  H11B 6068   2.868   3.400   9.740  0.9223  1.9729  1.5182
   49CHL1    C9 6069   2.846   3.597   9.807  0.0769 -0.9318 -1.0818
   49CHL1    H9 6070   2.953   3.614   9.787  0.1580 -1.7560 -1.3846
   49CHL1   C10 6071   2.845   3.578   9.963  0.2633  0.4171  0.2779
   49CHL1   C19 6072   2.708   3.519  10.012  0.4539 -0.3301 -0.3914
   49CHL1  H19A 6073   2.703   3.513  10.123  0.4188 -2.9741 -0.4907
   49CHL1  H19B 6074   2.620   3.577   9.977  0.4542 -0.6323 -0.9030
   49CHL1  H19C 6075   2.700   3.414   9.977  2.2810 -0.7462  0.3331
   49CHL1    C1 6076   2.947   3.475  10.006 -0.5759 -0.6645 -0.2692
   49CHL1   H1A 6077   2.924   3.376   9.962  2.2312 -2.2891  1.6074
   49CHL1   H1B 6078   3.047   3.507   9.971 -0.6457  0.1816  0.2799
   49CHL1    C2 6079   2.963   3.458  10.154 -0.5691  0.4218 -0.0701
   49CHL1   H2A 6080   3.039   3.381  10.178 -1.7749 -0.5433  0.7226
   49CHL1   H2B 6081   2.875   3.412  10.203 -0.0873 -0.2819  0.1372
   49CHL1   C20 6082   2.666   3.617   9.282  0.2431  0.6851  0.4055
   49CHL1   H20 6083   2.650   3.513   9.317 -0.0143  0.8330  0.7323
   49CHL1   C21 6084   2.758   3.624   9.159 -0.2342  0.2235 -0.5286
   49CHL1  H21A 6085   2.816   3.717   9.142 -2.1446  1.6618  0.4042
   49CHL1  H21B 6086   2.703   3.609   9.064  0.0966  0.6708 -0.7945
   49CHL1  H21C 6087   2.825   3.535   9.171 -1.2467 -0.4825  0.0285
   49CHL1   C22 6088   2.534   3.682   9.238 -0.4192 -0.3697 -0.0852
   49CHL1  H22A 6089   2.493   3.729   9.330  1.0015  0.0176  0.3849
   49CHL1  H22B 6090   2.570   3.753   9.162  0.5504 -1.2068 -0.4384
   49CHL1   C23 6091   2.442   3.581   9.170  0.2772 -0.3422  0.3120
   49CHL1  H23A 6092   2.496   3.544   9.079 -0.1490 -3.0838  1.0800
   49CHL1  H23B 6093   2.398   3.499   9.230  0.8580 -1.5991 -0.9268
   49CHL1   C24 6094   2.320   3.662   9.108  0.0874  0.0760 -0.3618
   49CHL1  H24A 6095   2.258   3.705   9.189  0.2297  1.5439 -1.0017
   49CHL1  H24B 6096   2.358   3.753   9.057 -1.1241  0.7646 -0.0712
   49CHL1   C25 6097   2.223   3.574   9.023  0.5193  0.3818  1.7786
   49CHL1   H25 6098   2.210   3.480   9.081  2.4806 -1.3291 -0.3929
   49CHL1   C26 6099   2.091   3.649   9.010  0.5598 -0.5787  0.1318
   49CHL1  H26A 6100   2.045   3.664   9.110 -1.0578  3.0885 -0.9985
   49CHL1  H26B 6101   2.112   3.749   8.967  0.6812 -1.0689 -1.0031
   49CHL1  H26C 6102   2.016   3.597   8.947 -0.8270  0.8737  0.5237
   49CHL1   C27 6103   2.279   3.536   8.883 -0.0738 -0.1911 -0.4544
   49CHL1  H27A 6104   2.326   3.629   8.845 -0.3684  0.2127  0.1610
   49CHL1  H27B 6105   2.363   3.468   8.909 -0.6280 -0.8937 -0.4629
   49CHL1  H27C 6106   2.207   3.496   8.809 -0.7997 -0.1871  0.2269
   50CHL1    C3 6107   1.777   3.188  10.021  0.1635 -0.1543  0.1241
   50CHL1    H3 6108   1.765   3.077  10.017  3.3913 -0.7076  2.0394
   50CHL1    O3 6109   1.772   3.235  10.158 -0.3308 -0.0320  0.1672
   50CHL1   H3' 6110   1.742   3.326  10.154  0.6938  0.2602 -1.9395
   50CHL1    C4 6111   1.909   3.235   9.962 -0.3361 -0.1364  0.3526
   50CHL1   H4A 6112   1.929   3.341   9.988  0.3048  0.0616 -0.8829
   50CHL1   H4B 6113   1.974   3.173  10.027 -2.1218 -0.5370  1.8409
   50CHL1    C5 6114   1.923   3.198   9.819  0.0570 -0.7640  0.3981
   50CHL1    C6 6115   2.030   3.132   9.765  0.3537  0.1188  0.5176
   50CHL1    H6 6116   2.111   3.095   9.830 -1.1073  0.3728  2.5964
   50CHL1    C7 6117   2.052   3.113   9.615  0.0323 -0.6400 -0.2268
   50CHL1   H7A 6118   2.154   3.151   9.594 -0.1993  1.3426  1.7358
   50CHL1   H7B 6119   2.046   3.005   9.590 -1.2575 -0.3671 -1.1940
   50CHL1    C8 6120   1.956   3.197   9.529 -0.2956 -0.3987 -0.5031
   50CHL1    H8 6121   1.993   3.300   9.542 -1.2395  0.0758 -1.4324
   50CHL1   C14 6122   1.957   3.138   9.386  1.0567 -0.6558 -0.2940
   50CHL1   H14 6123   1.928   3.031   9.393  0.7639 -0.7619 -2.4265
   50CHL1   C15 6124   2.090   3.121   9.316  0.6752  0.0083 -0.1851
   50CHL1  H15A 6125   2.143   3.219   9.311  0.2670  0.2190 -0.5153
   50CHL1  H15B 6126   2.162   3.039   9.337  1.9755  0.1597 -3.5048
   50CHL1   C16 6127   2.048   3.091   9.170 -0.4840  0.7450  0.3304
   50CHL1  H16A 6128   2.108   3.141   9.091  2.1762 -1.6854  0.6502
   50CHL1  H16B 6129   2.058   2.981   9.158 -1.3310  0.7329 -0.3322
   50CHL1   C17 6130   1.894   3.114   9.157 -0.5239 -0.3007 -0.1011
   50CHL1   H17 6131   1.842   3.019   9.181  1.1008 -1.6264 -1.6096
   50CHL1   C13 6132   1.859   3.199   9.282 -0.3036  0.4293 -0.3971
   50CHL1   C18 6133   1.896   3.344   9.245 -0.2040  0.7442  0.7080
   50CHL1  H18A 6134   1.994   3.352   9.192 -0.5167  2.2349  0.3067
   50CHL1  H18B 6135   1.822   3.392   9.178 -1.3476 -0.0840  1.3414
   50CHL1  H18C 6136   1.911   3.408   9.335 -0.1991  1.1031  0.4532
   50CHL1   C12 6137   1.713   3.186   9.338  0.0706 -0.0365  0.5058
   50CHL1  H12A 6138   1.646   3.241   9.268  1.4362  1.9542  0.6675
   50CHL1  H12B 6139   1.690   3.079   9.353  1.9681 -0.1518  3.3989
   50CHL1   C11 6140   1.707   3.242   9.483  0.1956 -0.3803 -0.1257
   50CHL1  H11A 6141   1.722   3.350   9.463  1.9575  0.0390  2.8085
   50CHL1  H11B 6142   1.607   3.233   9.529 -0.3656  0.5787 -1.1176
   50CHL1    C9 6143   1.814   3.191   9.585 -0.6530 -0.3419  0.0930
   50CHL1    H9 6144   1.794   3.083   9.596 -0.8162 -0.4567 -1.1589
   50CHL1   C10 6145   1.810   3.248   9.726  0.0575 -0.0848  1.0033
   50CHL1   C19 6146   1.812   3.397   9.715  0.2689 -0.9325 -0.1640
   50CHL1  H19A 6147   1.908   3.439   9.676  0.5057  0.6707  1.9467
   50CHL1  H19B 6148   1.729   3.432   9.651 -0.1966 -1.5728  0.0811
   50CHL1  H19C 6149   1.795   3.445   9.814  0.4370  0.4373 -0.7849
   50CHL1    C1 6150   1.676   3.209   9.796 -0.1261  0.2191  0.0750
   50CHL1   H1A 6151   1.586   3.239   9.738 -0.4951 -1.8942 -0.5194
   50CHL1   H1B 6152   1.673   3.098   9.804 -1.7057  0.0131 -2.3731
   50CHL1    C2 6153   1.661   3.251   9.945  0.3024  0.1255  0.2344
   50CHL1   H2A 6154   1.564   3.212   9.982  0.3771  2.5963  3.4598
   50CHL1   H2B 6155   1.664   3.361   9.960 -0.8961  0.0702  1.0394
   50CHL1   C20 6156   1.837   3.146   9.016  1.0654  0.2756  0.9222
   50CHL1   H20 6157   1.877   3.245   8.986 -1.2133  1.0086  0.1057
   50CHL1   C21 6158   1.676   3.155   9.002  0.9161  0.7918  0.2256
   50CHL1  H21A 6159   1.630   3.253   9.028 -1.8548  0.0786 -1.4768
   50CHL1  H21B 6160   1.624   3.076   9.060 -0.4261  2.2134  1.0411
   50CHL1  H21C 6161   1.646   3.139   8.896  1.3886  0.6754  0.1070
   50CHL1   C22 6162   1.888   3.032   8.908 -0.3724 -0.2967  0.6401
   50CHL1  H22A 6163   1.999   3.026   8.909 -0.3499 -0.4515 -1.0292
   50CHL1  H22B 6164   1.841   2.936   8.936 -2.6356  0.0387 -1.6369
   50CHL1   C23 6165   1.857   3.067   8.762  0.1193 -0.6125 -0.1896
   50CHL1  H23A 6166   1.865   2.976   8.699 -0.4830 -0.2930 -0.7346
   50CHL1  H23B 6167   1.748   3.083   8.754 -0.2604 -0.9119  2.9847
   50CHL1   C24 6168   1.932   3.197   8.710 -0.0224  0.5649  0.2175
   50CHL1  H24A 6169   1.880   3.276   8.770  2.8307  1.2882  1.8968
   50CHL1  H24B 6170   2.039   3.201   8.736 -0.0403  1.8573  0.1586
   50CHL1   C25 6171   1.903   3.220   8.568 -0.2468  0.2809 -0.2627
   50CHL1   H25 6172   1.801   3.186   8.542  0.4442 -2.2156  0.0277
   50CHL1   C26 6173   1.924   3.375   8.535 -0.8055  1.1276 -0.1687
   50CHL1  H26A 6174   2.023   3.421   8.553 -1.0068  1.3459  0.4094
   50CHL1  H26B 6175   1.909   3.385   8.426 -1.8865  1.1912 -0.0237
   50CHL1  H26C 6176   1.840   3.419   8.592 -1.1758  0.4866 -0.2098
   50CHL1   C27 6177   1.983   3.127   8.474  0.3147  0.3957  0.1730
   50CHL1  H27A 6178   1.953   3.023   8.502 -0.7258  0.9484  1.1974
   50CHL1  H27B 6179   1.956   3.138   8.366 -0.2647  1.2420  0.3904
   50CHL1  H27C 6180   2.092   3.133   8.490  1.0367 -2.8273 -2.4657
   51CHL1    C3 6181   3.027   0.013  10.406  0.4493 -0.4472 -0.4121
   51CHL1    H3 6182   3.089  -0.071  10.444  0.0466 -0.2569  0.7116
   51CHL1    O3 6183   2.976   0.077  10.521  0.5409  0.3925 -0.3843
   51CHL1   H3' 6184   2.891   0.108  10.491  0.9241  2.4330  0.4690
   51CHL1    C4 6185   3.115   0.120  10.327  0.5032 -0.2638 -0.1829
   51CHL1   H4A 6186   3.041   0.202  10.322 -1.0906 -1.7410 -2.8321
   51CHL1   H4B 6187   3.203   0.143  10.391  1.1891 -2.2368 -0.3487
   51CHL1    C5 6188   3.151   0.080  10.188 -0.1124  0.4454  0.3574
   51CHL1    C6 6189   3.279   0.094  10.145  0.0334 -0.2999  0.5554
   51CHL1    H6 6190   3.356   0.126  10.216  2.2620  0.2359 -1.9216
   51CHL1    C7 6191   3.328   0.055  10.010  0.1988  0.4590  0.0352
   51CHL1   H7A 6192   3.411   0.120   9.976  0.9876 -0.6372 -0.1714
   51CHL1   H7B 6193   3.368  -0.048  10.012  0.3751  0.5334  0.3359
   51CHL1    C8 6194   3.213   0.054   9.907 -0.5860  0.4533  0.1693
   51CHL1    H8 6195   3.188   0.161   9.889  0.4514  1.0474  1.9997
   51CHL1   C14 6196   3.264  -0.011   9.783  0.1814 -0.0734 -0.4619
   51CHL1   H14 6197   3.285  -0.118   9.805  1.8488  0.2914 -0.1787
   51CHL1   C15 6198   3.384   0.048   9.713  0.0209 -0.7009 -0.5227
   51CHL1  H15A 6199   3.375   0.158   9.702 -3.4733 -0.7472  0.5252
   51CHL1  H15B 6200   3.480   0.015   9.758 -0.9839 -1.6157  1.0698
   51CHL1   C16 6201   3.379   0.000   9.567 -0.6391  0.8565  0.2695
   51CHL1  H16A 6202   3.387   0.080   9.489  0.3248 -1.6857 -2.4397
   51CHL1  H16B 6203   3.460  -0.073   9.548 -2.4426 -1.4863  1.2078
   51CHL1   C17 6204   3.243  -0.079   9.559 -0.4099 -0.4615 -0.1614
   51CHL1   H17 6205   3.272  -0.181   9.593 -0.3857 -0.3241  0.2388
   51CHL1   C13 6206   3.156  -0.023   9.673 -0.4763 -0.4452  0.1303
   51CHL1   C18 6207   3.099   0.116   9.635  0.0676  0.1843  0.4204
   51CHL1  H18A 6208   3.171   0.175   9.575  1.8742 -1.5215  0.8065
   51CHL1  H18B 6209   3.009   0.096   9.573  1.2235 -1.0942 -0.9306
   51CHL1  H18C 6210   3.051   0.170   9.720  2.0048  1.1166  0.9702
   51CHL1   C12 6211   3.051  -0.118   9.725 -0.3608  0.0399 -0.3808
   51CHL1  H12A 6212   2.972  -0.112   9.647 -0.4240 -1.1523 -0.4268
   51CHL1  H12B 6213   3.084  -0.223   9.734 -0.9296  0.0386  2.3202
   51CHL1   C11 6214   2.988  -0.056   9.851  0.2656  0.0430 -0.2577
   51CHL1  H11A 6215   2.924   0.027   9.816  0.3813 -0.8223 -2.7594
   51CHL1  H11B 6216   2.923  -0.143   9.876  1.8855 -1.8611 -2.2601
   51CHL1    C9 6217   3.096  -0.024   9.958  0.2394 -0.7182  0.0677
   51CHL1    H9 6218   3.129  -0.123   9.995 -1.3531 -0.7966  1.3739
   51CHL1   C10 6219   3.038   0.030  10.090 -0.2253  0.9763  0.6398
   51CHL1   C19 6220   2.940   0.156  10.073 -0.5851  0.3222 -0.3804
   51CHL1  H19A 6221   2.847   0.122  10.022 -0.9496 -1.2583  1.2424
   51CHL1  H19B 6222   2.917   0.192  10.175 -0.4928 -4.4638  1.6225
   51CHL1  H19C 6223   2.990   0.235  10.013 -0.1053 -0.7542 -1.4513
   51CHL1    C1 6224   2.964  -0.084  10.176  0.8259 -0.2594  0.5508
   51CHL1   H1A 6225   2.886  -0.137  10.117  0.6709 -2.0824  2.2753
   51CHL1   H1B 6226   3.039  -0.159  10.207 -0.0395 -0.0762  3.4952
   51CHL1    C2 6227   2.911  -0.051  10.318  0.4779 -0.0248 -0.1136
   51CHL1   H2A 6228   2.874  -0.142  10.369  0.4683 -0.9278 -1.6677
   51CHL1   H2B 6229   2.830   0.024  10.307 -0.9447 -1.5889 -0.7473
   51CHL1   C20 6230   3.185  -0.091   9.418 -0.4523 -0.9360 -0.0731
   51CHL1   H20 6231   3.117  -0.004   9.408  1.2421  0.6221  1.3182
   51CHL1   C21 6232   3.098  -0.220   9.408 -0.3690 -0.3006 -0.9868
   51CHL1  H21A 6233   3.158  -0.313   9.414  0.8415  0.5282  2.7910
   51CHL1  H21B 6234   3.031  -0.226   9.319  0.1457  1.6049 -1.5504
   51CHL1  H21C 6235   3.027  -0.237   9.493  0.4258  0.6319 -0.1112
   51CHL1   C22 6236   3.290  -0.081   9.307 -0.2686  0.8355  0.6046
   51CHL1  H22A 6237   3.308   0.027   9.288 -1.1386  1.0726  1.0992
   51CHL1  H22B 6238   3.379  -0.142   9.336 -1.0497  0.0268  1.3676
   51CHL1   C23 6239   3.258  -0.152   9.172  0.8133  0.3225  0.8694
   51CHL1  H23A 6240   3.233  -0.259   9.183  0.8976  0.1980 -0.0194
   51CHL1  H23B 6241   3.168  -0.097   9.138  1.4371  1.6691  1.3197
   51CHL1   C24 6242   3.365  -0.138   9.061  0.1864 -0.0021  0.1727
   51CHL1  H24A 6243   3.408  -0.037   9.079 -0.2401  0.1553  0.3130
   51CHL1  H24B 6244   3.443  -0.208   9.100  0.8903  0.6396 -0.0643
   51CHL1   C25 6245   3.331  -0.175   8.916 -0.4240 -0.3347 -0.0190
   51CHL1   H25 6246   3.419  -0.145   8.855  0.6531  0.6077  1.8712
   51CHL1   C26 6247   3.319  -0.331   8.904  0.5790  0.4862  0.3052
   51CHL1  H26A 6248   3.233  -0.367   8.964 -1.5227  0.0330 -2.7437
   51CHL1  H26B 6249   3.299  -0.367   8.800  0.8853  1.8341 -0.2410
   51CHL1  H26C 6250   3.419  -0.370   8.935  1.1872  0.5237 -1.4743
   51CHL1   C27 6251   3.206  -0.098   8.858  0.0184 -0.0859 -0.3644
   51CHL1  H27A 6252   3.216   0.013   8.860 -0.7027 -0.0209 -0.4089
   51CHL1  H27B 6253   3.198  -0.140   8.755  0.9986 -1.1783 -0.0177
   51CHL1  H27C 6254   3.122  -0.132   8.922  1.2984 -2.3725  0.2309
   52CHL1    C3 6255   4.392   6.493  10.051 -0.7370  0.0309  0.2957
   52CHL1    H3 6256   4.460   6.571  10.010 -1.8882  0.1428 -1.4905
   52CHL1    O3 6257   4.380   6.502  10.188 -1.2473 -0.1246 -0.3549
   52CHL1   H3' 6258   4.323   6.429  10.213 -0.0370 -0.8617  0.3659
   52CHL1    C4 6259   4.261   6.517   9.983  0.5016 -0.5027 -0.4717
   52CHL1   H4A 6260   4.191   6.452  10.040 -2.2630  1.5871 -1.2934
   52CHL1   H4B 6261   4.219   6.617  10.008 -1.3650 -2.0404  3.3618
   52CHL1    C5 6262   4.264   6.476   9.835  0.1979 -0.4299 -0.3396
   52CHL1    C6 6263   4.241   6.572   9.749 -0.7776 -0.0676 -0.4382
   52CHL1    H6 6264   4.216   6.672   9.789 -0.1875 -0.4516  0.9452
   52CHL1    C7 6265   4.240   6.553   9.600 -0.0064 -0.1973 -0.0705
   52CHL1   H7A 6266   4.163   6.619   9.555  0.4065 -0.5239 -1.2984
   52CHL1   H7B 6267   4.334   6.592   9.556 -1.5708  0.9803 -2.6048
   52CHL1    C8 6268   4.224   6.406   9.562 -0.5432  0.2324  0.4460
   52CHL1    H8 6269   4.118   6.389   9.589 -1.0682 -0.9260 -2.0491
   52CHL1   C14 6270   4.253   6.393   9.414 -0.0153  0.0886  0.8002
   52CHL1   H14 6271   4.364   6.396   9.402 -0.2297 -0.9829 -2.0929
   52CHL1   C15 6272   4.170   6.494   9.332 -0.8135  0.5409  0.4122
   52CHL1  H15A 6273   4.066   6.503   9.372 -0.7414  1.9157  0.3428
   52CHL1  H15B 6274   4.224   6.591   9.328 -1.2933  0.7633 -1.4525
   52CHL1   C16 6275   4.173   6.416   9.193  0.3953 -0.6842 -0.0910
   52CHL1  H16A 6276   4.070   6.398   9.156 -1.2348  2.8734  2.1883
   52CHL1  H16B 6277   4.233   6.487   9.132 -0.2685  1.7750  1.9590
   52CHL1   C17 6278   4.251   6.284   9.209 -0.8021  0.2274 -0.1918
   52CHL1   H17 6279   4.357   6.315   9.200 -0.7632  0.0205 -0.4295
   52CHL1   C13 6280   4.235   6.250   9.359  0.4619 -0.4199  0.2022
   52CHL1   C18 6281   4.088   6.203   9.382 -0.8234  0.5919 -0.0144
   52CHL1  H18A 6282   4.011   6.278   9.355 -1.1480 -0.5723 -2.5927
   52CHL1  H18B 6283   4.071   6.119   9.311  0.0840  1.8756 -1.8457
   52CHL1  H18C 6284   4.065   6.168   9.485 -1.5134  1.3553  0.1058
   52CHL1   C12 6285   4.338   6.157   9.436 -0.6589  0.8581  0.9254
   52CHL1  H12A 6286   4.321   6.051   9.408  0.6109  1.4065 -2.2533
   52CHL1  H12B 6287   4.442   6.178   9.403  0.7490 -3.8046  1.5804
   52CHL1   C11 6288   4.328   6.172   9.583  0.2056  0.0359 -0.5298
   52CHL1  H11A 6289   4.236   6.116   9.610 -0.6924  1.4214 -0.6304
   52CHL1  H11B 6290   4.424   6.137   9.628  1.0013 -0.3090 -2.4295
   52CHL1    C9 6291   4.322   6.318   9.636 -0.2321  0.6658  0.0779
   52CHL1    H9 6292   4.422   6.364   9.625 -1.0670  1.9174 -3.2336
   52CHL1   C10 6293   4.307   6.331   9.792  0.6559  0.1634 -0.6396
   52CHL1   C19 6294   4.208   6.223   9.846 -0.0626 -0.2150 -0.3565
   52CHL1  H19A 6295   4.152   6.249   9.939 -1.8353  2.8417 -2.1116
   52CHL1  H19B 6296   4.128   6.219   9.769  0.1549  3.2557 -0.9376
   52CHL1  H19C 6297   4.268   6.131   9.860 -0.8744 -0.3524  3.3540
   52CHL1    C1 6298   4.446   6.312   9.865 -0.1509  0.3442  0.1134
   52CHL1   H1A 6299   4.482   6.208   9.858  0.5386  0.5728  0.1927
   52CHL1   H1B 6300   4.519   6.372   9.808 -0.3964 -0.7563 -1.4128
   52CHL1    C2 6301   4.447   6.348  10.017  0.2887  0.4327 -0.2353
   52CHL1   H2A 6302   4.545   6.343  10.069 -0.8110  1.3298  2.1011
   52CHL1   H2B 6303   4.384   6.277  10.075  1.3970  1.6525  2.6469
   52CHL1   C20 6304   4.218   6.176   9.107 -0.4933 -0.2058  0.2267
   52CHL1   H20 6305   4.112   6.143   9.112 -0.0102 -1.9213 -0.2955
   52CHL1   C21 6306   4.316   6.054   9.121  0.3025  0.2780 -0.5244
   52CHL1  H21A 6307   4.422   6.077   9.145  0.1003 -0.3504  1.0527
   52CHL1  H21B 6308   4.310   5.983   9.036  3.3439 -0.7991  0.0458
   52CHL1  H21C 6309   4.274   6.007   9.212 -0.3514  1.0696 -0.4054
   52CHL1   C22 6310   4.218   6.235   8.960 -0.0233  0.1380  0.1191
   52CHL1  H22A 6311   4.211   6.147   8.893 -0.9690  0.2599  0.0352
   52CHL1  H22B 6312   4.125   6.294   8.945 -0.1768 -0.7367 -3.1752
   52CHL1   C23 6313   4.347   6.313   8.919  0.4652 -0.2456  0.0456
   52CHL1  H23A 6314   4.370   6.398   8.986  2.4907  0.5547 -1.5545
   52CHL1  H23B 6315   4.442   6.258   8.935  1.0284  1.0764  1.4770
   52CHL1   C24 6316   4.337   6.370   8.777  0.4257  0.4565  0.6932
   52CHL1  H24A 6317   4.322   6.287   8.704  3.1543 -1.5984  2.2709
   52CHL1  H24B 6318   4.247   6.435   8.772  0.1068 -0.0165  0.0439
   52CHL1   C25 6319   4.463   6.439   8.720  0.6354  0.0186  0.0556
   52CHL1   H25 6320   4.547   6.368   8.708  1.5243  0.8699  1.0108
   52CHL1   C26 6321   4.436   6.497   8.584  0.5103  0.0074 -0.3270
   52CHL1  H26A 6322   4.409   6.412   8.517 -1.6020 -0.8490  1.4819
   52CHL1  H26B 6323   4.345   6.561   8.582  1.4723  1.7999  3.5517
   52CHL1  H26C 6324   4.524   6.557   8.553  2.3094 -0.6962  3.0083
   52CHL1   C27 6325   4.514   6.550   8.816 -0.1079  0.5743  0.0581
   52CHL1  H27A 6326   4.429   6.620   8.835  0.8441  1.6292  0.5818
   52CHL1  H27B 6327   4.545   6.503   8.911 -0.3565  1.1674  0.4379
   52CHL1  H27C 6328   4.597   6.590   8.753 -0.3850 -1.3470 -1.6319
   53CHL1    C3 6329   6.746   6.378  10.076  0.7369  0.7544  0.3190
   53CHL1    H3 6330   6.845   6.418  10.106  0.8079  0.1856  0.8614
   53CHL1    O3 6331   6.689   6.341  10.198 -0.2122  0.1238  0.0137
   53CHL1   H3' 6332   6.597   6.362  10.184 -0.3084 -0.2259  0.1054
   53CHL1    C4 6333   6.643   6.476  10.001  0.2229 -0.0493  0.7072
   53CHL1   H4A 6334   6.550   6.416  10.000  1.2627 -1.8287 -2.3442
   53CHL1   H4B 6335   6.632   6.568  10.062  0.2740  1.2265 -1.1434
   53CHL1    C5 6336   6.686   6.503   9.858 -0.0065 -0.1977 -0.2738
   53CHL1    C6 6337   6.715   6.623   9.816 -0.3343 -0.3311 -0.3567
   53CHL1    H6 6338   6.705   6.712   9.880 -1.5812 -0.1112 -0.8218
   53CHL1    C7 6339   6.759   6.656   9.678  0.0624  0.3887  0.2632
   53CHL1   H7A 6340   6.703   6.735   9.624  0.5077 -0.5684 -1.7272
   53CHL1   H7B 6341   6.863   6.694   9.682  0.0487  0.2989  2.8185
   53CHL1    C8 6342   6.738   6.546   9.574 -0.1083 -0.5994  0.0641
   53CHL1    H8 6343   6.629   6.556   9.558 -0.0151 -0.8503 -0.7599
   53CHL1   C14 6344   6.813   6.562   9.446 -0.3229 -0.1884  0.1533
   53CHL1   H14 6345   6.921   6.552   9.470 -0.8667 -0.1286  2.9475
   53CHL1   C15 6346   6.806   6.703   9.380 -0.3010 -0.5048 -1.1710
   53CHL1  H15A 6347   6.703   6.745   9.383 -0.1053 -0.0960  1.3804
   53CHL1  H15B 6348   6.876   6.767   9.437  0.8627 -0.7691 -2.2300
   53CHL1   C16 6349   6.846   6.679   9.230  0.0129 -0.5524  0.4142
   53CHL1  H16A 6350   6.768   6.722   9.164 -0.8313 -2.2052  0.3055
   53CHL1  H16B 6351   6.942   6.733   9.213  0.9180 -2.7836 -2.1189
   53CHL1   C17 6352   6.862   6.527   9.218  0.0194  0.6370  1.4710
   53CHL1   H17 6353   6.964   6.503   9.255  0.2779 -0.2134  0.2634
   53CHL1   C13 6354   6.782   6.472   9.337  0.1430  0.5605  0.0116
   53CHL1   C18 6355   6.632   6.470   9.308  0.5132  0.3963  0.8218
   53CHL1  H18A 6356   6.585   6.564   9.273 -1.5794 -1.2325 -0.9636
   53CHL1  H18B 6357   6.611   6.385   9.241  1.2833 -0.5982  1.7966
   53CHL1  H18C 6358   6.574   6.435   9.396  0.4664 -0.0082  0.6284
   53CHL1   C12 6359   6.833   6.336   9.385  0.1316  0.3032 -0.2591
   53CHL1  H12A 6360   6.797   6.265   9.307  0.3727  2.0280 -1.9943
   53CHL1  H12B 6361   6.943   6.342   9.381  0.1965 -1.0233 -3.1114
   53CHL1   C11 6362   6.783   6.298   9.526 -0.4346  0.7510 -0.1118
   53CHL1  H11A 6363   6.680   6.260   9.510  0.3298 -1.3606 -0.3419
   53CHL1  H11B 6364   6.838   6.212   9.568 -1.9718  0.3019  1.0943
   53CHL1    C9 6365   6.783   6.411   9.635 -0.3307 -0.0776 -0.4703
   53CHL1    H9 6366   6.890   6.422   9.662 -1.0428  2.5099  1.7930
   53CHL1   C10 6367   6.712   6.375   9.772  0.2216 -0.3371 -0.3049
   53CHL1   C19 6368   6.568   6.311   9.747 -0.4574  0.2374  0.3203
   53CHL1  H19A 6369   6.507   6.279   9.835 -1.3580 -1.8434 -0.9860
   53CHL1  H19B 6370   6.507   6.384   9.691 -0.9113 -0.8700 -0.6738
   53CHL1  H19C 6371   6.580   6.216   9.691 -0.9426  0.7265 -0.6278
   53CHL1    C1 6372   6.800   6.279   9.844 -0.6951  0.2157 -0.8923
   53CHL1   H1A 6373   6.789   6.187   9.784 -0.3461 -0.2322 -0.2769
   53CHL1   H1B 6374   6.905   6.315   9.842  0.2926 -1.6854  3.5313
   53CHL1    C2 6375   6.757   6.251   9.993  0.0223 -0.2516 -0.1269
   53CHL1   H2A 6376   6.808   6.166  10.044  1.1746  1.1509  1.1285
   53CHL1   H2B 6377   6.652   6.216   9.981  0.2638 -1.0506  0.0181
   53CHL1   C20 6378   6.850   6.463   9.074  0.1807 -0.4944 -0.1186
   53CHL1   H20 6379   6.829   6.355   9.092  1.0223 -0.2574  2.8679
   53CHL1   C21 6380   6.987   6.480   9.002 -0.4627  0.4321  0.7812
   53CHL1  H21A 6381   6.999   6.585   8.968  0.2475 -0.0664 -0.5934
   53CHL1  H21B 6382   6.979   6.423   8.906 -0.6021  0.5760  0.7086
   53CHL1  H21C 6383   7.075   6.457   9.066 -0.2715  2.6643  1.3887
   53CHL1   C22 6384   6.733   6.529   8.987  0.4855 -0.1575 -0.2140
   53CHL1  H22A 6385   6.655   6.560   9.060  3.0817  0.2005  2.6235
   53CHL1  H22B 6386   6.760   6.628   8.944 -1.4673  0.4798 -0.0642
   53CHL1   C23 6387   6.684   6.442   8.874 -0.1681  0.0615  0.1950
   53CHL1  H23A 6388   6.772   6.434   8.805 -0.1536 -3.1760  0.4249
   53CHL1  H23B 6389   6.652   6.338   8.896 -1.0432  0.3345  0.2155
   53CHL1   C24 6390   6.568   6.503   8.804 -0.0514 -0.5705 -0.2158
   53CHL1  H24A 6391   6.487   6.529   8.875  1.7258  0.8945  1.3695
   53CHL1  H24B 6392   6.603   6.601   8.766 -1.7129 -0.0489 -0.4628
   53CHL1   C25 6393   6.520   6.417   8.687 -0.4043  0.1610 -0.1592
   53CHL1   H25 6394   6.512   6.313   8.726 -1.2678  0.4510  0.4910
   53CHL1   C26 6395   6.385   6.470   8.656  0.5318  0.0190  0.5836
   53CHL1  H26A 6396   6.313   6.470   8.740  0.0904  0.3469  0.2138
   53CHL1  H26B 6397   6.398   6.571   8.610 -1.2400 -0.2431 -0.6348
   53CHL1  H26C 6398   6.336   6.399   8.586 -1.7146  1.7348  0.2727
   53CHL1   C27 6399   6.611   6.419   8.567  0.3228  0.6044 -0.3409
   53CHL1  H27A 6400   6.649   6.520   8.538  1.0606  0.1155 -1.1232
   53CHL1  H27B 6401   6.692   6.345   8.584 -1.9068 -1.6363  1.0568
   53CHL1  H27C 6402   6.553   6.398   8.475 -0.0489 -0.0528  0.0441
   54CHL1    C3 6403   6.336   5.736  10.269 -0.1030  0.4172  0.5360
   54CHL1    H3 6404   6.438   5.752  10.228 -0.2634 -0.3207 -0.1779
   54CHL1    O3 6405   6.346   5.732  10.410  0.5528  0.0352 -0.1835
   54CHL1   H3' 6406   6.410   5.801  10.431  3.5632 -2.1867 -1.2955
   54CHL1    C4 6407   6.255   5.865  10.231 -0.8731  0.2456  0.0476
   54CHL1   H4A 6408   6.153   5.842  10.267 -0.2009 -1.2146  1.1447
   54CHL1   H4B 6409   6.301   5.948  10.289  1.1681  0.4001 -1.6419
   54CHL1    C5 6410   6.259   5.887  10.080 -0.3511  0.7501  0.2023
   54CHL1    C6 6411   6.316   5.995  10.028 -0.3291 -0.4156 -0.3349
   54CHL1    H6 6412   6.335   6.080  10.096 -1.2863 -0.4595 -0.0038
   54CHL1    C7 6413   6.324   6.018   9.879 -0.5099  0.1328  0.2849
   54CHL1   H7A 6414   6.287   6.121   9.859  0.4006  0.9810  2.5843
   54CHL1   H7B 6415   6.428   6.021   9.839 -0.8977  0.9745 -0.7279
   54CHL1    C8 6416   6.243   5.916   9.793  0.2270 -0.2396 -0.0056
   54CHL1    H8 6417   6.136   5.941   9.809 -0.4303 -3.4396  1.5647
   54CHL1   C14 6418   6.288   5.918   9.645  0.3105  0.3930 -0.5042
   54CHL1   H14 6419   6.396   5.896   9.657  0.5139  0.4825 -1.9765
   54CHL1   C15 6420   6.285   6.052   9.561  0.3616  0.5365  0.3897
   54CHL1  H15A 6421   6.196   6.116   9.580 -0.2866 -0.3401  0.3537
   54CHL1  H15B 6422   6.376   6.114   9.579  2.2075 -2.5023  2.4447
   54CHL1   C16 6423   6.276   5.994   9.413  0.5788  0.1114 -0.4072
   54CHL1  H16A 6424   6.176   6.026   9.378  1.1533  0.6106 -1.6446
   54CHL1  H16B 6425   6.363   6.030   9.354  1.3998  2.1617  1.8479
   54CHL1   C17 6426   6.278   5.838   9.414  0.2233 -0.4757 -0.3703
   54CHL1   H17 6427   6.382   5.801   9.409  1.3966  2.6322 -1.1799
   54CHL1   C13 6428   6.222   5.803   9.556  0.0011 -0.5217  0.1043
   54CHL1   C18 6429   6.075   5.833   9.559  0.2297 -0.6115  0.2639
   54CHL1  H18A 6430   6.042   5.935   9.530  0.8384 -1.0031 -2.0020
   54CHL1  H18B 6431   6.013   5.778   9.485  0.4084 -0.0677 -0.3118
   54CHL1  H18C 6432   6.017   5.802   9.648  0.9718 -2.4395  0.1490
   54CHL1   C12 6433   6.265   5.671   9.615  0.3536  0.0516  0.2754
   54CHL1  H12A 6434   6.214   5.587   9.564 -0.5015  0.7524 -0.0319
   54CHL1  H12B 6435   6.369   5.649   9.583 -0.7668 -2.0381 -2.2941
   54CHL1   C11 6436   6.231   5.654   9.759 -0.2986 -1.0760  0.4698
   54CHL1  H11A 6437   6.122   5.630   9.762 -0.6572  0.2069 -1.0966
   54CHL1  H11B 6438   6.293   5.564   9.776 -2.1245 -3.5726 -4.2156
   54CHL1    C9 6439   6.266   5.773   9.854 -0.6281 -0.0088 -0.6195
   54CHL1    H9 6440   6.377   5.765   9.865 -0.7857  0.1793  1.5368
   54CHL1   C10 6441   6.222   5.756   9.997 -0.2322  0.7300 -0.1394
   54CHL1   C19 6442   6.071   5.730  10.011  0.3843 -0.5036  0.2423
   54CHL1  H19A 6443   6.036   5.633   9.970 -0.2276  0.3628 -1.3927
   54CHL1  H19B 6444   6.039   5.734  10.118 -0.2474 -2.6992  0.1945
   54CHL1  H19C 6445   6.008   5.804   9.958 -0.0695  0.4756  2.0431
   54CHL1    C1 6446   6.285   5.630  10.056  0.4299 -0.6918 -0.0470
   54CHL1   H1A 6447   6.229   5.544  10.013 -1.2708  1.0541 -1.4889
   54CHL1   H1B 6448   6.390   5.638  10.021 -0.3870  0.6492 -2.3864
   54CHL1    C2 6449   6.272   5.614  10.209 -0.3002  0.2588 -0.2742
   54CHL1   H2A 6450   6.335   5.528  10.240 -0.7206  0.6470  1.7633
   54CHL1   H2B 6451   6.164   5.597  10.230 -0.5092 -0.2365 -1.6298
   54CHL1   C20 6452   6.208   5.774   9.294 -0.1034 -0.1839 -0.5916
   54CHL1   H20 6453   6.110   5.826   9.281 -0.1522 -0.2989 -0.6805
   54CHL1   C21 6454   6.179   5.619   9.301 -0.4590 -0.2305  0.4202
   54CHL1  H21A 6455   6.093   5.597   9.369  0.0965 -1.7732  0.6790
   54CHL1  H21B 6456   6.268   5.559   9.327 -0.2055 -0.5744 -1.1394
   54CHL1  H21C 6457   6.150   5.576   9.203  0.0379 -0.5674  0.4181
   54CHL1   C22 6458   6.286   5.785   9.156 -0.2119 -0.0578 -0.1535
   54CHL1  H22A 6459   6.395   5.771   9.172 -0.3751 -2.8680 -0.8824
   54CHL1  H22B 6460   6.238   5.712   9.087 -2.1740  1.0972 -0.1022
   54CHL1   C23 6461   6.253   5.915   9.098  0.0468 -0.5216  0.4498
   54CHL1  H23A 6462   6.142   5.926   9.097 -0.0171 -0.7869  2.0685
   54CHL1  H23B 6463   6.283   6.006   9.155 -0.1365 -0.1027 -0.1072
   54CHL1   C24 6464   6.311   5.955   8.961  0.9034 -0.5205 -0.3048
   54CHL1  H24A 6465   6.419   5.965   8.982  0.3946  0.5031  2.2850
   54CHL1  H24B 6466   6.277   5.878   8.888  1.6940  1.3938 -2.8177
   54CHL1   C25 6467   6.253   6.088   8.908  0.2836 -0.6918  0.2678
   54CHL1   H25 6468   6.142   6.084   8.910  0.2219 -0.4105 -1.0691
   54CHL1   C26 6469   6.303   6.214   8.973 -0.1337  0.3262 -1.4068
   54CHL1  H26A 6470   6.413   6.216   8.992 -0.3259 -0.8341  0.0405
   54CHL1  H26B 6471   6.271   6.301   8.912  0.0149  1.9577  0.7052
   54CHL1  H26C 6472   6.256   6.218   9.074  3.9227 -1.7979  0.8475
   54CHL1   C27 6473   6.285   6.095   8.760 -0.3643  0.4958  0.2665
   54CHL1  H27A 6474   6.209   6.136   8.691  0.3793 -0.6879 -1.3293
   54CHL1  H27B 6475   6.385   6.142   8.747 -0.0912 -0.1340  0.0353
   54CHL1  H27C 6476   6.310   5.994   8.720 -2.1755  0.8362 -1.9653
   55CHL1    C3 6477   1.096   3.406  10.370  0.0050 -0.1748  0.0924
   55CHL1    H3 6478   1.195   3.423  10.322  0.1830 -0.6575  0.2821
   55CHL1    O3 6479   1.108   3.438  10.505 -0.4535  0.4035  0.2639
   55CHL1   H3' 6480   1.021   3.413  10.538 -0.2343 -1.4595 -0.4275
   55CHL1    C4 6481   1.000   3.513  10.307  0.3339 -0.0168 -0.4144
   55CHL1   H4A 6482   0.903   3.512  10.361 -1.3221  0.5504 -3.2240
   55CHL1   H4B 6483   1.043   3.614  10.325  2.8433 -1.4241  2.2610
   55CHL1    C5 6484   0.970   3.482  10.164 -0.4002 -0.4367  0.3256
   55CHL1    C6 6485   0.997   3.578  10.070  0.0746  0.2236 -0.3179
   55CHL1    H6 6486   1.037   3.671  10.113  0.8667 -0.8209  1.3284
   55CHL1    C7 6487   0.961   3.575   9.929 -0.7279 -0.1457  0.3867
   55CHL1   H7A 6488   0.910   3.670   9.899  0.3665  1.1697  2.4884
   55CHL1   H7B 6489   1.054   3.567   9.868 -1.5614  0.0041 -0.9530
   55CHL1    C8 6490   0.876   3.448   9.894  1.0429  0.2590  0.6480
   55CHL1    H8 6491   0.771   3.481   9.912  1.8445  2.9854  0.8483
   55CHL1   C14 6492   0.906   3.415   9.755 -0.0498  0.7423  0.9294
   55CHL1   H14 6493   1.009   3.374   9.759 -0.0981 -0.0035 -2.5312
   55CHL1   C15 6494   0.914   3.521   9.644  0.9867  0.1199 -0.5496
   55CHL1  H15A 6495   0.832   3.587   9.678  1.6888  1.5771 -1.6026
   55CHL1  H15B 6496   1.007   3.581   9.651  1.6402 -0.8732 -0.5540
   55CHL1   C16 6497   0.874   3.456   9.515 -0.2651  0.2989 -0.6307
   55CHL1  H16A 6498   0.779   3.500   9.479  0.6934  1.0169 -2.4212
   55CHL1  H16B 6499   0.949   3.475   9.435 -0.4110  0.1305 -0.8059
   55CHL1   C17 6500   0.870   3.306   9.560  0.5776  0.2845  0.2905
   55CHL1   H17 6501   0.978   3.284   9.552  0.3397 -0.6755 -0.6466
   55CHL1   C13 6502   0.821   3.302   9.704 -0.5597 -0.5862  0.3829
   55CHL1   C18 6503   0.668   3.340   9.711 -0.6770  0.3786 -0.8531
   55CHL1  H18A 6504   0.613   3.250   9.675 -1.4995  0.7057 -0.4504
   55CHL1  H18B 6505   0.639   3.342   9.819 -0.6738  0.0215 -0.8455
   55CHL1  H18C 6506   0.651   3.430   9.649  0.1956 -0.7373 -2.7891
   55CHL1   C12 6507   0.844   3.173   9.777  0.7845  0.0888 -0.9989
   55CHL1  H12A 6508   0.781   3.090   9.738  0.1808 -0.3623  0.8201
   55CHL1  H12B 6509   0.943   3.134   9.748  1.3653 -0.8662  1.9089
   55CHL1   C11 6510   0.832   3.197   9.930  0.1626  0.5162 -0.2731
   55CHL1  H11A 6511   0.723   3.209   9.950  0.2500 -1.0989  1.3581
   55CHL1  H11B 6512   0.861   3.110   9.991 -1.7809 -0.5363 -0.7497
   55CHL1    C9 6513   0.911   3.322   9.979  0.3089 -0.0835 -0.0901
   55CHL1    H9 6514   1.018   3.302   9.954  0.8153  0.0761  1.7732
   55CHL1   C10 6515   0.916   3.344  10.133  0.3491 -0.1871 -0.0172
   55CHL1   C19 6516   0.775   3.318  10.191 -0.2474  0.1224 -0.8675
   55CHL1  H19A 6517   0.735   3.216  10.171 -1.0550  0.0977  0.7116
   55CHL1  H19B 6518   0.763   3.337  10.300 -2.1426  0.2387 -1.0709
   55CHL1  H19C 6519   0.703   3.377  10.130  0.1636  0.9758 -0.5438
   55CHL1    C1 6520   1.022   3.254  10.197 -0.7302  0.3628 -0.5475
   55CHL1   H1A 6521   0.974   3.155  10.180  0.4465 -0.4631  0.6419
   55CHL1   H1B 6522   1.113   3.270  10.135 -1.0905  1.0126 -0.9093
   55CHL1    C2 6523   1.048   3.264  10.352 -0.2429 -0.2172 -0.0278
   55CHL1   H2A 6524   1.131   3.200  10.390 -1.7247 -2.8219 -0.9116
   55CHL1   H2B 6525   0.959   3.237  10.413  0.5660 -1.3494  0.6972
   55CHL1   C20 6526   0.800   3.207   9.468  0.1304 -0.5493  0.0771
   55CHL1   H20 6527   0.751   3.124   9.524 -0.7214  0.3525  0.6924
   55CHL1   C21 6528   0.904   3.159   9.368 -1.0800  0.3767  0.3527
   55CHL1  H21A 6529   0.991   3.109   9.416 -1.4172 -1.6194 -1.0415
   55CHL1  H21B 6530   0.950   3.245   9.314 -0.2550 -0.8977 -1.0355
   55CHL1  H21C 6531   0.869   3.088   9.291  1.5232 -0.7865  0.1286
   55CHL1   C22 6532   0.680   3.267   9.387 -0.7534  0.7561  0.4871
   55CHL1  H22A 6533   0.619   3.345   9.439  1.3176  3.3415 -0.7152
   55CHL1  H22B 6534   0.736   3.314   9.303 -1.6451  2.0118  0.5641
   55CHL1   C23 6535   0.600   3.151   9.327  0.3135 -0.2049  0.4512
   55CHL1  H23A 6536   0.659   3.069   9.281  0.0621 -0.3357  0.3610
   55CHL1  H23B 6537   0.541   3.113   9.413 -0.4394  1.6028  0.7911
   55CHL1   C24 6538   0.497   3.202   9.222  0.5931 -0.2389  0.2781
   55CHL1  H24A 6539   0.424   3.269   9.274  3.1084  3.2012 -0.2971
   55CHL1  H24B 6540   0.540   3.259   9.137 -3.1217  0.5698 -1.2539
   55CHL1   C25 6541   0.418   3.094   9.158 -0.2893  0.6005  0.2620
   55CHL1   H25 6542   0.391   3.024   9.241  2.4041  1.0902  1.6607
   55CHL1   C26 6543   0.281   3.142   9.094 -0.5085  0.7150  0.7492
   55CHL1  H26A 6544   0.213   3.055   9.080 -0.1193 -0.2619  3.9106
   55CHL1  H26B 6545   0.239   3.213   9.168 -0.2635  0.8725  0.7364
   55CHL1  H26C 6546   0.294   3.199   9.000  0.8565 -0.1409  0.3913
   55CHL1   C27 6547   0.497   3.019   9.049  0.2948  0.4622  0.0898
   55CHL1  H27A 6548   0.595   2.976   9.077  0.8020  0.0887 -2.0623
   55CHL1  H27B 6549   0.445   2.940   8.990  1.7433  1.0618 -2.1408
   55CHL1  H27C 6550   0.522   3.094   8.970 -4.3344  1.4521 -0.7494
   56CHL1    C3 6551   3.334   3.313  10.029  0.8691 -0.1854  0.4737
   56CHL1    H3 6552   3.301   3.419  10.025  0.1962 -0.2557  2.9935
   56CHL1    O3 6553   3.348   3.285  10.169  0.3803 -0.0328 -0.1009
   56CHL1   H3' 6554   3.388   3.198  10.175  2.6672  1.0564  2.5969
   56CHL1    C4 6555   3.222   3.228   9.961 -0.0890  0.0315  0.3942
   56CHL1   H4A 6556   3.250   3.123   9.988  1.8637  0.8195  1.6751
   56CHL1   H4B 6557   3.131   3.255  10.018  0.6237  0.0665  1.5587
   56CHL1    C5 6558   3.219   3.261   9.816 -0.0548 -0.2648 -0.3787
   56CHL1    C6 6559   3.110   3.299   9.751 -0.5539  0.1210 -0.5276
   56CHL1    H6 6560   3.013   3.299   9.803  0.1572  0.9718  0.8579
   56CHL1    C7 6561   3.085   3.330   9.608  0.0902 -0.0146 -0.3405
   56CHL1   H7A 6562   2.991   3.283   9.572  0.5678 -0.2768 -1.2869
   56CHL1   H7B 6563   3.073   3.438   9.585 -1.5309  0.5211  2.6366
   56CHL1    C8 6564   3.202   3.277   9.527 -0.0376  0.1974  0.7202
   56CHL1    H8 6565   3.197   3.167   9.515  0.2143  0.1489  1.0422
   56CHL1   C14 6566   3.200   3.347   9.386  0.0558  0.2462  0.1931
   56CHL1   H14 6567   3.234   3.449   9.412 -5.1385  2.7679 -1.5782
   56CHL1   C15 6568   3.069   3.374   9.309 -0.0255 -0.0923  0.3433
   56CHL1  H15A 6569   3.013   3.278   9.317  0.5943 -0.5629 -0.7927
   56CHL1  H15B 6570   2.996   3.451   9.344 -0.4377  0.5172 -1.7222
   56CHL1   C16 6571   3.115   3.395   9.166 -0.1914  0.0429 -0.2286
   56CHL1  H16A 6572   3.067   3.322   9.097 -0.5013 -0.4104  0.4655
   56CHL1  H16B 6573   3.079   3.497   9.137  2.3857  0.5825 -1.8085
   56CHL1   C17 6574   3.271   3.396   9.167  0.0984  0.0004  0.3607
   56CHL1   H17 6575   3.293   3.500   9.197  0.9700 -0.4029  1.1507
   56CHL1   C13 6576   3.302   3.302   9.284  0.3545 -0.1013  0.2611
   56CHL1   C18 6577   3.271   3.157   9.242 -0.2276  0.2572  0.1373
   56CHL1  H18A 6578   3.318   3.131   9.145 -0.2737 -0.7721  0.3753
   56CHL1  H18B 6579   3.290   3.081   9.321 -1.7592  1.2197  1.4951
   56CHL1  H18C 6580   3.164   3.158   9.213  0.2318  0.2889 -1.6732
   56CHL1   C12 6581   3.442   3.330   9.353  0.8053 -0.8692  0.3320
   56CHL1  H12A 6582   3.516   3.299   9.277 -0.5469  1.2246 -1.9724
   56CHL1  H12B 6583   3.466   3.439   9.364  0.9782 -0.8584 -0.1287
   56CHL1   C11 6584   3.457   3.260   9.486  0.9488  0.2034  0.3189
   56CHL1  H11A 6585   3.452   3.149   9.474  1.4903  0.3469 -1.6445
   56CHL1  H11B 6586   3.555   3.271   9.536  0.2573  1.6200  1.4348
   56CHL1    C9 6587   3.338   3.299   9.591 -0.4116  0.1383  0.0613
   56CHL1    H9 6588   3.341   3.410   9.594 -0.3852  0.1275  0.6525
   56CHL1   C10 6589   3.350   3.248   9.739 -0.6642  0.2008  0.0527
   56CHL1   C19 6590   3.391   3.110   9.725 -0.3450  0.1285 -0.2542
   56CHL1  H19A 6591   3.389   3.061   9.825 -0.8583  0.6114 -0.0221
   56CHL1  H19B 6592   3.316   3.051   9.668 -0.0739 -1.1365  0.6344
   56CHL1  H19C 6593   3.482   3.092   9.664  0.6040  1.8779  0.5556
   56CHL1    C1 6594   3.468   3.328   9.811  0.6557 -0.4317 -0.4586
   56CHL1   H1A 6595   3.567   3.306   9.767  1.3928 -1.6979  1.6883
   56CHL1   H1B 6596   3.448   3.437   9.800  1.7242 -0.2062 -0.2115
   56CHL1    C2 6597   3.464   3.288   9.964  0.2136 -0.0101  0.3987
   56CHL1   H2A 6598   3.539   3.353  10.014 -1.4599  1.4269  1.1148
   56CHL1   H2B 6599   3.482   3.178   9.970 -0.1077 -0.2131 -1.6116
   56CHL1   C20 6600   3.340   3.378   9.035 -0.1477 -0.5978  0.6823
   56CHL1   H20 6601   3.405   3.288   9.029 -0.4820 -0.7786 -0.4944
   56CHL1   C21 6602   3.449   3.487   9.016  0.7696  0.2635 -0.1077
   56CHL1  H21A 6603   3.531   3.469   9.089  0.2016  2.0622  1.0511
   56CHL1  H21B 6604   3.404   3.588   9.029 -2.8916 -1.0471 -1.2851
   56CHL1  H21C 6605   3.496   3.494   8.915  1.3746 -0.5641  0.1107
   56CHL1   C22 6606   3.248   3.373   8.912 -0.6667 -0.3632 -0.4763
   56CHL1  H22A 6607   3.199   3.274   8.924 -2.3276  0.3882 -0.7750
   56CHL1  H22B 6608   3.172   3.454   8.917  0.6528  1.0414 -1.9040
   56CHL1   C23 6609   3.310   3.357   8.769 -0.6284 -0.6345 -0.3643
   56CHL1  H23A 6610   3.351   3.457   8.741  0.8740 -1.3534 -0.8305
   56CHL1  H23B 6611   3.394   3.287   8.750 -0.6066 -0.4289 -1.0852
   56CHL1   C24 6612   3.208   3.318   8.660 -0.3978 -0.0447  0.0041
   56CHL1  H24A 6613   3.183   3.210   8.661  1.0061 -0.4189 -1.1934
   56CHL1  H24B 6614   3.121   3.377   8.697  0.2758  0.4065  0.9166
   56CHL1   C25 6615   3.248   3.360   8.518  0.5806  0.4810 -0.2756
   56CHL1   H25 6616   3.252   3.471   8.508 -0.0793  0.4782 -0.6257
   56CHL1   C26 6617   3.380   3.294   8.469  0.4410  0.5901 -0.4940
   56CHL1  H26A 6618   3.469   3.339   8.518 -0.2480  0.4556  0.9405
   56CHL1  H26B 6619   3.377   3.183   8.467 -1.6342  0.4964  2.2054
   56CHL1  H26C 6620   3.388   3.321   8.362 -0.6676 -1.3152 -1.1241
   56CHL1   C27 6621   3.138   3.309   8.435 -0.3301  0.6622  0.1894
   56CHL1  H27A 6622   3.047   3.352   8.483 -0.1579  0.9720  0.2366
   56CHL1  H27B 6623   3.144   3.338   8.329  0.7565 -0.4622 -0.0838
   56CHL1  H27C 6624   3.127   3.199   8.426 -0.3177  0.6768  0.0036
   57CHL1    C3 6625   3.105   5.842  10.386  0.4866  0.2504  0.3189
   57CHL1    H3 6626   3.143   5.938  10.345 -0.8047  0.8919  0.5690
   57CHL1    O3 6627   3.021   5.865  10.499 -0.0192  0.3726  0.3820
   57CHL1   H3' 6628   3.077   5.904  10.567  0.6329 -0.0561  0.0995
   57CHL1    C4 6629   3.016   5.768  10.285 -0.5840 -0.6388  0.3073
   57CHL1   H4A 6630   2.989   5.678  10.344  1.5501 -0.8012  1.1290
   57CHL1   H4B 6631   2.934   5.837  10.256 -0.8012 -1.6939 -1.6889
   57CHL1    C5 6632   3.093   5.722  10.158  0.2224 -0.4399  0.2554
   57CHL1    C6 6633   3.059   5.762  10.029 -0.9039 -0.8069 -0.3768
   57CHL1    H6 6634   2.977   5.834  10.015 -0.8496  0.0177  2.7815
   57CHL1    C7 6635   3.117   5.698   9.901 -0.0252 -1.0990  0.2159
   57CHL1   H7A 6636   3.032   5.650   9.848  2.0468 -2.2057 -2.3139
   57CHL1   H7B 6637   3.155   5.781   9.837  0.2552 -0.9345  0.5923
   57CHL1    C8 6638   3.226   5.598   9.932 -0.3093  0.5277 -0.7722
   57CHL1    H8 6639   3.172   5.502   9.923  0.8357 -0.2625  0.4458
   57CHL1   C14 6640   3.329   5.587   9.823 -0.2534 -0.6735  0.6139
   57CHL1   H14 6641   3.380   5.686   9.821 -0.1226 -0.7421  0.5602
   57CHL1   C15 6642   3.280   5.570   9.684  0.7240 -0.1188  0.3556
   57CHL1  H15A 6643   3.194   5.500   9.678  1.2391 -0.7847  0.5945
   57CHL1  H15B 6644   3.246   5.666   9.638 -1.4051 -1.4212 -0.9688
   57CHL1   C16 6645   3.400   5.529   9.602 -0.1975  0.5161  0.5102
   57CHL1  H16A 6646   3.373   5.429   9.560 -1.0801 -0.3578  2.9645
   57CHL1  H16B 6647   3.432   5.589   9.514  1.3595 -1.4177 -0.3080
   57CHL1   C17 6648   3.513   5.506   9.706 -0.4271  0.3727  0.0238
   57CHL1   H17 6649   3.552   5.609   9.716 -2.2597  1.2599 -1.3314
   57CHL1   C13 6650   3.437   5.479   9.833 -0.2430 -0.2606  0.0182
   57CHL1   C18 6651   3.370   5.340   9.830 -0.8407  0.0974  0.1150
   57CHL1  H18A 6652   3.316   5.318   9.735  0.4679  0.2549 -0.7035
   57CHL1  H18B 6653   3.457   5.272   9.841  0.2706  1.1524 -1.5507
   57CHL1  H18C 6654   3.308   5.322   9.920  0.0530  2.7590  1.3829
   57CHL1   C12 6655   3.514   5.498   9.962  0.2057  0.1300 -0.2760
   57CHL1  H12A 6656   3.593   5.421   9.976  1.7402  1.5402 -0.7908
   57CHL1  H12B 6657   3.563   5.597   9.976 -3.7950  2.1440  1.0924
   57CHL1   C11 6658   3.411   5.499  10.079 -0.5537 -0.0065 -0.0585
   57CHL1  H11A 6659   3.363   5.400  10.093 -2.3776  0.9825  0.9591
   57CHL1  H11B 6660   3.478   5.520  10.164 -0.4379  1.0333 -0.3923
   57CHL1    C9 6661   3.302   5.610  10.064 -0.0594  0.1139 -0.7092
   57CHL1    H9 6662   3.351   5.709  10.048  0.7967  0.1768  1.7279
   57CHL1   C10 6663   3.212   5.632  10.191  0.6503  0.2926 -0.5619
   57CHL1   C19 6664   3.148   5.500  10.254 -0.8920 -0.5878  0.4522
   57CHL1  H19A 6665   3.094   5.445  10.174  0.6366  1.1897 -1.9270
   57CHL1  H19B 6666   3.246   5.450  10.274  0.3557  1.6939  0.3425
   57CHL1  H19C 6667   3.090   5.502  10.349 -0.5812 -3.7495  0.8207
   57CHL1    C1 6668   3.300   5.698  10.294  0.4828 -0.1550  0.0089
   57CHL1   H1A 6669   3.372   5.622  10.332  1.9453  1.6932  1.1038
   57CHL1   H1B 6670   3.357   5.785  10.257 -0.0307 -0.3659 -1.3356
   57CHL1    C2 6671   3.224   5.748  10.421  0.5016 -0.6782 -0.0846
   57CHL1   H2A 6672   3.294   5.803  10.487  0.3920  0.4543 -0.8705
   57CHL1   H2B 6673   3.181   5.659  10.470  1.4142 -0.6082  0.8922
   57CHL1   C20 6674   3.615   5.403   9.655 -0.5094 -0.7149  0.1446
   57CHL1   H20 6675   3.594   5.300   9.691 -0.6549 -0.2296  1.5052
   57CHL1   C21 6676   3.749   5.443   9.719  0.2739 -0.3852 -0.7607
   57CHL1  H21A 6677   3.759   5.428   9.828  0.1112 -0.6026 -0.7760
   57CHL1  H21B 6678   3.775   5.546   9.686  1.9207 -0.5690 -0.1199
   57CHL1  H21C 6679   3.835   5.395   9.667  1.5280 -0.4363  1.2353
   57CHL1   C22 6680   3.624   5.387   9.497 -0.5338  0.1659  0.0347
   57CHL1  H22A 6681   3.527   5.349   9.460 -0.5531 -2.3822  2.3762
   57CHL1  H22B 6682   3.642   5.486   9.450  1.1528 -0.8786 -1.6453
   57CHL1   C23 6683   3.731   5.288   9.454  0.7502  0.0599  0.5211
   57CHL1  H23A 6684   3.837   5.318   9.462  0.1241  2.2648  1.0295
   57CHL1  H23B 6685   3.714   5.198   9.517 -2.0303  1.7786  2.4642
   57CHL1   C24 6686   3.708   5.250   9.306 -0.5349 -0.7768  0.3057
   57CHL1  H24A 6687   3.675   5.344   9.256  1.6300  0.0447  0.3232
   57CHL1  H24B 6688   3.805   5.239   9.252 -0.4963  2.7094 -0.5675
   57CHL1   C25 6689   3.608   5.138   9.278  0.0273  0.1962  0.5256
   57CHL1   H25 6690   3.532   5.135   9.359  1.5894 -1.4214  2.0432
   57CHL1   C26 6691   3.525   5.156   9.152 -0.0368  0.2554  0.1296
   57CHL1  H26A 6692   3.461   5.246   9.166 -1.1616 -0.4186 -0.5591
   57CHL1  H26B 6693   3.585   5.156   9.059 -0.2106  0.6686  0.0153
   57CHL1  H26C 6694   3.459   5.070   9.130  0.1754  0.6560 -2.2992
   57CHL1   C27 6695   3.662   5.003   9.286  0.2947  0.3935 -0.3398
   57CHL1  H27A 6696   3.698   4.977   9.387  0.7812  1.4145 -0.2357
   57CHL1  H27B 6697   3.587   4.924   9.268 -0.4571  0.9655  0.2095
   57CHL1  H27C 6698   3.740   4.990   9.207  1.0317 -0.8302  0.5674
   58CHL1    C3 6699   3.286   3.896  10.042  0.3872  0.2928 -0.2094
   58CHL1    H3 6700   3.191   3.840  10.050  2.1974 -3.2309 -1.4194
   58CHL1    O3 6701   3.337   3.889  10.173  0.5394  0.0864  0.3575
   58CHL1   H3' 6702   3.414   3.833  10.163  2.8946  3.3321 -1.5383
   58CHL1    C4 6703   3.384   3.826   9.948  0.1916  0.3786  0.7507
   58CHL1   H4A 6704   3.481   3.879   9.944 -0.9815  2.5925 -1.5454
   58CHL1   H4B 6705   3.417   3.726   9.982  0.1658 -0.2439 -0.9564
   58CHL1    C5 6706   3.331   3.828   9.807  0.2051 -0.6515 -0.3473
   58CHL1    C6 6707   3.301   3.710   9.743 -0.1579  0.4371 -0.0900
   58CHL1    H6 6708   3.302   3.620   9.805 -4.8849  0.3292  0.2256
   58CHL1    C7 6709   3.239   3.698   9.608  0.7694  0.3274  0.6631
   58CHL1   H7A 6710   3.279   3.614   9.547  0.4765  1.0234 -0.5079
   58CHL1   H7B 6711   3.131   3.681   9.626  0.5607 -0.8208 -1.4108
   58CHL1    C8 6712   3.255   3.836   9.530 -0.4560  0.1862  0.5228
   58CHL1    H8 6713   3.364   3.843   9.507 -0.7071  0.4709 -0.6484
   58CHL1   C14 6714   3.168   3.845   9.404 -0.0437  0.3104 -0.3118
   58CHL1   H14 6715   3.059   3.852   9.425  0.1544  3.1155  0.2390
   58CHL1   C15 6716   3.181   3.721   9.305  0.0048 -0.8216 -0.7628
   58CHL1  H15A 6717   3.290   3.698   9.304  0.0015 -0.8233 -1.1569
   58CHL1  H15B 6718   3.117   3.635   9.334 -0.1181 -0.7071 -0.6937
   58CHL1   C16 6719   3.133   3.773   9.174 -0.6233 -0.5848  0.0034
   58CHL1  H16A 6720   3.211   3.754   9.097 -0.7574  0.5905 -0.4472
   58CHL1  H16B 6721   3.033   3.733   9.144  0.0738 -0.2892 -2.9976
   58CHL1   C17 6722   3.118   3.932   9.190  0.1613 -0.0029 -0.0801
   58CHL1   H17 6723   3.013   3.950   9.222  0.4792  0.7877  0.5726
   58CHL1   C13 6724   3.193   3.973   9.321 -0.0869 -0.7541  0.9766
   58CHL1   C18 6725   3.343   3.981   9.281 -0.1309 -0.1854  0.0058
   58CHL1  H18A 6726   3.404   3.999   9.372  0.7059  0.5782 -0.6871
   58CHL1  H18B 6727   3.382   3.881   9.250  1.6211  0.0409  1.3453
   58CHL1  H18C 6728   3.353   4.057   9.201  0.5688  0.3937  0.6335
   58CHL1   C12 6729   3.153   4.097   9.404  1.1445  0.9523  0.6340
   58CHL1  H12A 6730   3.186   4.189   9.350  1.0372  0.2869 -0.6160
   58CHL1  H12B 6731   3.043   4.109   9.413  0.9598 -0.0725 -0.0685
   58CHL1   C11 6732   3.226   4.102   9.536  0.2897  0.5892  0.0041
   58CHL1  H11A 6733   3.329   4.131   9.505 -0.0559  2.2109  0.2944
   58CHL1  H11B 6734   3.186   4.183   9.601  0.9224  1.5497 -0.7799
   58CHL1    C9 6735   3.221   3.964   9.613  0.1279 -0.1508  0.4349
   58CHL1    H9 6736   3.113   3.958   9.641 -0.4811  3.2450 -0.7315
   58CHL1   C10 6737   3.311   3.973   9.752  0.5612 -0.3407 -0.2466
   58CHL1   C19 6738   3.448   4.039   9.723 -0.4260 -0.3353  0.7074
   58CHL1  H19A 6739   3.432   4.140   9.679 -1.5859 -0.8074 -0.0042
   58CHL1  H19B 6740   3.521   4.045   9.807  1.3369  0.3993 -0.8001
   58CHL1  H19C 6741   3.498   3.975   9.648  2.5343  0.6964  1.6616
   58CHL1    C1 6742   3.228   4.055   9.858 -0.4566  0.3201 -0.3355
   58CHL1   H1A 6743   3.222   4.158   9.817 -0.3565 -0.5371 -2.5963
   58CHL1   H1B 6744   3.124   4.015   9.856  0.2810 -1.7754  0.3362
   58CHL1    C2 6745   3.271   4.038  10.003  0.4031 -0.1690  0.3639
   58CHL1   H2A 6746   3.202   4.084  10.076 -1.7511 -0.6676 -1.2520
   58CHL1   H2B 6747   3.365   4.096  10.001  0.6643 -0.5892 -2.0232
   58CHL1   C20 6748   3.136   3.999   9.059  0.0861 -0.3235  0.3393
   58CHL1   H20 6749   3.237   3.986   9.015 -0.4859  2.6239 -2.2784
   58CHL1   C21 6750   3.108   4.149   9.067 -0.6265 -0.0480 -0.1562
   58CHL1  H21A 6751   3.184   4.201   9.129 -0.3786  1.9922 -2.0559
   58CHL1  H21B 6752   3.011   4.174   9.114 -0.9765 -0.5404 -0.5997
   58CHL1  H21C 6753   3.115   4.198   8.968  0.6363  1.0165  0.4316
   58CHL1   C22 6754   3.043   3.941   8.953  0.3842  0.0593 -0.1482
   58CHL1  H22A 6755   3.061   3.978   8.850  0.4321 -0.2994 -0.2698
   58CHL1  H22B 6756   3.060   3.832   8.943  1.8898  0.0706  1.7148
   58CHL1   C23 6757   2.891   3.966   8.971  0.7561 -0.4798  0.2147
   58CHL1  H23A 6758   2.867   3.957   9.079 -0.9165 -0.1340 -0.0969
   58CHL1  H23B 6759   2.873   4.070   8.937 -0.4598 -0.7191  0.0769
   58CHL1   C24 6760   2.809   3.873   8.886 -0.8966  0.2021  0.1321
   58CHL1  H24A 6761   2.863   3.868   8.789  0.4170  0.2870  0.8256
   58CHL1  H24B 6762   2.816   3.775   8.938  1.8292  1.8443  3.2401
   58CHL1   C25 6763   2.659   3.887   8.871 -0.4080  1.0104 -0.5926
   58CHL1   H25 6764   2.632   3.893   8.979 -0.8638  0.3877 -0.6659
   58CHL1   C26 6765   2.622   4.015   8.796  0.9195  0.3896 -0.1339
   58CHL1  H26A 6766   2.657   4.105   8.851  1.4977  0.2859 -0.3224
   58CHL1  H26B 6767   2.674   4.025   8.698  1.2406  2.5172  0.2116
   58CHL1  H26C 6768   2.512   4.004   8.785  0.5453 -1.0453  3.5543
   58CHL1   C27 6769   2.602   3.766   8.799  0.2705 -0.5602  0.1801
   58CHL1  H27A 6770   2.492   3.776   8.806  0.5193  2.4523  0.9400
   58CHL1  H27B 6771   2.630   3.741   8.695 -0.4064 -1.3428  0.1774
   58CHL1  H27C 6772   2.631   3.677   8.861 -1.0649 -2.9896 -2.4501
   59CHL1    C3 6773   2.738   3.130  10.245  0.4383  0.3903 -0.8204
   59CHL1    H3 6774   2.765   3.236  10.225  0.8371  0.2417 -1.0914
   59CHL1    O3 6775   2.745   3.108  10.382 -0.4022 -0.8516  0.3019
   59CHL1   H3' 6776   2.840   3.107  10.399 -0.8101  0.3730  3.1131
   59CHL1    C4 6777   2.594   3.102  10.195 -0.3435  0.2817  0.6935
   59CHL1   H4A 6778   2.575   2.996  10.221  1.7061 -0.2379  0.2805
   59CHL1   H4B 6779   2.529   3.167  10.257 -2.2237  2.2206 -2.9378
   59CHL1    C5 6780   2.573   3.121  10.039  1.3507 -0.5301  0.2300
   59CHL1    C6 6781   2.493   3.218   9.981 -0.9749  0.0979 -0.0836
   59CHL1    H6 6782   2.421   3.267  10.047 -0.5473 -0.4179  0.7848
   59CHL1    C7 6783   2.471   3.241   9.825 -0.4119 -0.1392 -0.6385
   59CHL1   H7A 6784   2.363   3.253   9.800 -0.8809  0.2922  1.4035
   59CHL1   H7B 6785   2.509   3.343   9.806 -0.4867 -0.1351 -0.7667
   59CHL1    C8 6786   2.539   3.138   9.741 -0.9324  1.0655  0.1981
   59CHL1    H8 6787   2.481   3.043   9.731  1.5735 -0.6760  1.0299
   59CHL1   C14 6788   2.553   3.191   9.594 -1.0998  0.3209  0.1074
   59CHL1   H14 6789   2.630   3.272   9.595  2.0863 -2.4734 -0.2890
   59CHL1   C15 6790   2.438   3.244   9.516 -0.1070  0.9288 -0.4654
   59CHL1  H15A 6791   2.357   3.167   9.518 -0.3514  1.1959  0.5727
   59CHL1  H15B 6792   2.388   3.331   9.564  0.4760  1.1650 -0.2836
   59CHL1   C16 6793   2.494   3.261   9.378  0.4830 -0.6129  0.2860
   59CHL1  H16A 6794   2.422   3.221   9.303 -0.0304 -0.1885  0.5494
   59CHL1  H16B 6795   2.518   3.367   9.355 -2.0663  0.1980  1.0455
   59CHL1   C17 6796   2.627   3.180   9.364  0.0833 -0.1902 -0.5168
   59CHL1   H17 6797   2.706   3.256   9.380  0.0129 -0.3783  0.8917
   59CHL1   C13 6798   2.625   3.089   9.494  0.3185 -0.4383  0.2362
   59CHL1   C18 6799   2.540   2.965   9.466  1.2123  0.5452 -0.5783
   59CHL1  H18A 6800   2.461   2.978   9.389 -0.7937  1.3567  1.4920
   59CHL1  H18B 6801   2.599   2.880   9.426  0.6784 -0.4662  0.7151
   59CHL1  H18C 6802   2.492   2.924   9.558  1.1258 -1.3013 -1.3974
   59CHL1   C12 6803   2.762   3.053   9.562  0.0439 -0.2328 -0.0794
   59CHL1  H12A 6804   2.817   2.988   9.491  0.2056 -1.2267  0.9307
   59CHL1  H12B 6805   2.822   3.146   9.556  1.7129 -1.2230  0.7177
   59CHL1   C11 6806   2.753   3.011   9.710 -0.4815 -0.3988  0.2366
   59CHL1  H11A 6807   2.693   2.919   9.694 -2.8124  0.8180  1.4872
   59CHL1  H11B 6808   2.856   2.990   9.743 -0.2674  0.8819  0.4581
   59CHL1    C9 6809   2.676   3.095   9.805  0.0901  0.5507  0.5708
   59CHL1    H9 6810   2.727   3.194   9.805  1.3633 -0.0825  0.0746
   59CHL1   C10 6811   2.675   3.046   9.954 -0.1338  0.4962  0.2348
   59CHL1   C19 6812   2.634   2.897   9.959 -0.8963  0.0424 -0.4017
   59CHL1  H19A 6813   2.714   2.833   9.918 -0.2494  0.2029  0.5970
   59CHL1  H19B 6814   2.618   2.871  10.066  1.5614 -0.0248 -0.0091
   59CHL1  H19C 6815   2.545   2.873   9.896  0.2256 -1.6353 -1.4233
   59CHL1    C1 6816   2.820   3.063  10.020 -0.5756 -1.0032 -0.2014
   59CHL1   H1A 6817   2.884   2.989   9.968 -1.0422 -1.9487  0.5459
   59CHL1   H1B 6818   2.857   3.166   9.999 -2.0061 -0.5343 -0.5559
   59CHL1    C2 6819   2.831   3.036  10.168 -0.3689 -0.9624  0.1367
   59CHL1   H2A 6820   2.937   3.051  10.197 -0.9598 -0.5843  2.2610
   59CHL1   H2B 6821   2.787   2.935  10.184 -4.4492  0.5672 -0.2991
   59CHL1   C20 6822   2.656   3.120   9.226  0.1317 -0.1734  0.0455
   59CHL1   H20 6823   2.586   3.036   9.208 -0.4144 -0.0119  1.3233
   59CHL1   C21 6824   2.800   3.057   9.223  0.6352  0.4223 -0.1659
   59CHL1  H21A 6825   2.797   2.965   9.285  0.5283 -0.0159 -0.8182
   59CHL1  H21B 6826   2.885   3.122   9.254  2.7356 -1.1808 -2.2052
   59CHL1  H21C 6827   2.817   3.011   9.123  0.1792  2.4729 -1.2454
   59CHL1   C22 6828   2.651   3.225   9.108 -0.6544  0.3481 -0.2299
   59CHL1  H22A 6829   2.569   3.300   9.122 -1.2918 -0.6180  1.4522
   59CHL1  H22B 6830   2.739   3.293   9.107 -0.4655  0.1073 -1.4766
   59CHL1   C23 6831   2.615   3.158   8.968  0.0999  0.5775  0.2015
   59CHL1  H23A 6832   2.693   3.081   8.949 -1.1191 -0.7973  0.6167
   59CHL1  H23B 6833   2.520   3.104   8.989  0.9156 -0.1981  2.0669
   59CHL1   C24 6834   2.595   3.243   8.850  0.3922  0.4230  0.0604
   59CHL1  H24A 6835   2.567   3.187   8.758  4.4256 -0.6050 -0.7866
   59CHL1  H24B 6836   2.525   3.322   8.882 -1.1319 -0.2521 -1.4395
   59CHL1   C25 6837   2.717   3.319   8.803  0.4256  0.1716 -0.0466
   59CHL1   H25 6838   2.736   3.393   8.883  0.4125  0.9045 -0.7033
   59CHL1   C26 6839   2.838   3.224   8.781 -0.4735 -0.2950 -0.0799
   59CHL1  H26A 6840   2.938   3.268   8.760 -0.4188 -0.2482  0.2773
   59CHL1  H26B 6841   2.857   3.173   8.878  0.5236  0.1820 -0.0088
   59CHL1  H26C 6842   2.814   3.146   8.706  0.8445 -1.9711  1.1713
   59CHL1   C27 6843   2.681   3.398   8.671  0.0375 -0.4316  0.1770
   59CHL1  H27A 6844   2.761   3.470   8.644 -1.6481  1.5239  0.1511
   59CHL1  H27B 6845   2.666   3.322   8.591  2.4946 -1.9622  1.0623
   59CHL1  H27C 6846   2.592   3.464   8.677  2.0291  2.5884 -0.8246
   60CHL1    C3 6847   3.660   1.215  10.249  0.1065  0.2016 -0.2538
   60CHL1    H3 6848   3.731   1.135  10.219  1.0941  0.0811  2.2109
   60CHL1    O3 6849   3.670   1.237  10.386  0.2734  0.7566 -0.1999
   60CHL1   H3' 6850   3.628   1.322  10.400  2.2927  1.8616 -0.5161
   60CHL1    C4 6851   3.703   1.345  10.166  0.6831 -0.3973 -0.5575
   60CHL1   H4A 6852   3.646   1.431  10.208 -1.5216 -2.9447  2.1230
   60CHL1   H4B 6853   3.807   1.357  10.204 -0.0279  0.4952  1.2356
   60CHL1    C5 6854   3.687   1.337  10.020  0.2486  0.9298  0.3197
   60CHL1    C6 6855   3.789   1.363   9.932  0.1263 -0.0925 -0.6373
   60CHL1    H6 6856   3.891   1.399   9.951  0.9809 -1.0498 -3.0463
   60CHL1    C7 6857   3.768   1.353   9.784 -0.6427  0.5348  0.1391
   60CHL1   H7A 6858   3.827   1.438   9.741  1.0514  0.0824  1.4521
   60CHL1   H7B 6859   3.829   1.270   9.743  1.0979  1.2669  1.0995
   60CHL1    C8 6860   3.628   1.349   9.731 -0.8646 -0.2410 -0.2869
   60CHL1    H8 6861   3.574   1.446   9.741 -0.8808 -0.3967  1.3009
   60CHL1   C14 6862   3.621   1.304   9.587  0.2205  0.2049  0.1662
   60CHL1   H14 6863   3.677   1.208   9.575  0.3779  0.2148  0.7782
   60CHL1   C15 6864   3.697   1.391   9.487 -0.2289 -0.0044  0.0924
   60CHL1  H15A 6865   3.667   1.496   9.508 -2.4786 -0.6007  0.1151
   60CHL1  H15B 6866   3.805   1.368   9.503 -0.4731 -1.0238  0.3252
   60CHL1   C16 6867   3.644   1.340   9.355 -0.3354 -0.4565  0.0646
   60CHL1  H16A 6868   3.600   1.433   9.313  0.7504  0.4471  0.8757
   60CHL1  H16B 6869   3.729   1.293   9.301  1.1939  0.2320  1.7484
   60CHL1   C17 6870   3.527   1.236   9.385  0.6490 -0.1547  0.8903
   60CHL1   H17 6871   3.571   1.134   9.398  0.5442 -0.5105 -1.2036
   60CHL1   C13 6872   3.484   1.278   9.524  0.1483  0.2556 -0.2900
   60CHL1   C18 6873   3.395   1.402   9.528  0.3075 -0.0357 -0.5351
   60CHL1  H18A 6874   3.428   1.487   9.464  0.2935 -0.0932 -0.6185
   60CHL1  H18B 6875   3.295   1.376   9.487  0.7966 -1.5989 -0.8344
   60CHL1  H18C 6876   3.383   1.436   9.633 -1.3002 -1.1292 -0.3237
   60CHL1   C12 6877   3.432   1.167   9.617 -0.4328 -0.3938  0.9555
   60CHL1  H12A 6878   3.334   1.141   9.572 -1.0539  2.8328  0.1803
   60CHL1  H12B 6879   3.495   1.076   9.607  1.9754  1.3659 -0.5895
   60CHL1   C11 6880   3.413   1.200   9.767  0.0618 -0.1442 -0.1974
   60CHL1  H11A 6881   3.331   1.274   9.779 -1.2810 -1.5940 -0.0968
   60CHL1  H11B 6882   3.386   1.105   9.819 -1.3454  1.3444  1.9735
   60CHL1    C9 6883   3.550   1.254   9.828 -0.3558 -0.0703  0.5378
   60CHL1    H9 6884   3.611   1.161   9.836 -1.0345 -0.6358 -0.6219
   60CHL1   C10 6885   3.545   1.296   9.983 -0.3872 -0.0975  0.3604
   60CHL1   C19 6886   3.447   1.409  10.011  0.1075 -0.1898  0.6231
   60CHL1  H19A 6887   3.463   1.502   9.951 -1.1230 -1.0923 -1.1900
   60CHL1  H19B 6888   3.347   1.378   9.975  1.1332  1.2148 -4.2812
   60CHL1  H19C 6889   3.451   1.432  10.119 -0.8970  1.3320  0.3632
   60CHL1    C1 6890   3.496   1.167  10.058 -0.0108  0.0238  0.4717
   60CHL1   H1A 6891   3.389   1.148  10.035  0.1528 -0.9121  0.4375
   60CHL1   H1B 6892   3.559   1.085  10.019  1.0428 -0.9586  3.9305
   60CHL1    C2 6893   3.513   1.172  10.217  0.1768 -0.3675  0.4407
   60CHL1   H2A 6894   3.496   1.069  10.256  2.0422 -1.4430 -1.3486
   60CHL1   H2B 6895   3.436   1.241  10.258 -0.2621 -0.3325 -0.4170
   60CHL1   C20 6896   3.423   1.240   9.270  0.1691 -0.3637  0.5843
   60CHL1   H20 6897   3.376   1.341   9.268  0.4989 -0.1995  0.9467
   60CHL1   C21 6898   3.308   1.138   9.302 -0.0969  0.3114 -0.0283
   60CHL1  H21A 6899   3.241   1.127   9.213  2.2670 -0.6773 -1.7813
   60CHL1  H21B 6900   3.240   1.186   9.376 -1.3668 -0.0096 -0.9578
   60CHL1  H21C 6901   3.349   1.038   9.325 -1.6548 -0.6237 -1.1340
   60CHL1   C22 6902   3.475   1.207   9.128 -0.9927 -0.2160 -0.3649
   60CHL1  H22A 6903   3.561   1.139   9.146 -2.3818 -1.9553 -0.0123
   60CHL1  H22B 6904   3.409   1.156   9.054  0.6232 -1.3810 -1.0475
   60CHL1   C23 6905   3.518   1.331   9.045 -0.5110 -0.1473  0.7225
   60CHL1  H23A 6906   3.423   1.377   9.009 -0.7853 -1.5072 -0.3841
   60CHL1  H23B 6907   3.568   1.402   9.114  1.4688 -0.8440  0.0656
   60CHL1   C24 6908   3.620   1.297   8.930 -0.2347 -0.7015 -0.7294
   60CHL1  H24A 6909   3.714   1.254   8.971 -1.0632 -1.7245  0.1410
   60CHL1  H24B 6910   3.580   1.220   8.861  1.1692 -1.6429 -0.5405
   60CHL1   C25 6911   3.655   1.416   8.842  0.1728 -0.4003 -0.9491
   60CHL1   H25 6912   3.717   1.367   8.764  0.1714 -2.6282  0.3623
   60CHL1   C26 6913   3.541   1.476   8.777  0.3037  0.7137 -0.3225
   60CHL1  H26A 6914   3.474   1.538   8.841  1.3499  1.0323  0.4887
   60CHL1  H26B 6915   3.577   1.537   8.692 -1.4889 -0.7315 -2.2416
   60CHL1  H26C 6916   3.481   1.391   8.737  0.9206 -0.1488  0.5282
   60CHL1   C27 6917   3.733   1.528   8.911  0.1656 -0.0683 -0.6088
   60CHL1  H27A 6918   3.658   1.585   8.969  0.6409 -0.8041  0.7796
   60CHL1  H27B 6919   3.815   1.481   8.970  0.6423  0.2947 -0.9644
   60CHL1  H27C 6920   3.778   1.589   8.829  1.4903 -1.2933 -0.8467
   61CHL1    C3 6921   6.715   3.401  10.310 -0.3558  0.0586  0.0395
   61CHL1    H3 6922   6.787   3.448  10.240  0.5599 -0.7860  0.3827
   61CHL1    O3 6923   6.724   3.438  10.445 -0.4036  0.0240 -0.2456
   61CHL1   H3' 6924   6.716   3.533  10.439  3.7058  0.4798 -1.6856
   61CHL1    C4 6925   6.583   3.441  10.244  0.3506 -0.9994  0.3459
   61CHL1   H4A 6926   6.502   3.393  10.304  2.2049 -1.1712  2.8331
   61CHL1   H4B 6927   6.575   3.550  10.264 -0.2939 -0.9438 -0.1804
   61CHL1    C5 6928   6.577   3.409  10.098  1.8537 -0.4228 -0.6390
   61CHL1    C6 6929   6.564   3.500  10.004  0.1323  0.3046  0.2365
   61CHL1    H6 6930   6.561   3.608  10.019  1.2357  0.3701  0.0263
   61CHL1    C7 6931   6.553   3.455   9.862 -0.0434  0.1428  0.2610
   61CHL1   H7A 6932   6.461   3.500   9.819 -0.4373 -0.3759  0.5483
   61CHL1   H7B 6933   6.637   3.491   9.799  0.6555 -1.6997  0.0834
   61CHL1    C8 6934   6.541   3.304   9.836  0.1000 -0.0637 -0.3159
   61CHL1    H8 6935   6.433   3.277   9.847  0.0952 -0.4520 -1.2696
   61CHL1   C14 6936   6.570   3.270   9.686 -0.3696  0.1610  0.1250
   61CHL1   H14 6937   6.675   3.299   9.662 -0.3015  0.2583  0.5362
   61CHL1   C15 6938   6.484   3.336   9.584 -0.4201  0.4794 -1.2621
   61CHL1  H15A 6939   6.374   3.331   9.602 -0.2233  0.1995 -0.0381
   61CHL1  H15B 6940   6.516   3.441   9.565  1.5192 -0.0315 -0.9624
   61CHL1   C16 6941   6.507   3.253   9.461  0.6777  0.3191 -0.5911
   61CHL1  H16A 6942   6.409   3.215   9.424  0.7362  2.1851 -2.8429
   61CHL1  H16B 6943   6.565   3.304   9.382 -0.2253 -0.9486 -2.1309
   61CHL1   C17 6944   6.596   3.124   9.508  0.1138 -0.3047  0.1541
   61CHL1   H17 6945   6.697   3.167   9.498  0.0257  0.6985  2.7050
   61CHL1   C13 6946   6.568   3.122   9.657 -0.1570 -0.0401 -0.1022
   61CHL1   C18 6947   6.429   3.072   9.672  0.4902  0.1062  0.1271
   61CHL1  H18A 6948   6.370   3.099   9.762 -0.7699  0.2922 -0.7257
   61CHL1  H18B 6949   6.358   3.102   9.592 -0.7278  2.9387  2.1364
   61CHL1  H18C 6950   6.434   2.961   9.672 -0.3027  0.0462 -1.3247
   61CHL1   C12 6951   6.672   3.048   9.751 -0.0456 -0.9405 -0.2685
   61CHL1  H12A 6952   6.660   2.940   9.730  0.5297 -0.8169 -1.3036
   61CHL1  H12B 6953   6.771   3.092   9.725  0.4707 -1.6522  0.4419
   61CHL1   C11 6954   6.646   3.073   9.904 -0.2714 -0.1209  0.4396
   61CHL1  H11A 6955   6.554   3.013   9.916 -1.7782  1.5944 -1.7035
   61CHL1  H11B 6956   6.731   3.028   9.960 -0.9870 -1.5991  0.3742
   61CHL1    C9 6957   6.625   3.221   9.932  0.3901 -0.4851  0.6446
   61CHL1    H9 6958   6.723   3.271   9.912 -0.4001  0.5627 -0.7481
   61CHL1   C10 6959   6.599   3.255  10.080  0.1263  0.1696  0.6896
   61CHL1   C19 6960   6.483   3.171  10.121 -0.1078  0.1356 -0.1820
   61CHL1  H19A 6961   6.396   3.176  10.052 -1.0813 -0.6842  0.9522
   61CHL1  H19B 6962   6.498   3.062  10.134 -0.5360  0.0630 -0.2606
   61CHL1  H19C 6963   6.429   3.209  10.211  1.8462 -0.9294  1.5253
   61CHL1    C1 6964   6.718   3.202  10.166 -1.0126 -0.2745  0.2595
   61CHL1   H1A 6965   6.705   3.092  10.174  1.0909 -0.4643  1.9393
   61CHL1   H1B 6966   6.815   3.224  10.118 -0.2757  1.4310  2.4018
   61CHL1    C2 6967   6.727   3.250  10.312  0.3506 -0.0375  0.3335
   61CHL1   H2A 6968   6.826   3.212  10.346  0.3967 -0.0429  0.1940
   61CHL1   H2B 6969   6.649   3.204  10.376 -2.6047  1.9589 -1.5840
   61CHL1   C20 6970   6.573   3.004   9.421 -0.2045  0.3665  0.2926
   61CHL1   H20 6971   6.472   2.960   9.435  0.3395 -1.4964 -1.1906
   61CHL1   C21 6972   6.667   2.891   9.460 -0.3193 -0.1367  0.5670
   61CHL1  H21A 6973   6.637   2.839   9.554 -2.3456 -1.2140 -0.5909
   61CHL1  H21B 6974   6.773   2.922   9.471 -0.9041  1.4989  2.0063
   61CHL1  H21C 6975   6.678   2.807   9.388 -0.3089  0.4352 -0.0991
   61CHL1   C22 6976   6.579   3.017   9.267 -0.0841  0.6351 -0.6753
   61CHL1  H22A 6977   6.569   2.914   9.229  1.1095  0.1603  0.2190
   61CHL1  H22B 6978   6.494   3.083   9.241 -0.6658  0.9640  1.7617
   61CHL1   C23 6979   6.718   3.059   9.214  0.5184 -0.7562 -0.4096
   61CHL1  H23A 6980   6.733   3.162   9.252 -0.5224  0.3942 -2.8517
   61CHL1  H23B 6981   6.800   3.000   9.259  0.5682  0.3326  0.9878
   61CHL1   C24 6982   6.716   3.052   9.067 -0.4797 -0.5260 -0.5762
   61CHL1  H24A 6983   6.809   3.087   9.018 -1.4782 -0.9329 -2.8913
   61CHL1  H24B 6984   6.703   2.946   9.038 -1.2708 -0.4654 -0.4671
   61CHL1   C25 6985   6.608   3.127   8.981 -0.7155 -0.5620 -0.1172
   61CHL1   H25 6986   6.510   3.100   9.025 -1.6522  0.5071 -1.4776
   61CHL1   C26 6987   6.617   3.284   8.991  0.7065  0.8525  0.0425
   61CHL1  H26A 6988   6.702   3.340   8.947  0.9402  0.2994 -0.2194
   61CHL1  H26B 6989   6.518   3.321   8.957  0.0169  0.3232  1.3668
   61CHL1  H26C 6990   6.621   3.297   9.102  1.7714 -2.7288  0.5546
   61CHL1   C27 6991   6.614   3.092   8.831  0.4402 -0.3954 -0.0588
   61CHL1  H27A 6992   6.584   2.985   8.826 -2.3935  0.1564  2.4525
   61CHL1  H27B 6993   6.547   3.152   8.767  2.7649  2.3830 -0.0750
   61CHL1  H27C 6994   6.720   3.108   8.800  0.0036  0.6307 -1.0988
   62CHL1    C3 6995   1.797   4.775  10.175 -0.5280  0.0540 -0.7709
   62CHL1    H3 6996   1.686   4.782  10.180 -0.6211  0.1120 -2.4780
   62CHL1    O3 6997   1.838   4.767  10.316  0.4630  0.2006  0.9450
   62CHL1   H3' 6998   1.763   4.726  10.358 -0.7057 -0.5147 -1.6126
   62CHL1    C4 6999   1.836   4.650  10.090 -0.2005  0.5530  0.1446
   62CHL1   H4A 7000   1.944   4.627  10.096 -0.2640  0.1112 -0.3723
   62CHL1   H4B 7001   1.792   4.555  10.126  1.1459  0.0026  0.3680
   62CHL1    C5 7002   1.782   4.670   9.947  0.4540 -0.1148 -0.2478
   62CHL1    C6 7003   1.691   4.584   9.889  0.2423 -0.6213 -0.2403
   62CHL1    H6 7004   1.653   4.496   9.943 -2.7939  0.8221  0.2309
   62CHL1    C7 7005   1.625   4.604   9.756 -0.3151 -0.5117  0.2166
   62CHL1   H7A 7006   1.599   4.506   9.709 -0.4905 -1.8553  2.8823
   62CHL1   H7B 7007   1.529   4.657   9.778 -0.1799  0.1476 -0.7280
   62CHL1    C8 7008   1.716   4.692   9.674  0.7519  0.1287 -0.0477
   62CHL1    H8 7009   1.811   4.637   9.654  0.7137  0.1382 -0.2596
   62CHL1   C14 7010   1.640   4.735   9.547  0.5125  0.4788 -0.0951
   62CHL1   H14 7011   1.545   4.781   9.581  1.4257  1.3626  1.3946
   62CHL1   C15 7012   1.608   4.619   9.452  0.6088  0.3003 -0.0712
   62CHL1  H15A 7013   1.697   4.554   9.446  0.0633 -0.7193  1.8696
   62CHL1  H15B 7014   1.535   4.549   9.499  0.9987 -1.3871 -1.8715
   62CHL1   C16 7015   1.582   4.681   9.313  0.3955 -0.3956 -0.0936
   62CHL1  H16A 7016   1.631   4.621   9.233 -0.5568  0.1761 -1.1302
   62CHL1  H16B 7017   1.474   4.664   9.297  0.6365 -2.1209 -0.1308
   62CHL1   C17 7018   1.618   4.831   9.336  1.4240  0.4254 -0.3601
   62CHL1   H17 7019   1.520   4.868   9.372  0.1752 -1.0052 -2.1402
   62CHL1   C13 7020   1.703   4.835   9.461  0.1936 -0.2724  0.4903
   62CHL1   C18 7021   1.843   4.800   9.404 -0.0635  0.4916 -0.1258
   62CHL1  H18A 7022   1.834   4.708   9.341 -0.9434 -1.1290  2.2451
   62CHL1  H18B 7023   1.901   4.875   9.346  2.7567 -2.4486 -1.3765
   62CHL1  H18C 7024   1.917   4.764   9.478 -0.4216 -2.8334 -1.2266
   62CHL1   C12 7025   1.709   4.965   9.543  0.3081  0.2364 -0.1918
   62CHL1  H12A 7026   1.742   5.050   9.480 -0.8319 -0.0811 -1.2647
   62CHL1  H12B 7027   1.605   4.981   9.577  0.9795  2.5117  0.9806
   62CHL1   C11 7028   1.792   4.939   9.668 -0.6753 -0.0453  0.0185
   62CHL1  H11A 7029   1.893   4.922   9.624 -1.1717 -0.0356 -1.1640
   62CHL1  H11B 7030   1.793   5.034   9.726  1.8295  0.0128 -0.0029
   62CHL1    C9 7031   1.741   4.820   9.754  0.3418  0.2323 -0.7290
   62CHL1    H9 7032   1.645   4.864   9.789  0.1810 -0.2068 -0.6187
   62CHL1   C10 7033   1.826   4.797   9.879 -0.3736 -0.1147 -0.2255
   62CHL1   C19 7034   1.968   4.763   9.832 -0.8134  0.3084 -0.2210
   62CHL1  H19A 7035   2.034   4.765   9.921 -0.9992 -1.6890  0.0114
   62CHL1  H19B 7036   1.991   4.660   9.795  0.5345 -0.2976  2.0974
   62CHL1  H19C 7037   2.014   4.828   9.755 -0.9531 -0.1821 -0.7236
   62CHL1    C1 7038   1.817   4.927   9.974 -0.2476  0.0978 -0.2625
   62CHL1   H1A 7039   1.874   5.012   9.931 -0.1041  0.6705  1.0208
   62CHL1   H1B 7040   1.712   4.963   9.979  0.2010  1.8527 -2.1691
   62CHL1    C2 7041   1.858   4.898  10.117  0.5168 -0.4033 -0.3881
   62CHL1   H2A 7042   1.822   4.984  10.177  2.9659  0.4171  0.0098
   62CHL1   H2B 7043   1.969   4.887  10.112  0.6280  0.9889 -2.7816
   62CHL1   C20 7044   1.645   4.904   9.208 -0.6155 -0.1876 -0.0750
   62CHL1   H20 7045   1.750   4.889   9.177 -0.3702  2.3327 -0.6515
   62CHL1   C21 7046   1.628   5.056   9.225 -0.7119  0.2848 -0.5813
   62CHL1  H21A 7047   1.528   5.078   9.269  0.3526  1.0049  1.6249
   62CHL1  H21B 7048   1.643   5.107   9.128  1.5945 -1.5418 -1.2653
   62CHL1  H21C 7049   1.700   5.094   9.300 -1.6117 -2.3487  1.7929
   62CHL1   C22 7050   1.564   4.860   9.086 -0.6896 -0.2196 -0.8240
   62CHL1  H22A 7051   1.539   4.752   9.078  0.2610 -0.5701  0.5810
   62CHL1  H22B 7052   1.466   4.906   9.108 -1.4015 -1.9213 -0.2988
   62CHL1   C23 7053   1.604   4.923   8.951 -0.4410  0.2916 -0.4076
   62CHL1  H23A 7054   1.593   5.034   8.959 -0.6389  0.2038  0.5788
   62CHL1  H23B 7055   1.708   4.891   8.929  0.6419  0.8905  3.2013
   62CHL1   C24 7056   1.507   4.885   8.838  0.2733 -0.3075  0.7911
   62CHL1  H24A 7057   1.523   4.778   8.812 -0.3343 -0.3135  0.4184
   62CHL1  H24B 7058   1.403   4.898   8.875 -0.5550 -1.0098 -1.1911
   62CHL1   C25 7059   1.508   4.962   8.704  0.3098  0.7059 -0.2928
   62CHL1   H25 7060   1.615   4.963   8.671  0.6029  1.2478  0.6374
   62CHL1   C26 7061   1.414   4.889   8.603 -0.8969 -0.8053 -0.2089
   62CHL1  H26A 7062   1.410   4.931   8.500  1.3706 -0.1490 -0.0889
   62CHL1  H26B 7063   1.436   4.781   8.602  2.3771 -0.2827 -3.1058
   62CHL1  H26C 7064   1.309   4.884   8.639 -0.4016 -3.7611  1.0794
   62CHL1   C27 7065   1.463   5.111   8.728  0.0380  0.0648 -0.1694
   62CHL1  H27A 7066   1.456   5.169   8.633 -0.4848  1.0576  0.4624
   62CHL1  H27B 7067   1.356   5.105   8.757  0.3875 -0.8612  1.0176
   62CHL1  H27C 7068   1.521   5.166   8.805 -1.0201  1.7185 -0.5102
   63CHL1    C3 7069   2.582   6.470  10.364 -0.6158 -0.1019 -0.2352
   63CHL1    H3 7070   2.689   6.461  10.334 -0.4571  0.9376 -0.0201
   63CHL1    O3 7071   2.580   6.452  10.503  0.1685  0.2804 -0.5730
   63CHL1   H3' 7072   2.502   6.498  10.535 -2.1989 -1.5809 -3.1612
   63CHL1    C4 7073   2.520   6.607  10.329  0.4155  0.1541 -0.7909
   63CHL1   H4A 7074   2.420   6.618  10.375 -0.1918 -0.2415 -1.9784
   63CHL1   H4B 7075   2.577   6.681  10.389  1.7260 -0.5108 -1.1728
   63CHL1    C5 7076   2.523   6.626  10.174  0.1289 -0.0100  0.2946
   63CHL1    C6 7077   2.574   6.741  10.129 -0.3475  0.3093  0.2744
   63CHL1    H6 7078   2.617   6.816  10.197 -1.4057  1.9838 -0.8175
   63CHL1    C7 7079   2.569   6.777   9.984 -0.0010 -0.9608 -0.0500
   63CHL1   H7A 7080   2.533   6.881   9.967  1.8985 -0.1281  0.7395
   63CHL1   H7B 7081   2.674   6.781   9.949  0.5198  1.2037  1.5144
   63CHL1    C8 7082   2.484   6.688   9.890 -0.1303  0.5359  0.1602
   63CHL1    H8 7083   2.379   6.718   9.910 -0.0825  0.6369  0.2642
   63CHL1   C14 7084   2.520   6.706   9.743  0.2872  0.4645  0.2273
   63CHL1   H14 7085   2.623   6.665   9.741  0.9480  2.0830 -0.3592
   63CHL1   C15 7086   2.529   6.853   9.687 -0.4825 -0.5763 -0.6541
   63CHL1  H15A 7087   2.440   6.903   9.729 -0.4341 -1.6386  0.8033
   63CHL1  H15B 7088   2.631   6.895   9.704  0.2511 -2.7905  0.9930
   63CHL1   C16 7089   2.501   6.831   9.536  0.8946  0.4929 -0.1045
   63CHL1  H16A 7090   2.414   6.894   9.505 -1.0441 -1.7526  0.4903
   63CHL1  H16B 7091   2.587   6.873   9.479  0.5274  0.3468 -0.7894
   63CHL1   C17 7092   2.465   6.683   9.507  0.1858 -0.4217 -0.2218
   63CHL1   H17 7093   2.561   6.630   9.489 -0.5040 -2.3915  1.4113
   63CHL1   C13 7094   2.428   6.630   9.648 -0.2797  1.0870 -0.5646
   63CHL1   C18 7095   2.289   6.671   9.676  0.4785  0.5016  1.3502
   63CHL1  H18A 7096   2.276   6.781   9.667 -1.3489  0.1870 -1.0618
   63CHL1  H18B 7097   2.220   6.615   9.608  1.2784 -1.6275  2.1878
   63CHL1  H18C 7098   2.238   6.644   9.771  0.4415 -2.6878  0.5608
   63CHL1   C12 7099   2.446   6.482   9.686 -0.2362  0.2899 -0.4892
   63CHL1  H12A 7100   2.385   6.420   9.617  0.5860 -1.0681 -0.0459
   63CHL1  H12B 7101   2.552   6.458   9.661  0.3401  2.7065 -0.5931
   63CHL1   C11 7102   2.422   6.449   9.834  0.4204  0.1681 -0.1656
   63CHL1  H11A 7103   2.313   6.447   9.854  0.4044  1.1622 -0.1377
   63CHL1  H11B 7104   2.457   6.344   9.850  0.4246  0.3347  0.9928
   63CHL1    C9 7105   2.496   6.543   9.935 -0.4205 -0.2594  0.0090
   63CHL1    H9 7106   2.604   6.517   9.928 -0.8203 -1.6914 -1.2236
   63CHL1   C10 7107   2.457   6.522  10.079 -0.9752 -0.4390  1.0383
   63CHL1   C19 7108   2.308   6.539  10.106  0.6160  0.1761 -0.3747
   63CHL1  H19A 7109   2.260   6.639  10.096 -0.0039 -0.1746 -0.9904
   63CHL1  H19B 7110   2.256   6.468  10.038  1.0252 -1.0955  0.5943
   63CHL1  H19C 7111   2.285   6.495  10.205 -0.0713 -1.3282 -1.1690
   63CHL1    C1 7112   2.509   6.386  10.132 -0.3592  0.4402  0.1121
   63CHL1   H1A 7113   2.455   6.299  10.088  2.6485 -1.6453  0.1845
   63CHL1   H1B 7114   2.613   6.368  10.096 -1.4521 -0.5245 -2.8278
   63CHL1    C2 7115   2.509   6.357  10.284 -0.5734 -0.0019 -0.1413
   63CHL1   H2A 7116   2.560   6.259  10.299 -0.3046 -0.0041 -1.0224
   63CHL1   H2B 7117   2.406   6.346  10.323 -1.4965  2.1271 -1.7570
   63CHL1   C20 7118   2.372   6.666   9.388  0.0811 -0.2496 -0.4441
   63CHL1   H20 7119   2.268   6.698   9.412 -0.1102 -1.5871  0.6834
   63CHL1   C21 7120   2.369   6.509   9.369 -0.2941 -1.0898  0.1264
   63CHL1  H21A 7121   2.283   6.459   9.417 -1.0414 -2.9377 -2.8874
   63CHL1  H21B 7122   2.469   6.470   9.398 -0.0488 -0.8627 -0.3954
   63CHL1  H21C 7123   2.357   6.488   9.260  1.2419 -0.8364 -0.1232
   63CHL1   C22 7124   2.405   6.743   9.263  0.1647  0.7216 -0.3481
   63CHL1  H22A 7125   2.328   6.740   9.182  0.9729 -0.5384 -1.1099
   63CHL1  H22B 7126   2.421   6.849   9.293  2.2677  0.6127 -0.9204
   63CHL1   C23 7127   2.540   6.695   9.196 -0.0323 -0.1928  0.2710
   63CHL1  H23A 7128   2.628   6.688   9.263  0.1152  1.1472  0.2507
   63CHL1  H23B 7129   2.516   6.595   9.154 -1.5496  0.6448 -0.9747
   63CHL1   C24 7130   2.580   6.782   9.075 -0.4134  0.6857  0.1204
   63CHL1  H24A 7131   2.494   6.794   9.006  1.0818  1.6587 -1.6651
   63CHL1  H24B 7132   2.616   6.881   9.110  1.2410  0.3960 -0.6439
   63CHL1   C25 7133   2.706   6.713   9.009 -0.1690 -0.5247  0.5803
   63CHL1   H25 7134   2.700   6.603   9.004 -1.0309 -0.4360 -0.9488
   63CHL1   C26 7135   2.714   6.761   8.862 -0.1100 -0.0922 -0.6194
   63CHL1  H26A 7136   2.795   6.705   8.810 -0.8097 -1.2099 -0.5400
   63CHL1  H26B 7137   2.612   6.757   8.817  0.1096  1.0891 -1.2571
   63CHL1  H26C 7138   2.747   6.867   8.867  0.5343 -0.3522  2.0290
   63CHL1   C27 7139   2.841   6.745   9.077  0.5299  0.3924 -0.3883
   63CHL1  H27A 7140   2.920   6.678   9.037  0.1682 -0.0176 -0.4237
   63CHL1  H27B 7141   2.868   6.852   9.059  2.0006  0.2085  0.5777
   63CHL1  H27C 7142   2.825   6.728   9.185 -0.8732  3.0290 -0.0903
   64CHL1    C3 7143   0.158   4.650  10.064 -0.2174 -0.3732 -0.5867
   64CHL1    H3 7144   0.080   4.720  10.098 -1.2091 -2.3866  1.5791
   64CHL1    O3 7145   0.237   4.597  10.164  0.0665 -0.4127 -0.4636
   64CHL1   H3' 7146   0.296   4.530  10.127 -1.0846 -1.4124 -0.5678
   64CHL1    C4 7147   0.075   4.540   9.992  0.6831  0.5095 -1.1014
   64CHL1   H4A 7148   0.143   4.457   9.967 -0.2763 -0.4217 -0.7176
   64CHL1   H4B 7149   0.001   4.509  10.070 -0.3239  1.8801 -1.4610
   64CHL1    C5 7150   0.002   4.583   9.872 -0.1435  0.1350  0.9997
   64CHL1    C6 7151  -0.130   4.566   9.856 -0.0907  0.2430 -0.0603
   64CHL1    H6 7152  -0.188   4.512   9.933 -1.2705  1.3131 -0.1766
   64CHL1    C7 7153  -0.205   4.620   9.743  0.6304  0.9669  1.0392
   64CHL1   H7A 7154  -0.274   4.542   9.704  2.9014 -2.2676  2.9862
   64CHL1   H7B 7155  -0.266   4.710   9.766  0.3809  1.9752 -2.8632
   64CHL1    C8 7156  -0.120   4.666   9.623 -0.1663  0.5395  0.5255
   64CHL1    H8 7157  -0.075   4.574   9.580 -1.6424  0.4559 -0.9247
   64CHL1   C14 7158  -0.193   4.741   9.511 -0.0923 -0.1720 -0.0650
   64CHL1   H14 7159  -0.238   4.831   9.559 -1.1569  1.1107 -3.1922
   64CHL1   C15 7160  -0.319   4.676   9.451  0.2675  0.2297 -0.3263
   64CHL1  H15A 7161  -0.298   4.571   9.422  1.2144 -0.0859  1.3420
   64CHL1  H15B 7162  -0.405   4.685   9.522  0.4946 -3.8201  0.6828
   64CHL1   C16 7163  -0.358   4.766   9.325 -0.8516 -0.0579 -0.0700
   64CHL1  H16A 7164  -0.358   4.699   9.237  0.2471 -0.4161  0.1848
   64CHL1  H16B 7165  -0.453   4.824   9.317 -0.6647  0.2822  0.1732
   64CHL1   C17 7166  -0.235   4.868   9.315  0.2867  0.9169 -0.0400
   64CHL1   H17 7167  -0.255   4.952   9.385 -0.0888 -0.8049  2.0166
   64CHL1   C13 7168  -0.116   4.797   9.398 -0.0276  0.2995 -0.1379
   64CHL1   C18 7169  -0.050   4.694   9.315 -0.4280 -0.7685 -0.4585
   64CHL1  H18A 7170  -0.125   4.633   9.260  0.0882 -2.4983  0.6532
   64CHL1  H18B 7171   0.018   4.736   9.239 -1.0229 -1.9276 -1.6747
   64CHL1  H18C 7172   0.020   4.626   9.368 -0.8451 -1.1331 -0.3648
   64CHL1   C12 7173  -0.016   4.898   9.455  0.6158 -0.2649  0.6257
   64CHL1  H12A 7174   0.045   4.936   9.371  0.0432  0.8488  0.6947
   64CHL1  H12B 7175  -0.076   4.980   9.501 -0.4081 -1.8108  2.1722
   64CHL1   C11 7176   0.073   4.824   9.567  0.4613 -0.4548 -0.6203
   64CHL1  H11A 7177   0.125   4.744   9.511  0.3430 -0.8692 -0.1386
   64CHL1  H11B 7178   0.144   4.901   9.604 -0.3059 -1.3869  3.1420
   64CHL1    C9 7179  -0.005   4.751   9.676  0.0885 -0.4327 -0.5751
   64CHL1    H9 7180  -0.055   4.833   9.732 -1.8069 -1.6536 -0.3849
   64CHL1   C10 7181   0.092   4.667   9.775 -0.3980 -0.2903 -0.2557
   64CHL1   C19 7182   0.178   4.565   9.701  0.3940  0.3140 -0.0706
   64CHL1  H19A 7183   0.237   4.611   9.619  1.8483 -0.5973  0.4042
   64CHL1  H19B 7184   0.250   4.517   9.771 -1.2118 -0.7334  0.9305
   64CHL1  H19C 7185   0.119   4.484   9.654 -0.0052  0.8738 -0.5459
   64CHL1    C1 7186   0.183   4.767   9.843  0.3503  0.8811 -0.4557
   64CHL1   H1A 7187   0.260   4.814   9.778  1.2245 -0.1129 -0.1799
   64CHL1   H1B 7188   0.112   4.849   9.866 -1.5017 -0.6919 -0.2820
   64CHL1    C2 7189   0.264   4.716   9.965  0.5178 -0.2285 -0.6314
   64CHL1   H2A 7190   0.312   4.804  10.013 -0.2516  0.2614 -0.7400
   64CHL1   H2B 7191   0.337   4.635   9.944  1.0539 -0.2186  1.0439
   64CHL1   C20 7192  -0.201   4.931   9.181  0.8201 -1.0527 -0.3898
   64CHL1   H20 7193  -0.104   4.985   9.184 -0.0248  0.7592 -2.8477
   64CHL1   C21 7194  -0.303   5.050   9.160  0.5801  0.1732  0.3448
   64CHL1  H21A 7195  -0.403   5.005   9.176  1.4944 -1.3565  2.2977
   64CHL1  H21B 7196  -0.305   5.083   9.054  1.8425 -2.1954 -0.4869
   64CHL1  H21C 7197  -0.296   5.140   9.225  1.7681 -0.8493  1.7005
   64CHL1   C22 7198  -0.199   4.841   9.062 -0.1021  0.3525 -0.2868
   64CHL1  H22A 7199  -0.119   4.765   9.075 -0.3769  0.0186 -0.5068
   64CHL1  H22B 7200  -0.294   4.783   9.060 -0.4691  0.9273  0.1794
   64CHL1   C23 7201  -0.181   4.896   8.922 -0.9159 -0.4033  0.0003
   64CHL1  H23A 7202  -0.189   4.809   8.852  1.3493  0.0588 -0.9038
   64CHL1  H23B 7203  -0.268   4.960   8.895 -1.5257 -1.4917 -0.7176
   64CHL1   C24 7204  -0.043   4.954   8.902 -0.2427 -0.4630 -0.2783
   64CHL1  H24A 7205  -0.028   5.032   8.980 -1.2874 -0.0572 -0.4574
   64CHL1  H24B 7206   0.028   4.874   8.930 -0.0038  0.1815  1.0554
   64CHL1   C25 7207  -0.001   5.009   8.762 -0.1947 -0.0857  0.0528
   64CHL1   H25 7208  -0.009   4.932   8.683 -1.3440  0.0673 -0.0105
   64CHL1   C26 7209  -0.089   5.131   8.725  0.7122  0.7997  0.1968
   64CHL1  H26A 7210  -0.094   5.149   8.615 -0.2814 -1.5199 -0.1997
   64CHL1  H26B 7211  -0.196   5.118   8.751  1.0219 -0.9840  0.6803
   64CHL1  H26C 7212  -0.051   5.219   8.781  2.2826 -0.1701  0.7123
   64CHL1   C27 7213   0.140   5.065   8.766 -0.7297 -0.3639  0.2901
   64CHL1  H27A 7214   0.148   5.168   8.808 -0.3678 -0.4621  0.4679
   64CHL1  H27B 7215   0.195   4.993   8.831 -1.7598 -1.1925  0.2761
   64CHL1  H27C 7216   0.189   5.061   8.666  1.8889 -3.1488  1.5105
   65CHL1    C3 7217   3.030   4.305  10.155 -0.5938  0.0237 -1.1515
   65CHL1    H3 7218   3.130   4.284  10.110 -0.8463  0.0849 -1.7555
   65CHL1    O3 7219   3.047   4.305  10.298 -0.5929 -0.3392  0.4356
   65CHL1   H3' 7220   3.132   4.266  10.318 -0.0148  0.6492 -0.0073
   65CHL1    C4 7221   2.989   4.446  10.120  0.2444  0.5400  0.3210
   65CHL1   H4A 7222   2.895   4.455  10.178  2.2626  1.6252  3.7255
   65CHL1   H4B 7223   3.066   4.516  10.161 -0.0838  2.3067 -1.8325
   65CHL1    C5 7224   2.970   4.463   9.972 -0.3228 -0.2145  0.5031
   65CHL1    C6 7225   3.037   4.548   9.888 -0.4311  0.4738 -1.0129
   65CHL1    H6 7226   3.109   4.618   9.933 -0.0333 -1.5519  1.8021
   65CHL1    C7 7227   3.020   4.570   9.747 -0.5690  0.2389 -0.3793
   65CHL1   H7A 7228   3.011   4.678   9.722  1.5210  0.3661 -0.8182
   65CHL1   H7B 7229   3.114   4.545   9.693 -0.3468 -0.1070  0.1585
   65CHL1    C8 7230   2.896   4.497   9.689 -0.4999  0.0507 -0.0196
   65CHL1    H8 7231   2.807   4.561   9.706 -0.9289 -0.9863  2.1369
   65CHL1   C14 7232   2.929   4.482   9.548  0.2207  0.5232  0.2554
   65CHL1   H14 7233   3.022   4.422   9.539 -0.6359 -0.8976  0.3728
   65CHL1   C15 7234   2.959   4.606   9.471  0.5749  0.1897 -0.3288
   65CHL1  H15A 7235   2.888   4.683   9.507  2.2164  0.3617  2.9000
   65CHL1  H15B 7236   3.064   4.639   9.490  1.1724 -0.9733 -1.4174
   65CHL1   C16 7237   2.940   4.571   9.326 -0.1211  0.3922  0.8928
   65CHL1  H16A 7238   2.867   4.638   9.275  0.5862 -0.5364 -1.4992
   65CHL1  H16B 7239   3.032   4.582   9.264 -0.4351  0.2778  0.3973
   65CHL1   C17 7240   2.877   4.434   9.325 -0.1323  0.5273 -0.8261
   65CHL1   H17 7241   2.955   4.356   9.311 -0.0053  0.8358 -1.9407
   65CHL1   C13 7242   2.817   4.416   9.469 -0.7657 -0.0045 -0.0007
   65CHL1   C18 7243   2.678   4.490   9.481  0.0185  1.2926  0.4046
   65CHL1  H18A 7244   2.648   4.485   9.588  0.6633  1.5572  0.6065
   65CHL1  H18B 7245   2.684   4.597   9.452  1.9015  1.1199  0.0269
   65CHL1  H18C 7246   2.596   4.444   9.423  0.7457  1.0905 -0.4959
   65CHL1   C12 7247   2.823   4.274   9.526  0.6346  0.0157 -0.1480
   65CHL1  H12A 7248   2.744   4.215   9.475  0.1554  0.9038 -0.4597
   65CHL1  H12B 7249   2.925   4.231   9.513  0.6623  0.1813 -0.4755
   65CHL1   C11 7250   2.791   4.271   9.674  0.2503 -0.0911  0.7779
   65CHL1  H11A 7251   2.685   4.303   9.668  0.1258 -0.7396 -2.6901
   65CHL1  H11B 7252   2.791   4.167   9.713 -1.2835 -1.3402 -2.2409
   65CHL1    C9 7253   2.885   4.358   9.752  0.2525  0.3953 -0.8150
   65CHL1    H9 7254   2.984   4.311   9.735 -0.2031 -0.1406 -2.1027
   65CHL1   C10 7255   2.873   4.354   9.908 -0.8115 -0.0602 -0.8973
   65CHL1   C19 7256   2.731   4.405   9.940  0.3946 -0.0119  0.1322
   65CHL1  H19A 7257   2.711   4.418  10.049 -1.8732  0.9530 -0.3456
   65CHL1  H19B 7258   2.723   4.508   9.901  1.9487  0.1414  0.1407
   65CHL1  H19C 7259   2.646   4.341   9.910 -0.7617  0.2641  2.5682
   65CHL1    C1 7260   2.905   4.214   9.963  0.2145  0.4878 -0.1879
   65CHL1   H1A 7261   2.819   4.152   9.930  0.8031 -0.0427 -0.7473
   65CHL1   H1B 7262   2.991   4.173   9.906 -1.1844 -0.9727 -1.3108
   65CHL1    C2 7263   2.927   4.206  10.112 -0.0533  0.1637 -0.2678
   65CHL1   H2A 7264   2.961   4.102  10.134 -0.4142  0.2090  0.5626
   65CHL1   H2B 7265   2.831   4.221  10.165 -0.0508  1.1421 -0.5139
   65CHL1   C20 7266   2.786   4.402   9.202  0.6052  0.0099 -0.0542
   65CHL1   H20 7267   2.703   4.477   9.204 -0.2157 -0.8734  2.5345
   65CHL1   C21 7268   2.725   4.269   9.213 -0.6267 -0.1141 -0.2337
   65CHL1  H21A 7269   2.662   4.250   9.123 -1.2533  0.1909  0.1391
   65CHL1  H21B 7270   2.655   4.257   9.298 -2.9157  2.0115 -1.6575
   65CHL1  H21C 7271   2.808   4.196   9.221  1.5233  2.3879  1.9136
   65CHL1   C22 7272   2.863   4.446   9.075  0.0385  0.0421 -0.5675
   65CHL1  H22A 7273   2.871   4.557   9.070 -0.5454  0.0525 -1.6526
   65CHL1  H22B 7274   2.969   4.413   9.083  0.4791  1.5627  0.4451
   65CHL1   C23 7275   2.806   4.405   8.941 -0.2400 -0.6979  0.0004
   65CHL1  H23A 7276   2.813   4.295   8.930  0.9198 -0.4307 -2.4375
   65CHL1  H23B 7277   2.701   4.438   8.924  0.8378  2.4192 -1.3655
   65CHL1   C24 7278   2.864   4.474   8.814  0.1881 -1.2987 -0.4476
   65CHL1  H24A 7279   2.793   4.470   8.730 -0.6938  0.3376  0.1732
   65CHL1  H24B 7280   2.879   4.582   8.837 -0.0185 -1.4404  0.3886
   65CHL1   C25 7281   2.993   4.407   8.768  0.2894 -0.8961 -0.0396
   65CHL1   H25 7282   3.057   4.397   8.858 -1.8980 -3.3431  1.3901
   65CHL1   C26 7283   2.971   4.278   8.699  0.4329  0.2605 -0.5976
   65CHL1  H26A 7284   2.887   4.283   8.626  0.4030  4.5393 -0.5131
   65CHL1  H26B 7285   3.063   4.234   8.654  1.2522 -0.0404  1.2857
   65CHL1  H26C 7286   2.931   4.211   8.777  2.3691  1.1545  1.2698
   65CHL1   C27 7287   3.069   4.495   8.655  0.8386  0.4039  0.1116
   65CHL1  H27A 7288   3.173   4.468   8.626  0.5082  1.9358 -2.9460
   65CHL1  H27B 7289   3.001   4.490   8.567  0.9488 -1.5271  0.0791
   65CHL1  H27C 7290   3.075   4.602   8.684 -0.7555  0.4196  0.4500
   66CHL1    C3 7291   1.210   6.452  10.386 -0.1297  0.0937 -0.3898
   66CHL1    H3 7292   1.101   6.457  10.364 -0.1320  4.0202 -0.2179
   66CHL1    O3 7293   1.228   6.461  10.524  0.4167  0.0495 -0.0785
   66CHL1   H3' 7294   1.294   6.530  10.525 -0.8077  1.3527 -2.3628
   66CHL1    C4 7295   1.265   6.324  10.332 -0.9865  0.9510  0.6220
   66CHL1   H4A 7296   1.376   6.326  10.334 -0.8666 -0.9043 -0.6941
   66CHL1   H4B 7297   1.232   6.238  10.395  0.3498  0.0168  0.0944
   66CHL1    C5 7298   1.236   6.303  10.183  0.9673 -0.0625 -0.3145
   66CHL1    C6 7299   1.176   6.191  10.139  0.1284 -0.7582  0.0519
   66CHL1    H6 7300   1.166   6.103  10.205  0.4227 -0.5444  0.3853
   66CHL1    C7 7301   1.147   6.152   9.996 -1.0043  0.3245  0.1484
   66CHL1   H7A 7302   1.196   6.053   9.986 -0.1241  0.8687 -1.1782
   66CHL1   H7B 7303   1.040   6.146   9.966 -0.5607 -1.5360 -1.2326
   66CHL1    C8 7304   1.224   6.257   9.905  0.4506 -0.5561 -0.1622
   66CHL1    H8 7305   1.330   6.223   9.906  0.3168 -1.1037 -1.6857
   66CHL1   C14 7306   1.174   6.246   9.762  1.2610  0.3256 -0.0810
   66CHL1   H14 7307   1.074   6.294   9.769  1.3709  0.6779 -0.7973
   66CHL1   C15 7308   1.173   6.110   9.697  0.7937 -0.2119 -0.5715
   66CHL1  H15A 7309   1.273   6.065   9.714  0.1428 -2.2934 -1.8942
   66CHL1  H15B 7310   1.102   6.033   9.734 -0.9103  0.4102 -2.3793
   66CHL1   C16 7311   1.149   6.150   9.551  0.5483  0.6790 -0.2554
   66CHL1  H16A 7312   1.196   6.075   9.483  0.6338 -0.9048  1.4724
   66CHL1  H16B 7313   1.040   6.132   9.539  0.3976  0.0758  1.7213
   66CHL1   C17 7314   1.174   6.303   9.531 -0.2446  0.2029  0.1181
   66CHL1   H17 7315   1.072   6.346   9.521 -0.4225 -0.6298 -2.4854
   66CHL1   C13 7316   1.243   6.339   9.659 -0.6152 -0.7334 -0.2456
   66CHL1   C18 7317   1.392   6.302   9.643 -0.0637  0.1357  0.4009
   66CHL1  H18A 7318   1.440   6.321   9.742 -0.4803 -0.2857  0.6885
   66CHL1  H18B 7319   1.417   6.198   9.615 -0.0508 -0.0868  1.2224
   66CHL1  H18C 7320   1.447   6.372   9.576  1.8376  0.2503  1.9983
   66CHL1   C12 7321   1.224   6.482   9.705  1.0365  0.4807 -0.5487
   66CHL1  H12A 7322   1.279   6.546   9.634 -0.0614  1.4575 -0.5514
   66CHL1  H12B 7323   1.117   6.510   9.697  0.7604 -0.5668 -0.7005
   66CHL1   C11 7324   1.281   6.498   9.850  0.3778 -0.5722 -0.5394
   66CHL1  H11A 7325   1.391   6.504   9.852  0.3094  1.4538  0.7835
   66CHL1  H11B 7326   1.255   6.604   9.875 -1.0496 -0.9394 -0.3686
   66CHL1    C9 7327   1.219   6.403   9.958 -0.1060  0.4975  0.2026
   66CHL1    H9 7328   1.111   6.430   9.961 -0.1469  0.5122 -0.8317
   66CHL1   C10 7329   1.278   6.423  10.093 -0.1664 -0.1339 -0.6325
   66CHL1   C19 7330   1.430   6.420  10.098 -0.1154  0.1770  0.1130
   66CHL1  H19A 7331   1.461   6.501  10.028 -0.9837 -0.9133 -1.6148
   66CHL1  H19B 7332   1.481   6.439  10.195 -0.1271 -1.8628  0.5518
   66CHL1  H19C 7333   1.471   6.324  10.060  1.9305  0.8642  0.4204
   66CHL1    C1 7334   1.219   6.549  10.160  0.2379  0.0055 -0.6279
   66CHL1   H1A 7335   1.264   6.634  10.105 -0.0699  0.6302  0.0700
   66CHL1   H1B 7336   1.108   6.546  10.164  0.2000  1.5711  1.1211
   66CHL1    C2 7337   1.261   6.573  10.308  0.2185  0.7365 -0.4911
   66CHL1   H2A 7338   1.205   6.661  10.345 -1.7777 -0.3068 -0.8642
   66CHL1   H2B 7339   1.371   6.581  10.320  0.0929  0.2402  1.2553
   66CHL1   C20 7340   1.241   6.335   9.394  0.3576  0.0828  0.7349
   66CHL1   H20 7341   1.344   6.292   9.392  0.2601 -0.2427  1.9861
   66CHL1   C21 7342   1.253   6.490   9.364  0.1714  0.7035  0.1806
   66CHL1  H21A 7343   1.335   6.531   9.427 -0.1892  0.4107  0.8538
   66CHL1  H21B 7344   1.161   6.540   9.402  0.0773 -0.6304  1.8592
   66CHL1  H21C 7345   1.271   6.513   9.257 -2.1306  0.4951 -0.3035
   66CHL1   C22 7346   1.164   6.260   9.277 -0.0074  0.0341 -0.1480
   66CHL1  H22A 7347   1.134   6.153   9.288 -2.3916  0.5503 -1.0772
   66CHL1  H22B 7348   1.072   6.321   9.277  1.0222  1.7429  2.3474
   66CHL1   C23 7349   1.237   6.259   9.140 -0.6747 -0.4907 -1.1483
   66CHL1  H23A 7350   1.297   6.351   9.126  0.0180 -0.5656  1.0527
   66CHL1  H23B 7351   1.313   6.179   9.142  1.3675  1.3757  0.1381
   66CHL1   C24 7352   1.144   6.245   9.020  0.1219  0.2737  0.9404
   66CHL1  H24A 7353   1.060   6.175   9.034 -0.7325  0.6784 -1.7105
   66CHL1  H24B 7354   1.089   6.339   8.996  0.0753 -0.0011 -0.0902
   66CHL1   C25 7355   1.216   6.189   8.889 -0.1182 -0.0257 -0.4907
   66CHL1   H25 7356   1.246   6.086   8.917  0.1060  0.5505  1.5494
   66CHL1   C26 7357   1.131   6.199   8.758  0.5300 -0.1663 -0.1458
   66CHL1  H26A 7358   1.187   6.173   8.665 -0.2751  3.9090 -2.0295
   66CHL1  H26B 7359   1.033   6.147   8.761  1.7140 -2.4865  0.2637
   66CHL1  H26C 7360   1.110   6.308   8.747 -0.2287 -0.3775 -0.9615
   66CHL1   C27 7361   1.344   6.270   8.864 -0.3112  0.8166  0.0136
   66CHL1  H27A 7362   1.413   6.278   8.951  3.2756  2.1983 -2.6949
   66CHL1  H27B 7363   1.403   6.233   8.777 -1.2212 -1.1040  0.1561
   66CHL1  H27C 7364   1.316   6.374   8.839  1.1222  1.5664  1.3772
   67CHL1    C3 7365   5.023   1.045  10.381  0.5087  0.4578  0.5607
   67CHL1    H3 7366   5.021   1.152  10.349 -1.4948  0.4302  0.4671
   67CHL1    O3 7367   5.084   1.043  10.511 -0.2736 -0.8792  0.9158
   67CHL1   H3' 7368   5.043   1.118  10.554 -3.2955 -0.2864 -2.4956
   67CHL1    C4 7369   4.872   0.993  10.374  0.4620  0.1416 -0.1185
   67CHL1   H4A 7370   4.866   0.892  10.419  1.2963  0.6093  1.0923
   67CHL1   H4B 7371   4.809   1.052  10.444  0.9897  0.0233  0.4626
   67CHL1    C5 7372   4.813   0.989  10.232  0.4537 -0.5955  0.2210
   67CHL1    C6 7373   4.701   1.059  10.192 -0.6586 -0.4735  0.6402
   67CHL1    H6 7374   4.643   1.114  10.267  2.0421  0.3220  2.3025
   67CHL1    C7 7375   4.639   1.036  10.057 -0.4560  0.2419  0.3462
   67CHL1   H7A 7376   4.535   1.001  10.077 -0.0323 -0.3794  1.5843
   67CHL1   H7B 7377   4.653   1.136  10.013  0.2420 -0.1596 -0.3616
   67CHL1    C8 7378   4.706   0.919   9.975  0.1361 -0.2284  0.5942
   67CHL1    H8 7379   4.668   0.819  10.007  0.6456 -0.3220  0.9250
   67CHL1   C14 7380   4.672   0.952   9.829  0.1360  0.3066 -0.1417
   67CHL1   H14 7381   4.710   1.055   9.816 -1.1079  0.8204  0.1819
   67CHL1   C15 7382   4.522   0.958   9.786  0.4619  0.1162 -0.5915
   67CHL1  H15A 7383   4.479   0.866   9.831  2.4178 -1.6787 -2.1800
   67CHL1  H15B 7384   4.462   1.036   9.837 -0.8173 -0.1083 -1.7109
   67CHL1   C16 7385   4.528   0.961   9.635  0.1046 -0.1980 -0.0926
   67CHL1  H16A 7386   4.447   0.894   9.598  0.0217 -0.8805  1.2586
   67CHL1  H16B 7387   4.510   1.056   9.581 -2.0971 -1.2057 -1.3053
   67CHL1   C17 7388   4.665   0.905   9.592 -0.6923  0.0770 -0.1790
   67CHL1   H17 7389   4.725   0.997   9.570  0.6333  0.4148  3.9820
   67CHL1   C13 7390   4.732   0.849   9.723  0.4167  0.1092  0.1025
   67CHL1   C18 7391   4.673   0.711   9.747 -0.5905 -0.2166  0.1691
   67CHL1  H18A 7392   4.569   0.689   9.713 -0.6701 -2.9905  1.8379
   67CHL1  H18B 7393   4.742   0.644   9.691 -0.2317  0.5006 -0.2563
   67CHL1  H18C 7394   4.666   0.677   9.852 -4.6037 -3.0485 -0.7730
   67CHL1   C12 7395   4.884   0.858   9.739 -0.2298  0.3129 -1.0693
   67CHL1  H12A 7396   4.928   0.779   9.674  0.2797  0.2493 -0.6582
   67CHL1  H12B 7397   4.917   0.958   9.705 -1.6412  1.1966  0.0640
   67CHL1   C11 7398   4.931   0.835   9.885 -0.5167 -0.1239 -0.0824
   67CHL1  H11A 7399   4.926   0.729   9.919 -0.7103 -0.8154 -2.1024
   67CHL1  H11B 7400   5.038   0.865   9.889  0.0536 -1.9138 -0.9035
   67CHL1    C9 7401   4.852   0.919   9.988 -0.0461 -1.0901 -1.4210
   67CHL1    H9 7402   4.879   1.023   9.960  0.4887 -0.9400 -0.3898
   67CHL1   C10 7403   4.903   0.905  10.134 -0.2674  0.2276  0.3430
   67CHL1   C19 7404   4.884   0.760  10.179  0.2751 -0.6720  0.8778
   67CHL1  H19A 7405   4.924   0.734  10.279 -1.0213 -0.8777  1.3562
   67CHL1  H19B 7406   4.780   0.724  10.164 -0.1126  0.7104  0.0286
   67CHL1  H19C 7407   4.938   0.691  10.111 -1.0711 -0.8948 -0.0110
   67CHL1    C1 7408   5.054   0.941  10.148 -0.2415  0.5616  0.0244
   67CHL1   H1A 7409   5.123   0.861  10.113  1.0453 -0.0244  3.4434
   67CHL1   H1B 7410   5.069   1.038  10.097  0.7762  0.9206  0.9666
   67CHL1    C2 7411   5.106   0.964  10.292 -0.2566  0.0064  0.0097
   67CHL1   H2A 7412   5.204   1.010  10.269 -0.7669  0.6809 -0.9292
   67CHL1   H2B 7413   5.125   0.864  10.335  0.6648 -1.2602 -3.0475
   67CHL1   C20 7414   4.665   0.818   9.465 -0.0629 -0.4202 -0.0129
   67CHL1   H20 7415   4.640   0.714   9.495  0.2910 -0.4906  0.0408
   67CHL1   C21 7416   4.806   0.806   9.404  0.4355 -0.4984 -0.2051
   67CHL1  H21A 7417   4.882   0.800   9.485 -2.3596  0.4286  2.6955
   67CHL1  H21B 7418   4.837   0.896   9.347 -2.1658 -0.2480 -1.3808
   67CHL1  H21C 7419   4.809   0.721   9.334  1.3222  0.8894 -1.9214
   67CHL1   C22 7420   4.571   0.860   9.351  0.8988 -0.0404 -0.2767
   67CHL1  H22A 7421   4.464   0.860   9.383  1.7414  1.1584  2.9691
   67CHL1  H22B 7422   4.596   0.962   9.314  0.0070  0.6289  0.8552
   67CHL1   C23 7423   4.566   0.767   9.230  0.0810  0.5039  0.6082
   67CHL1  H23A 7424   4.660   0.772   9.170 -1.2770 -1.2834 -1.8799
   67CHL1  H23B 7425   4.544   0.665   9.269 -0.0816  1.0769  2.0513
   67CHL1   C24 7426   4.450   0.799   9.128  0.3206  0.2145  0.3679
   67CHL1  H24A 7427   4.357   0.782   9.186 -1.6602 -0.8663 -2.8805
   67CHL1  H24B 7428   4.448   0.908   9.109  1.2304  0.2150  0.2122
   67CHL1   C25 7429   4.460   0.735   8.993 -0.0710 -0.2662  0.6034
   67CHL1   H25 7430   4.537   0.789   8.934  2.7484 -3.6471  0.8434
   67CHL1   C26 7431   4.499   0.595   8.990 -0.0752 -0.3752  0.2011
   67CHL1  H26A 7432   4.432   0.531   9.051  0.3980 -1.4814 -0.4081
   67CHL1  H26B 7433   4.485   0.557   8.887  1.3776  1.4162 -0.7109
   67CHL1  H26C 7434   4.601   0.586   9.035 -0.1744  1.7084  0.9367
   67CHL1   C27 7435   4.318   0.736   8.928  0.1283  0.5536  0.2379
   67CHL1  H27A 7436   4.307   0.690   8.828  1.6651  3.4906 -1.3991
   67CHL1  H27B 7437   4.245   0.687   8.997  0.5197 -1.1147 -0.4653
   67CHL1  H27C 7438   4.289   0.843   8.924 -0.2523  0.6173  2.7055
   68CHL1    C3 7439   3.240   0.769  10.693  0.2918  0.0005 -0.0381
   68CHL1    H3 7440   3.137   0.739  10.666  0.6474  0.4565 -2.0151
   68CHL1    O3 7441   3.270   0.807  10.829  0.6759  0.1002  0.9968
   68CHL1   H3' 7442   3.363   0.829  10.824  0.6299  0.2189  0.6540
   68CHL1    C4 7443   3.334   0.657  10.650  0.1176 -0.1014  0.1355
   68CHL1   H4A 7444   3.434   0.685  10.690  0.4994 -1.3730  0.0939
   68CHL1   H4B 7445   3.315   0.561  10.702 -0.6540 -0.9778 -1.6852
   68CHL1    C5 7446   3.332   0.626  10.500  0.1461  0.9053 -0.1162
   68CHL1    C6 7447   3.296   0.509  10.449  0.0451 -0.1623 -0.5223
   68CHL1    H6 7448   3.286   0.422  10.515  0.4160 -0.9544 -1.4785
   68CHL1    C7 7449   3.260   0.476  10.308 -0.1578  0.3124 -0.1941
   68CHL1   H7A 7450   3.310   0.380  10.284 -1.3391 -0.2652 -0.4183
   68CHL1   H7B 7451   3.149   0.469  10.297 -0.3456  1.6197  0.6123
   68CHL1    C8 7452   3.324   0.579  10.210 -0.2833 -0.3138 -0.0646
   68CHL1    H8 7453   3.433   0.559  10.224 -0.4643 -1.4851 -0.2117
   68CHL1   C14 7454   3.273   0.556  10.067  0.6650 -0.5996 -0.2553
   68CHL1   H14 7455   3.166   0.584  10.068  1.2470  2.0922  1.6645
   68CHL1   C15 7456   3.296   0.415  10.015  0.7407 -0.1893  0.2689
   68CHL1  H15A 7457   3.401   0.389  10.037  1.6186  0.8988 -2.2165
   68CHL1  H15B 7458   3.226   0.343  10.062 -2.7599  2.7484  0.0934
   68CHL1   C16 7459   3.289   0.429   9.860  0.9028 -0.1060  0.1122
   68CHL1  H16A 7460   3.385   0.395   9.816  1.0095  0.3202  0.0136
   68CHL1  H16B 7461   3.196   0.378   9.826  1.6699 -0.5279 -1.4420
   68CHL1   C17 7462   3.266   0.581   9.828 -0.1625  0.3325 -0.3709
   68CHL1   H17 7463   3.157   0.601   9.823 -0.1978 -0.0242 -1.4058
   68CHL1   C13 7464   3.330   0.645   9.959 -0.4163 -0.0953 -0.0536
   68CHL1   C18 7465   3.482   0.635   9.958 -0.1749 -0.3673 -0.5544
   68CHL1  H18A 7466   3.520   0.657  10.060  2.0320 -0.0834 -1.3865
   68CHL1  H18B 7467   3.520   0.541   9.913 -0.0061 -0.2580 -0.6424
   68CHL1  H18C 7468   3.519   0.726   9.906 -0.8894  0.8411  0.9399
   68CHL1   C12 7469   3.287   0.792   9.998 -0.0555 -0.0227  0.1962
   68CHL1  H12A 7470   3.342   0.864   9.934  1.3539 -0.1092  1.2529
   68CHL1  H12B 7471   3.182   0.807   9.968 -0.1534  0.1603  0.6243
   68CHL1   C11 7472   3.309   0.826  10.155 -0.0898  0.0591  0.5208
   68CHL1  H11A 7473   3.411   0.868  10.161 -0.7072  1.5870  0.9276
   68CHL1  H11B 7474   3.239   0.910  10.173  0.8120  0.8560  0.3738
   68CHL1    C9 7475   3.290   0.721  10.260 -0.2817  0.8594 -0.1501
   68CHL1    H9 7476   3.181   0.706  10.275 -0.4485  0.1441 -1.8211
   68CHL1   C10 7477   3.335   0.752  10.407  0.0408  0.9108 -0.0687
   68CHL1   C19 7478   3.477   0.803  10.416  0.0184 -0.1872 -0.0904
   68CHL1  H19A 7479   3.541   0.763  10.335  0.5172  0.7279 -0.1599
   68CHL1  H19B 7480   3.469   0.913  10.401  0.3616 -0.2847 -0.9783
   68CHL1  H19C 7481   3.527   0.793  10.515  1.1639  1.6626 -0.4290
   68CHL1    C1 7482   3.235   0.861  10.460 -1.1178  0.0706 -0.0910
   68CHL1   H1A 7483   3.268   0.953  10.408  1.4376 -0.1565  0.9582
   68CHL1   H1B 7484   3.128   0.835  10.447 -1.1666 -0.6144  1.4901
   68CHL1    C2 7485   3.269   0.898  10.605  0.4106  0.1694  0.1483
   68CHL1   H2A 7486   3.207   0.984  10.637 -0.9293 -0.4438 -0.7433
   68CHL1   H2B 7487   3.374   0.934  10.615 -0.5892  2.7845  2.4219
   68CHL1   C20 7488   3.332   0.629   9.692  0.1702 -0.0934  0.5150
   68CHL1   H20 7489   3.442   0.612   9.695  0.4871  1.4974 -0.4687
   68CHL1   C21 7490   3.327   0.776   9.663 -0.2596 -0.2230  0.4745
   68CHL1  H21A 7491   3.357   0.799   9.559 -0.7239 -2.5886 -0.2343
   68CHL1  H21B 7492   3.402   0.827   9.728  0.7451 -1.7633  0.5819
   68CHL1  H21C 7493   3.224   0.815   9.680  0.0215  1.0466 -0.5200
   68CHL1   C22 7494   3.268   0.541   9.578  0.3014  0.2882 -0.3019
   68CHL1  H22A 7495   3.285   0.438   9.615 -0.8593 -0.4306 -1.6964
   68CHL1  H22B 7496   3.162   0.563   9.554  0.9081  3.7999 -0.3692
   68CHL1   C23 7497   3.347   0.532   9.442 -0.5699  0.4196 -0.7360
   68CHL1  H23A 7498   3.369   0.628   9.391  1.8182 -0.5686 -1.7210
   68CHL1  H23B 7499   3.439   0.476   9.467 -0.3870 -0.1301 -2.4939
   68CHL1   C24 7500   3.283   0.442   9.335 -0.4018  0.8661  0.5304
   68CHL1  H24A 7501   3.261   0.346   9.387  0.7164 -1.5682 -3.0163
   68CHL1  H24B 7502   3.188   0.493   9.309  0.9020  2.8023 -0.6378
   68CHL1   C25 7503   3.358   0.396   9.202  0.6078 -1.0091 -0.8720
   68CHL1   H25 7504   3.438   0.324   9.228  2.5725  1.2706 -0.2610
   68CHL1   C26 7505   3.258   0.327   9.104  0.2631 -0.1619  0.6135
   68CHL1  H26A 7506   3.177   0.283   9.166  0.0285 -0.6192 -0.0041
   68CHL1  H26B 7507   3.220   0.399   9.030  1.7561 -0.3484 -0.3855
   68CHL1  H26C 7508   3.316   0.242   9.062  0.5971  0.2636  0.1964
   68CHL1   C27 7509   3.418   0.526   9.140  0.6181 -0.4894  0.6268
   68CHL1  H27A 7510   3.333   0.595   9.121 -0.0539 -0.6562  2.8085
   68CHL1  H27B 7511   3.488   0.583   9.204 -0.1670  0.6686  0.4706
   68CHL1  H27C 7512   3.457   0.479   9.047 -0.6724 -0.8412  0.2386
   69CHL1    C3 7513   4.301   5.783   6.741 -0.2967 -0.0143 -0.2893
   69CHL1    H3 7514   4.190   5.780   6.747 -0.1884 -2.3586  2.1132
   69CHL1    O3 7515   4.360   5.745   6.612 -0.1896 -0.5944 -0.0320
   69CHL1   H3' 7516   4.284   5.741   6.553  1.1693 -1.0422 -1.8405
   69CHL1    C4 7517   4.352   5.920   6.776 -0.2218  0.5516 -0.9633
   69CHL1   H4A 7518   4.463   5.919   6.762  0.0024  1.1274  0.6481
   69CHL1   H4B 7519   4.309   5.987   6.699 -1.1091  1.2636  0.1311
   69CHL1    C5 7520   4.327   5.964   6.922  0.1110  0.0957  0.2160
   69CHL1    C6 7521   4.266   6.080   6.940  0.5071  0.2437 -0.0204
   69CHL1    H6 7522   4.241   6.139   6.851  0.1531  0.2154  0.0569
   69CHL1    C7 7523   4.259   6.147   7.070 -1.1799  0.6796 -0.2994
   69CHL1   H7A 7524   4.303   6.249   7.071  1.5664 -0.3678  2.8237
   69CHL1   H7B 7525   4.152   6.158   7.099 -1.3149  2.1688 -1.2447
   69CHL1    C8 7526   4.344   6.063   7.178  0.0210 -0.2219  0.1148
   69CHL1    H8 7527   4.453   6.085   7.175  0.1696 -0.4971  2.3042
   69CHL1   C14 7528   4.282   6.096   7.314 -0.6389 -0.2121  0.2073
   69CHL1   H14 7529   4.185   6.043   7.320 -0.3155 -0.6369  3.6131
   69CHL1   C15 7530   4.251   6.247   7.353  0.2789  0.4818  0.2567
   69CHL1  H15A 7531   4.332   6.315   7.322  0.5305 -0.7119 -1.9152
   69CHL1  H15B 7532   4.160   6.273   7.295  1.1507  1.0979 -0.8766
   69CHL1   C16 7533   4.241   6.245   7.504 -0.2033 -0.6063 -0.5571
   69CHL1  H16A 7534   4.331   6.297   7.541 -0.0544  0.8745 -2.8238
   69CHL1  H16B 7535   4.147   6.290   7.544 -1.4752 -1.3762 -2.5364
   69CHL1   C17 7536   4.264   6.098   7.538 -0.1859 -0.2314 -0.3946
   69CHL1   H17 7537   4.173   6.036   7.554 -0.2436  0.4677  2.7787
   69CHL1   C13 7538   4.349   6.032   7.433 -0.1172  0.6517  0.3854
   69CHL1   C18 7539   4.495   6.070   7.447 -0.3589  0.4296 -0.6170
   69CHL1  H18A 7540   4.542   6.028   7.539 -1.5972  0.4312  0.0406
   69CHL1  H18B 7541   4.547   6.037   7.355 -0.4558 -1.8353  0.0769
   69CHL1  H18C 7542   4.509   6.177   7.475 -3.5454  0.0416  3.4087
   69CHL1   C12 7543   4.335   5.878   7.418 -0.0046  0.2414 -0.0391
   69CHL1  H12A 7544   4.398   5.822   7.491  0.2622 -1.5309 -1.5389
   69CHL1  H12B 7545   4.227   5.854   7.422 -0.3562  1.6289 -0.8777
   69CHL1   C11 7546   4.383   5.837   7.283  0.3097  0.2368  1.0980
   69CHL1  H11A 7547   4.493   5.852   7.293  0.3366  1.3493 -0.4660
   69CHL1  H11B 7548   4.373   5.727   7.272  1.1432  0.2665 -0.2002
   69CHL1    C9 7549   4.330   5.914   7.165  1.0616 -0.3394  0.7248
   69CHL1    H9 7550   4.225   5.878   7.172  1.4246 -1.1895  2.2117
   69CHL1   C10 7551   4.382   5.865   7.025 -0.4089  0.5823 -0.3267
   69CHL1   C19 7552   4.538   5.856   7.027  0.7515  0.4762 -0.0825
   69CHL1  H19A 7553   4.580   5.942   7.083 -1.3550  1.0904  0.6735
   69CHL1  H19B 7554   4.566   5.760   7.075 -3.0920 -1.1537 -0.6613
   69CHL1  H19C 7555   4.576   5.848   6.923 -0.6871 -0.2435 -0.5889
   69CHL1    C1 7556   4.325   5.721   6.995 -0.3893 -0.2918 -0.4776
   69CHL1   H1A 7557   4.356   5.647   7.072 -3.9944 -1.1228  0.3577
   69CHL1   H1B 7558   4.215   5.717   7.002 -0.4555  1.1231 -0.3242
   69CHL1    C2 7559   4.355   5.683   6.845 -0.2039 -0.1531 -0.0366
   69CHL1   H2A 7560   4.330   5.576   6.829 -2.4051  0.4649 -1.0609
   69CHL1   H2B 7561   4.465   5.665   6.838 -0.4530 -2.4551  0.8583
   69CHL1   C20 7562   4.320   6.089   7.678 -0.0498  0.0894 -0.8309
   69CHL1   H20 7563   4.423   6.130   7.689 -0.6028  1.2607  0.3109
   69CHL1   C21 7564   4.317   5.945   7.728  0.2841 -0.5418  0.2367
   69CHL1  H21A 7565   4.307   5.945   7.839  0.0708 -1.5898  0.2334
   69CHL1  H21B 7566   4.416   5.895   7.714 -0.8766 -3.5485  1.7925
   69CHL1  H21C 7567   4.231   5.888   7.687  0.8976 -0.3276 -1.3958
   69CHL1   C22 7568   4.239   6.183   7.772  0.0590  0.0395 -0.0077
   69CHL1  H22A 7569   4.223   6.289   7.744 -4.1535 -0.3793  0.1133
   69CHL1  H22B 7570   4.136   6.140   7.780  0.0657  0.0989  0.4093
   69CHL1   C23 7571   4.299   6.195   7.918  0.3831 -0.3974  0.2763
   69CHL1  H23A 7572   4.366   6.109   7.940  0.3664  0.2144  3.0046
   69CHL1  H23B 7573   4.366   6.284   7.912 -0.7344  0.3776 -1.7627
   69CHL1   C24 7574   4.191   6.216   8.017  0.3981 -0.7885  0.1869
   69CHL1  H24A 7575   4.143   6.311   7.986  1.6782 -0.5321 -1.1245
   69CHL1  H24B 7576   4.113   6.137   8.005  0.0648 -0.9208  2.7102
   69CHL1   C25 7577   4.232   6.224   8.162 -0.4720  0.6990 -0.5545
   69CHL1   H25 7578   4.307   6.305   8.169  1.9871 -1.4646 -0.7121
   69CHL1   C26 7579   4.116   6.233   8.263 -1.1976 -0.1093 -0.4970
   69CHL1  H26A 7580   4.054   6.144   8.289 -0.0649 -0.5909  0.6709
   69CHL1  H26B 7581   4.157   6.271   8.359  0.4413 -2.9523  0.0670
   69CHL1  H26C 7582   4.035   6.302   8.232 -0.8079 -0.1202 -1.5983
   69CHL1   C27 7583   4.320   6.103   8.197  0.1653 -0.3085 -1.1819
   69CHL1  H27A 7584   4.281   6.010   8.153  0.7974 -1.1301 -0.0566
   69CHL1  H27B 7585   4.422   6.117   8.154  0.5282  1.4433  0.1189
   69CHL1  H27C 7586   4.330   6.086   8.306 -2.5330  0.6488 -0.7220
   70CHL1    C3 7587   1.804   1.655   7.186 -0.0010  0.0326  0.1204
   70CHL1    H3 7588   1.731   1.729   7.225  1.0688  1.8741 -1.1933
   70CHL1    O3 7589   1.847   1.700   7.057 -0.0286  0.2165 -0.6857
   70CHL1   H3' 7590   1.848   1.624   6.999 -0.0456  1.9069 -3.0737
   70CHL1    C4 7591   1.921   1.634   7.283 -0.0713 -0.4465  0.6240
   70CHL1   H4A 7592   1.994   1.567   7.232 -0.2218  0.3170 -0.6158
   70CHL1   H4B 7593   1.980   1.728   7.290 -1.3940  0.4894 -0.4456
   70CHL1    C5 7594   1.886   1.588   7.423  0.7121  0.4135 -0.1807
   70CHL1    C6 7595   1.917   1.649   7.539  0.7833  0.0733  0.1343
   70CHL1    H6 7596   1.981   1.738   7.533  1.3882 -0.3175  0.6347
   70CHL1    C7 7597   1.885   1.586   7.672 -0.0566 -0.2062 -0.1670
   70CHL1   H7A 7598   1.970   1.592   7.743 -0.5301  2.3393  0.2857
   70CHL1   H7B 7599   1.800   1.633   7.725 -1.2742 -3.1214  0.6911
   70CHL1    C8 7600   1.835   1.436   7.666  0.6268 -0.3938  0.0991
   70CHL1    H8 7601   1.929   1.378   7.648  0.1445 -0.4234 -2.7628
   70CHL1   C14 7602   1.776   1.392   7.802  0.8873  0.6532 -0.5416
   70CHL1   H14 7603   1.678   1.442   7.820  0.6491 -0.4998  1.7414
   70CHL1   C15 7604   1.853   1.414   7.932 -0.7999  0.0106  0.3692
   70CHL1  H15A 7605   1.961   1.403   7.909 -0.6173 -0.0953  1.2443
   70CHL1  H15B 7606   1.831   1.512   7.977  0.0787  0.5773 -0.3962
   70CHL1   C16 7607   1.793   1.308   8.029  0.6350 -0.0731  0.2449
   70CHL1  H16A 7608   1.869   1.253   8.089 -1.5651 -2.1750  1.3077
   70CHL1  H16B 7609   1.733   1.363   8.104  1.6910  0.0838  0.9885
   70CHL1   C17 7610   1.694   1.218   7.954  0.1421  0.0112  0.1187
   70CHL1   H17 7611   1.595   1.263   7.977 -0.4748 -0.6174 -1.1385
   70CHL1   C13 7612   1.734   1.240   7.801  0.0350  0.2965  0.4812
   70CHL1   C18 7613   1.857   1.152   7.783 -0.1427  0.0201  0.4373
   70CHL1  H18A 7614   1.829   1.045   7.792  1.9166 -1.0814 -3.5909
   70CHL1  H18B 7615   1.914   1.164   7.688  2.0450 -0.8582  1.5947
   70CHL1  H18C 7616   1.934   1.173   7.860 -0.0862  0.2626  0.3178
   70CHL1   C12 7617   1.617   1.228   7.696 -0.2725  0.1825  0.0176
   70CHL1  H12A 7618   1.577   1.124   7.694  0.5089 -0.1618  1.3980
   70CHL1  H12B 7619   1.537   1.300   7.725 -1.5520  0.3227 -3.4378
   70CHL1   C11 7620   1.666   1.276   7.556 -0.6279  0.1732  0.6361
   70CHL1  H11A 7621   1.735   1.199   7.516  0.8093  0.9409  1.5743
   70CHL1  H11B 7622   1.567   1.266   7.507 -0.2308 -2.3439  0.2296
   70CHL1    C9 7623   1.737   1.413   7.552 -0.2597 -0.7359  0.1744
   70CHL1    H9 7624   1.655   1.488   7.556 -0.6051 -1.0346 -0.9717
   70CHL1   C10 7625   1.799   1.450   7.417 -0.3397  0.5356  0.1906
   70CHL1   C19 7626   1.899   1.337   7.375  0.2026 -0.3595 -0.5633
   70CHL1  H19A 7627   1.978   1.308   7.448  1.5531  0.7050 -1.5540
   70CHL1  H19B 7628   1.849   1.240   7.355  1.2938 -1.0737  0.0583
   70CHL1  H19C 7629   1.952   1.348   7.278  1.1434  0.9518  0.0663
   70CHL1    C1 7630   1.691   1.465   7.304 -0.1384  0.3754  0.4392
   70CHL1   H1A 7631   1.661   1.359   7.288  3.0345 -0.5582 -0.1266
   70CHL1   H1B 7632   1.601   1.516   7.343 -0.6872 -0.4383  0.2526
   70CHL1    C2 7633   1.724   1.531   7.165  0.4295 -0.1128 -0.1189
   70CHL1   H2A 7634   1.636   1.555   7.101  0.0794 -0.5280  0.2013
   70CHL1   H2B 7635   1.782   1.458   7.105  0.4056  0.7336 -1.1968
   70CHL1   C20 7636   1.674   1.076   8.019 -0.3725 -0.0525  0.4494
   70CHL1   H20 7637   1.771   1.023   8.015 -0.1411  0.4460 -2.4683
   70CHL1   C21 7638   1.564   1.001   7.944 -0.5205 -0.7208  0.1358
   70CHL1  H21A 7639   1.464   1.037   7.975  0.0396  1.6006 -0.5541
   70CHL1  H21B 7640   1.574   0.894   7.971 -2.1426 -1.1750 -0.9183
   70CHL1  H21C 7641   1.575   1.001   7.833 -0.1816  1.0030  0.1485
   70CHL1   C22 7642   1.648   1.091   8.167 -0.6497  0.1125 -0.0074
   70CHL1  H22A 7643   1.732   1.149   8.212 -0.3860  0.9291 -1.4724
   70CHL1  H22B 7644   1.562   1.162   8.165  1.9347  3.4855 -1.3946
   70CHL1   C23 7645   1.595   0.965   8.250 -0.4585  0.1523 -0.0785
   70CHL1  H23A 7646   1.501   0.933   8.200  0.6205 -2.2223 -0.7197
   70CHL1  H23B 7647   1.663   0.878   8.242  0.4579  0.7780  0.6843
   70CHL1   C24 7648   1.557   0.998   8.387  0.3289 -0.7540  0.4809
   70CHL1  H24A 7649   1.646   1.009   8.453  0.5417  0.3175  0.0442
   70CHL1  H24B 7650   1.503   1.095   8.385  1.7579  0.2856 -4.9244
   70CHL1   C25 7651   1.462   0.892   8.442 -0.4518  0.0018 -0.0304
   70CHL1   H25 7652   1.374   0.887   8.374 -0.7664 -0.0105  0.3761
   70CHL1   C26 7653   1.532   0.755   8.444 -0.0240 -0.2702  0.0656
   70CHL1  H26A 7654   1.463   0.683   8.492 -0.2059 -0.5889 -0.6467
   70CHL1  H26B 7655   1.550   0.717   8.341 -1.3072  0.1239 -0.3183
   70CHL1  H26C 7656   1.627   0.762   8.501  0.1809  0.1090 -0.3150
   70CHL1   C27 7657   1.410   0.948   8.576 -0.2779  0.2083 -0.3348
   70CHL1  H27A 7658   1.365   1.048   8.559  1.0096  0.5493 -1.9629
   70CHL1  H27B 7659   1.336   0.878   8.621 -0.6856 -0.2920 -1.7348
   70CHL1  H27C 7660   1.494   0.966   8.647  0.1259 -2.1652 -0.1085
   71CHL1    C3 7661   2.028   5.260   6.820  0.1946  0.4865  0.2560
   71CHL1    H3 7662   1.920   5.276   6.839 -0.0507 -0.1228 -0.5509
   71CHL1    O3 7663   2.042   5.266   6.677 -0.0683 -0.2671 -0.1127
   71CHL1   H3' 7664   2.130   5.301   6.661 -0.0504 -0.4783 -0.5116
   71CHL1    C4 7665   2.139   5.351   6.884 -0.0328  0.3308 -0.1989
   71CHL1   H4A 7666   2.227   5.335   6.817 -1.7618 -2.9771 -1.9535
   71CHL1   H4B 7667   2.102   5.452   6.856 -2.6623 -0.1972  1.0432
   71CHL1    C5 7668   2.174   5.325   7.031  0.0344 -0.8457  0.3614
   71CHL1    C6 7669   2.171   5.422   7.127 -0.5229 -0.2165  0.2032
   71CHL1    H6 7670   2.132   5.521   7.099  0.6283  0.1326 -0.2181
   71CHL1    C7 7671   2.217   5.405   7.264  0.1822  0.2111 -1.1787
   71CHL1   H7A 7672   2.274   5.490   7.309  0.6792 -0.7326  0.0570
   71CHL1   H7B 7673   2.124   5.406   7.326 -0.1954  2.5120 -1.7003
   71CHL1    C8 7674   2.287   5.275   7.290  0.4477  0.2963  0.7952
   71CHL1    H8 7675   2.382   5.290   7.235 -1.1732  1.3085 -1.8858
   71CHL1   C14 7676   2.286   5.249   7.442 -1.0031  0.0904 -0.6428
   71CHL1   H14 7677   2.184   5.242   7.486 -1.8176  0.0759 -2.4651
   71CHL1   C15 7678   2.365   5.356   7.527  0.1934 -0.2783 -0.0953
   71CHL1  H15A 7679   2.465   5.381   7.484  0.2085  1.9975  1.1047
   71CHL1  H15B 7680   2.316   5.455   7.539 -0.1508 -0.6693  2.1183
   71CHL1   C16 7681   2.389   5.287   7.660  0.3369  0.4755 -0.7816
   71CHL1  H16A 7682   2.497   5.297   7.686  0.0296  1.3423  0.2467
   71CHL1  H16B 7683   2.316   5.320   7.737 -0.6800 -4.1466  0.5407
   71CHL1   C17 7684   2.355   5.134   7.637  0.0963  0.6676 -0.0101
   71CHL1   H17 7685   2.247   5.129   7.662 -0.2108  0.5165 -1.2670
   71CHL1   C13 7686   2.353   5.118   7.486  0.4981  0.7086  0.2043
   71CHL1   C18 7687   2.501   5.116   7.444 -0.2844 -0.0638 -0.5086
   71CHL1  H18A 7688   2.558   5.023   7.465  1.4792  0.6468 -1.9500
   71CHL1  H18B 7689   2.501   5.129   7.334 -0.9974  3.6072 -0.2114
   71CHL1  H18C 7690   2.565   5.195   7.489  3.4961 -3.2968  0.3036
   71CHL1   C12 7691   2.268   5.004   7.421  0.0122 -0.0673 -0.1599
   71CHL1  H12A 7692   2.317   4.905   7.426 -0.2117 -0.1518  0.3322
   71CHL1  H12B 7693   2.163   4.997   7.454  0.0213 -0.6898 -0.2665
   71CHL1   C11 7694   2.265   5.017   7.270 -0.0578  0.3156  0.0390
   71CHL1  H11A 7695   2.368   4.995   7.235  0.4678  0.2216  1.5618
   71CHL1  H11B 7696   2.212   4.924   7.242  2.7283 -1.6453  0.8225
   71CHL1    C9 7697   2.213   5.154   7.219 -0.9193 -0.1281  0.3216
   71CHL1    H9 7698   2.106   5.155   7.249 -1.0890 -2.8268  0.0890
   71CHL1   C10 7699   2.211   5.178   7.061  0.1164  0.1121 -0.1968
   71CHL1   C19 7700   2.347   5.150   7.000  0.8036 -0.0031  0.5415
   71CHL1  H19A 7701   2.359   5.039   7.005 -0.9440 -0.2334  0.2571
   71CHL1  H19B 7702   2.359   5.185   6.896 -2.8435 -2.8070 -1.0518
   71CHL1  H19C 7703   2.431   5.198   7.055  1.3569  1.0373 -1.1554
   71CHL1    C1 7704   2.100   5.085   6.998 -0.3054 -0.6468 -0.7268
   71CHL1   H1A 7705   2.123   4.977   7.011  1.8205 -0.0706  0.8696
   71CHL1   H1B 7706   2.011   5.106   7.061 -0.1296 -1.1622 -0.3029
   71CHL1    C2 7707   2.057   5.116   6.852  0.0414  0.3500 -0.0828
   71CHL1   H2A 7708   1.978   5.043   6.824 -0.0776  0.6184 -0.4537
   71CHL1   H2B 7709   2.144   5.086   6.790  0.0593  0.5565 -0.1576
   71CHL1   C20 7710   2.441   5.043   7.739  0.1223  0.3719  0.0564
   71CHL1   H20 7711   2.547   5.058   7.710 -0.0174 -0.7448 -1.1746
   71CHL1   C21 7712   2.394   4.901   7.737  0.2800 -0.2915 -0.3589
   71CHL1  H21A 7713   2.464   4.826   7.782  0.3392  0.7958  1.4603
   71CHL1  H21B 7714   2.386   4.859   7.634 -0.1225 -1.0774 -0.0171
   71CHL1  H21C 7715   2.295   4.899   7.786  0.6186  0.8536  0.4246
   71CHL1   C22 7716   2.441   5.088   7.894 -0.0607 -0.1183  0.6612
   71CHL1  H22A 7717   2.457   5.198   7.898  0.2543 -0.0396 -1.4920
   71CHL1  H22B 7718   2.339   5.073   7.934  0.0380  0.9305  1.3581
   71CHL1   C23 7719   2.551   5.022   7.980 -0.1946 -0.3459 -0.4478
   71CHL1  H23A 7720   2.522   4.915   7.987 -1.5521 -0.0484 -1.1314
   71CHL1  H23B 7721   2.644   5.033   7.920  0.0617 -0.9135 -0.1615
   71CHL1   C24 7722   2.554   5.081   8.119  0.2015 -0.5227  0.1298
   71CHL1  H24A 7723   2.565   5.190   8.132  0.4866 -0.7515  2.1794
   71CHL1  H24B 7724   2.456   5.046   8.159 -0.0413 -0.7415 -0.6431
   71CHL1   C25 7725   2.666   5.034   8.222  0.1821 -0.0793 -1.2779
   71CHL1   H25 7726   2.763   5.075   8.187  0.3761  0.2116 -0.4450
   71CHL1   C26 7727   2.637   5.085   8.366  0.9004  0.9076  0.3486
   71CHL1  H26A 7728   2.716   5.058   8.440 -1.1812  1.2830  2.8330
   71CHL1  H26B 7729   2.614   5.193   8.367  1.4728  1.1024 -1.6697
   71CHL1  H26C 7730   2.550   5.026   8.402 -0.1104  2.9219  1.3103
   71CHL1   C27 7731   2.689   4.876   8.213 -0.4851 -0.2950  0.1193
   71CHL1  H27A 7732   2.591   4.826   8.232 -1.0039  1.0457  1.1685
   71CHL1  H27B 7733   2.727   4.846   8.114  2.7206  0.3013  1.0667
   71CHL1  H27C 7734   2.759   4.843   8.293  0.0955  1.3892  0.3691
   72CHL1    C3 7735   1.906   0.139   6.960 -0.1548 -0.6770  0.2999
   72CHL1    H3 7736   1.897   0.223   7.033 -0.3238  0.7985 -1.3290
   72CHL1    O3 7737   1.918   0.197   6.827 -0.0086  0.3391  0.0308
   72CHL1   H3' 7738   1.988   0.152   6.778  1.4453  2.8735 -0.3817
   72CHL1    C4 7739   2.034   0.062   6.999  0.8455 -0.1546 -0.2482
   72CHL1   H4A 7740   2.056  -0.014   6.921  0.6328  1.2317 -1.7215
   72CHL1   H4B 7741   2.114   0.138   6.989 -1.0293  1.9279 -0.0706
   72CHL1    C5 7742   2.013   0.016   7.141 -0.6679 -0.0623  0.4519
   72CHL1    C6 7743   2.101   0.063   7.235  0.3520 -0.3684  0.0899
   72CHL1    H6 7744   2.176   0.138   7.209  1.3876 -1.5929 -0.5203
   72CHL1    C7 7745   2.087   0.012   7.378  0.5393 -0.5549 -0.2085
   72CHL1   H7A 7746   2.188  -0.016   7.414  1.5283  1.9966 -0.7210
   72CHL1   H7B 7747   2.068   0.099   7.444  0.8904  2.0596 -3.2615
   72CHL1    C8 7748   1.995  -0.109   7.398  0.3491 -0.4268  0.5519
   72CHL1    H8 7749   2.061  -0.191   7.361  0.9726 -1.4564  3.6486
   72CHL1   C14 7750   1.957  -0.120   7.542 -0.4366  0.6357  0.0063
   72CHL1   H14 7751   1.894  -0.034   7.572 -0.6825  0.3110  0.4431
   72CHL1   C15 7752   2.072  -0.120   7.652 -0.2205 -0.5132 -0.4706
   72CHL1  H15A 7753   2.168  -0.171   7.634 -0.6019 -1.4428  0.0576
   72CHL1  H15B 7754   2.097  -0.013   7.673  1.1661 -0.5663 -1.7468
   72CHL1   C16 7755   2.000  -0.188   7.769 -0.1614 -0.0026 -0.0630
   72CHL1  H16A 7756   2.054  -0.282   7.795 -0.4611 -0.7610 -2.0111
   72CHL1  H16B 7757   1.989  -0.123   7.858 -5.4553 -1.0449  0.3600
   72CHL1   C17 7758   1.864  -0.233   7.725  0.3491  0.1984  0.1183
   72CHL1   H17 7759   1.796  -0.146   7.738  0.0754  0.1605 -0.9272
   72CHL1   C13 7760   1.870  -0.248   7.568 -0.5303 -0.0278 -0.4880
   72CHL1   C18 7761   1.945  -0.387   7.539  0.1401 -0.8035 -0.6667
   72CHL1  H18A 7762   2.046  -0.396   7.585 -0.0180 -1.8635 -0.5014
   72CHL1  H18B 7763   1.880  -0.471   7.570  0.7352 -0.9722  0.1673
   72CHL1  H18C 7764   1.968  -0.405   7.432 -0.1605 -1.2228 -0.6646
   72CHL1   C12 7765   1.740  -0.240   7.492  0.0605 -0.3181 -0.9690
   72CHL1  H12A 7766   1.672  -0.323   7.521  1.1848 -0.4633  1.5368
   72CHL1  H12B 7767   1.681  -0.150   7.516 -1.1434 -1.5315  0.8766
   72CHL1   C11 7768   1.774  -0.223   7.341 -0.3234 -0.4030 -0.9881
   72CHL1  H11A 7769   1.816  -0.322   7.314 -0.0939 -0.1736 -1.4816
   72CHL1  H11B 7770   1.682  -0.201   7.284 -0.9067  0.9156  0.3933
   72CHL1    C9 7771   1.865  -0.105   7.312  0.1324 -0.1261 -1.0641
   72CHL1    H9 7772   1.813  -0.012   7.347  1.6727  0.3025  0.2335
   72CHL1   C10 7773   1.894  -0.078   7.162 -0.8604 -0.3563 -0.8715
   72CHL1   C19 7774   1.932  -0.215   7.100 -0.1555 -0.1845  0.1139
   72CHL1  H19A 7775   2.006  -0.272   7.159  0.1668 -1.3726 -1.3753
   72CHL1  H19B 7776   1.851  -0.287   7.074 -0.2490  0.1733 -0.6255
   72CHL1  H19C 7777   1.976  -0.207   6.999 -0.2631 -0.0737  0.0746
   72CHL1    C1 7778   1.765  -0.006   7.107 -0.8690  0.3517 -0.1157
   72CHL1   H1A 7779   1.677  -0.073   7.110 -0.8147  0.3054  0.4979
   72CHL1   H1B 7780   1.749   0.081   7.175 -3.1164  0.2829 -0.4642
   72CHL1    C2 7781   1.782   0.051   6.965 -0.2052 -0.9102  0.4028
   72CHL1   H2A 7782   1.689   0.100   6.929  0.6767 -0.2631 -1.0285
   72CHL1   H2B 7783   1.786  -0.037   6.898 -3.0518 -0.6278 -0.2777
   72CHL1   C20 7784   1.808  -0.345   7.820  0.0818 -0.2181  0.4704
   72CHL1   H20 7785   1.876  -0.433   7.820 -2.3544 -2.2102  1.0650
   72CHL1   C21 7786   1.668  -0.385   7.770  0.4920  0.3305  0.1997
   72CHL1  H21A 7787   1.614  -0.448   7.844  1.1574  1.9184  2.1166
   72CHL1  H21B 7788   1.681  -0.440   7.675 -1.2419  0.7072 -0.2874
   72CHL1  H21C 7789   1.614  -0.291   7.745 -2.1445 -0.7058  1.5630
   72CHL1   C22 7790   1.800  -0.304   7.969  0.3195 -0.4245 -0.2861
   72CHL1  H22A 7791   1.898  -0.260   7.995  0.3401 -1.6376  2.0181
   72CHL1  H22B 7792   1.714  -0.235   7.980  0.3594 -0.0468 -2.0586
   72CHL1   C23 7793   1.780  -0.413   8.077 -0.2036 -0.7822 -0.4879
   72CHL1  H23A 7794   1.684  -0.467   8.066  0.5016 -2.0745 -0.4761
   72CHL1  H23B 7795   1.850  -0.499   8.072 -0.1078 -0.7669  0.3562
   72CHL1   C24 7796   1.776  -0.350   8.221 -0.6201 -0.5636  0.0965
   72CHL1  H24A 7797   1.876  -0.308   8.247 -0.6904  0.1307 -0.7382
   72CHL1  H24B 7798   1.720  -0.254   8.221  2.3874  1.3586  0.2283
   72CHL1   C25 7799   1.738  -0.435   8.334  0.2481  0.1651  0.3448
   72CHL1   H25 7800   1.646  -0.493   8.312 -0.2330  0.2423  2.0382
   72CHL1   C26 7801   1.848  -0.544   8.353  0.8873 -0.2162  0.2104
   72CHL1  H26A 7802   1.947  -0.497   8.369  0.2123  1.6709 -0.8193
   72CHL1  H26B 7803   1.817  -0.606   8.440 -0.0391  0.0215  0.0615
   72CHL1  H26C 7804   1.853  -0.604   8.260 -2.7951 -0.1149 -0.2115
   72CHL1   C27 7805   1.704  -0.361   8.464 -0.0729 -0.0496  0.4801
   72CHL1  H27A 7806   1.663  -0.424   8.547  1.0520 -0.8361  0.4636
   72CHL1  H27B 7807   1.790  -0.302   8.504  0.9477  1.0225 -2.9764
   72CHL1  H27C 7808   1.626  -0.284   8.447 -0.6532 -0.7542 -0.1148
   73CHL1    C3 7809   3.454   5.066   7.109  0.5046 -0.1689 -0.1959
   73CHL1    H3 7810   3.482   5.173   7.117 -2.2354  0.6815 -0.7385
   73CHL1    O3 7811   3.425   5.034   6.974 -0.1817  0.1271  0.3562
   73CHL1   H3' 7812   3.422   4.938   6.974 -1.0862  0.1380 -0.8250
   73CHL1    C4 7813   3.573   4.969   7.175  0.2624  0.0468  0.5531
   73CHL1   H4A 7814   3.535   4.866   7.155  0.3562  0.4912 -2.3089
   73CHL1   H4B 7815   3.656   4.986   7.104 -0.7624  2.6664 -0.1182
   73CHL1    C5 7816   3.599   4.977   7.321  0.1073 -0.0606 -0.7923
   73CHL1    C6 7817   3.720   5.012   7.365 -0.3560  0.2851  0.3323
   73CHL1    H6 7818   3.797   5.031   7.288 -1.3236 -1.3400 -1.1095
   73CHL1    C7 7819   3.744   5.038   7.506 -0.3469  0.1145 -0.6292
   73CHL1   H7A 7820   3.834   4.982   7.540  0.1552  0.5852 -1.1622
   73CHL1   H7B 7821   3.763   5.145   7.529 -2.7501  0.3742  0.3984
   73CHL1    C8 7822   3.636   4.975   7.596  0.2735 -0.3871 -0.3637
   73CHL1    H8 7823   3.650   4.865   7.589 -2.4034 -0.8264 -0.0156
   73CHL1   C14 7824   3.641   5.021   7.746 -0.1862  0.1214  0.2206
   73CHL1   H14 7825   3.615   5.129   7.743 -1.3329 -0.0873  1.6349
   73CHL1   C15 7826   3.768   5.001   7.821 -0.2725 -0.2768  1.2290
   73CHL1  H15A 7827   3.794   4.897   7.790  1.3155  0.4584 -0.0195
   73CHL1  H15B 7828   3.852   5.066   7.789  0.9857 -2.1400  0.5632
   73CHL1   C16 7829   3.730   4.994   7.974 -0.6505 -0.2179 -0.6587
   73CHL1  H16A 7830   3.764   4.894   8.010  0.5897  0.9319  1.5177
   73CHL1  H16B 7831   3.775   5.075   8.035 -1.1365 -0.9343  0.6771
   73CHL1   C17 7832   3.575   5.022   7.977 -0.0371 -0.3111  0.0766
   73CHL1   H17 7833   3.566   5.133   7.975  0.4387 -0.2523 -2.4277
   73CHL1   C13 7834   3.527   4.971   7.843 -0.4525  0.6774  0.6192
   73CHL1   C18 7835   3.522   4.815   7.832 -0.6386 -0.4165 -0.0635
   73CHL1  H18A 7836   3.494   4.777   7.732 -1.6670 -1.8473  0.7184
   73CHL1  H18B 7837   3.621   4.768   7.850 -0.4187 -0.7622 -2.0032
   73CHL1  H18C 7838   3.457   4.759   7.903 -1.1432  2.0375  1.5152
   73CHL1   C12 7839   3.397   5.033   7.792  0.2245  0.5024 -0.4400
   73CHL1  H12A 7840   3.308   4.994   7.845 -0.5017 -0.1184 -2.0745
   73CHL1  H12B 7841   3.414   5.141   7.812 -0.0724  0.2726  1.1908
   73CHL1   C11 7842   3.370   4.993   7.641  0.7442 -0.1368 -0.4877
   73CHL1  H11A 7843   3.329   4.889   7.645  0.4318 -0.0405 -1.0137
   73CHL1  H11B 7844   3.291   5.065   7.610  0.8238  1.1985  2.1995
   73CHL1    C9 7845   3.493   5.015   7.545  0.1556  0.3749 -0.0621
   73CHL1    H9 7846   3.503   5.125   7.534 -1.2002  0.4468 -0.7586
   73CHL1   C10 7847   3.465   4.966   7.401 -0.3029 -0.3916 -0.0357
   73CHL1   C19 7848   3.430   4.813   7.409  0.2460 -0.2806 -0.6743
   73CHL1  H19A 7849   3.404   4.777   7.308 -1.9775  0.4853 -0.4214
   73CHL1  H19B 7850   3.498   4.748   7.468 -0.0959 -0.6231 -0.6519
   73CHL1  H19C 7851   3.330   4.798   7.456  0.4541 -2.2414 -0.7837
   73CHL1    C1 7852   3.342   5.042   7.336  0.1671  0.0197 -0.6243
   73CHL1   H1A 7853   3.249   5.001   7.380  0.9721 -1.1713  0.0063
   73CHL1   H1B 7854   3.356   5.150   7.360 -1.0483 -0.1465  0.9951
   73CHL1    C2 7855   3.316   5.037   7.183 -0.9594 -0.3084 -0.2313
   73CHL1   H2A 7856   3.234   5.105   7.151  0.8676  0.7969 -2.8973
   73CHL1   H2B 7857   3.271   4.938   7.157 -1.4002 -0.2459  0.2894
   73CHL1   C20 7858   3.502   4.970   8.101 -0.1896  0.6063 -0.3601
   73CHL1   H20 7859   3.496   4.859   8.096  0.3857  0.4556  1.6319
   73CHL1   C21 7860   3.364   5.033   8.127 -0.1413 -0.0315  0.5150
   73CHL1  H21A 7861   3.296   4.976   8.060  0.1631 -1.9267  1.7301
   73CHL1  H21B 7862   3.355   5.142   8.106  2.3547  0.3745  1.2068
   73CHL1  H21C 7863   3.326   5.011   8.230  0.8276 -0.7440  0.7347
   73CHL1   C22 7864   3.572   5.007   8.237 -0.8769  0.2159  0.5961
   73CHL1  H22A 7865   3.680   4.985   8.220 -0.9236 -0.4045  1.0638
   73CHL1  H22B 7866   3.560   5.117   8.248  1.1521  0.5594 -0.0572
   73CHL1   C23 7867   3.537   4.926   8.364 -0.3598 -0.5396  0.3929
   73CHL1  H23A 7868   3.430   4.945   8.390 -0.0071  0.3632  1.2615
   73CHL1  H23B 7869   3.551   4.818   8.344  1.4060 -0.3513  0.5041
   73CHL1   C24 7870   3.621   4.978   8.479 -0.3624 -0.0336  0.4700
   73CHL1  H24A 7871   3.726   4.947   8.461 -0.9562 -1.3844 -0.9158
   73CHL1  H24B 7872   3.620   5.089   8.471  1.1881 -0.0207  0.0088
   73CHL1   C25 7873   3.582   4.919   8.619  0.7757  0.0802 -0.7044
   73CHL1   H25 7874   3.472   4.925   8.622  0.6134 -1.5487 -1.8262
   73CHL1   C26 7875   3.622   4.761   8.634  0.3507 -0.3363  0.5010
   73CHL1  H26A 7876   3.714   4.760   8.695 -0.6217  3.8384  2.3782
   73CHL1  H26B 7877   3.547   4.699   8.687 -0.7117 -0.5272 -1.1460
   73CHL1  H26C 7878   3.642   4.715   8.535  2.3023 -0.9809  1.1658
   73CHL1   C27 7879   3.658   4.999   8.727  0.0922 -0.0264  0.5984
   73CHL1  H27A 7880   3.766   4.997   8.702  0.2937  2.6133  0.9441
   73CHL1  H27B 7881   3.615   5.101   8.727 -0.6686 -0.2252 -3.0111
   73CHL1  H27C 7882   3.636   4.959   8.829 -0.2207  3.2052  1.9162
   74CHL1    C3 7883   1.800   3.469   6.982 -0.2046  0.7742 -0.5275
   74CHL1    H3 7884   1.909   3.478   7.004  0.5677 -3.2283 -1.9760
   74CHL1    O3 7885   1.795   3.436   6.841 -0.0144 -0.1884 -0.0611
   74CHL1   H3' 7886   1.784   3.520   6.796 -0.5339  0.4441  1.1893
   74CHL1    C4 7887   1.731   3.359   7.069 -0.4792  0.0127  0.5449
   74CHL1   H4A 7888   1.631   3.334   7.029 -0.2676  0.4779 -0.3112
   74CHL1   H4B 7889   1.797   3.271   7.049  1.3343  0.5099  3.7109
   74CHL1    C5 7890   1.719   3.381   7.219  0.0596 -0.3282  0.4130
   74CHL1    C6 7891   1.777   3.302   7.307 -0.0741  0.1784  0.5905
   74CHL1    H6 7892   1.843   3.221   7.270 -0.0961  0.7384 -0.7210
   74CHL1    C7 7893   1.774   3.329   7.456  0.3608 -0.0656  0.4590
   74CHL1   H7A 7894   1.738   3.239   7.509 -4.4782  1.3564  0.0505
   74CHL1   H7B 7895   1.874   3.352   7.500  0.8414 -1.0482 -0.0624
   74CHL1    C8 7896   1.659   3.436   7.487 -0.3324  0.5072 -0.5293
   74CHL1    H8 7897   1.556   3.396   7.471 -0.3284  0.2060  0.1444
   74CHL1   C14 7898   1.667   3.464   7.637  0.1750  0.2403  0.0585
   74CHL1   H14 7899   1.768   3.510   7.649  0.0597  0.1469  1.5095
   74CHL1   C15 7900   1.667   3.355   7.746  0.0627 -0.2165  0.5756
   74CHL1  H15A 7901   1.569   3.303   7.743  0.7286 -1.5261  0.8344
   74CHL1  H15B 7902   1.739   3.271   7.733  0.3222 -0.3207  2.4689
   74CHL1   C16 7903   1.655   3.439   7.876  0.1794 -0.0091 -0.0639
   74CHL1  H16A 7904   1.593   3.385   7.950  0.8235 -0.1267  0.3937
   74CHL1  H16B 7905   1.750   3.444   7.933  0.1043  0.6912  0.0041
   74CHL1   C17 7906   1.622   3.586   7.836  0.5214 -0.6162 -0.0136
   74CHL1   H17 7907   1.723   3.631   7.831  0.2041  0.0450 -0.6029
   74CHL1   C13 7908   1.575   3.577   7.685 -0.6638 -0.2515 -0.0247
   74CHL1   C18 7909   1.429   3.531   7.686 -0.7083 -0.6960 -0.5460
   74CHL1  H18A 7910   1.394   3.512   7.582  0.7146 -1.4792 -0.9117
   74CHL1  H18B 7911   1.414   3.445   7.754  2.5458  0.5131  1.9827
   74CHL1  H18C 7912   1.359   3.610   7.722 -1.5842 -1.7093  0.0076
   74CHL1   C12 7913   1.603   3.706   7.596 -0.1927  0.0487 -0.9688
   74CHL1  H12A 7914   1.532   3.788   7.618 -2.8592 -1.8528 -1.9271
   74CHL1  H12B 7915   1.708   3.734   7.618 -0.4704  2.5191 -2.4224
   74CHL1   C11 7916   1.593   3.676   7.441 -0.9451  0.1772  0.8149
   74CHL1  H11A 7917   1.489   3.640   7.425 -0.6898  0.0254 -0.6131
   74CHL1  H11B 7918   1.611   3.771   7.385  0.7375 -0.6081 -0.0359
   74CHL1    C9 7919   1.679   3.558   7.403  0.1507 -0.2231  0.1435
   74CHL1    H9 7920   1.783   3.591   7.423  0.3419  0.7163 -2.1778
   74CHL1   C10 7921   1.658   3.524   7.247  0.2561 -0.2497  0.2626
   74CHL1   C19 7922   1.505   3.518   7.214 -0.9055 -0.5896 -0.4131
   74CHL1  H19A 7923   1.476   3.624   7.232 -0.6926 -0.6667  0.4417
   74CHL1  H19B 7924   1.486   3.492   7.108 -1.9330 -0.5966 -0.2373
   74CHL1  H19C 7925   1.442   3.452   7.277 -1.7676  0.0845 -0.5503
   74CHL1    C1 7926   1.735   3.641   7.162  0.3935  0.0040  0.1362
   74CHL1   H1A 7927   1.675   3.734   7.175  0.6220  0.1170  0.4033
   74CHL1   H1B 7928   1.839   3.651   7.200  0.1052  1.7110  0.6028
   74CHL1    C2 7929   1.741   3.617   7.013  0.3919  0.3393  0.0925
   74CHL1   H2A 7930   1.807   3.689   6.960  0.2920 -1.3935 -2.5593
   74CHL1   H2B 7931   1.637   3.619   6.974  0.5131  1.2385 -0.2011
   74CHL1   C20 7932   1.542   3.664   7.946 -0.0949  0.2573 -0.0237
   74CHL1   H20 7933   1.452   3.604   7.972 -0.9067  1.7418  0.7097
   74CHL1   C21 7934   1.496   3.806   7.901  0.2677  0.5150 -0.1378
   74CHL1  H21A 7935   1.584   3.872   7.887  0.4173  0.4400  0.4382
   74CHL1  H21B 7936   1.437   3.836   7.991  1.1298 -0.1130  0.6489
   74CHL1  H21C 7937   1.426   3.796   7.815  1.4950  0.5066 -1.1677
   74CHL1   C22 7938   1.626   3.670   8.077 -0.3972  0.2072  0.1938
   74CHL1  H22A 7939   1.664   3.567   8.089 -2.3790 -0.9742 -2.5649
   74CHL1  H22B 7940   1.717   3.733   8.066 -0.3225  0.3438  1.4356
   74CHL1   C23 7941   1.560   3.708   8.206 -0.1384  0.6477  0.7563
   74CHL1  H23A 7942   1.538   3.817   8.216  1.9626  1.4821 -2.3120
   74CHL1  H23B 7943   1.463   3.656   8.193  0.4870 -0.2495 -0.4025
   74CHL1   C24 7944   1.641   3.679   8.333 -0.4565 -0.2112  0.5443
   74CHL1  H24A 7945   1.693   3.581   8.322  0.4608  0.4478 -1.2758
   74CHL1  H24B 7946   1.706   3.765   8.359 -0.5335  0.3985 -1.1862
   74CHL1   C25 7947   1.548   3.660   8.453  0.5949  0.1332  0.1418
   74CHL1   H25 7948   1.470   3.738   8.443 -0.2280 -0.7129 -0.1013
   74CHL1   C26 7949   1.467   3.530   8.455 -0.6933 -0.1261 -0.1600
   74CHL1  H26A 7950   1.534   3.445   8.475  2.3751  2.1254 -0.1760
   74CHL1  H26B 7951   1.392   3.543   8.536 -1.8207  1.4482 -1.3725
   74CHL1  H26C 7952   1.413   3.518   8.358 -0.7172 -0.8603 -0.0593
   74CHL1   C27 7953   1.634   3.683   8.583  0.0667  0.4981  0.7002
   74CHL1  H27A 7954   1.580   3.671   8.679  1.4852 -1.5714  1.3175
   74CHL1  H27B 7955   1.730   3.627   8.575 -0.7326 -0.7573 -0.7508
   74CHL1  H27C 7956   1.664   3.790   8.577  1.4352  0.0488 -1.9526
   75CHL1    C3 7957   0.171   2.236   6.885 -0.6022 -0.6398  0.1638
   75CHL1    H3 7958   0.222   2.334   6.893  0.7119 -1.3395  0.7343
   75CHL1    O3 7959   0.185   2.187   6.754  0.0265 -0.1161  0.5602
   75CHL1   H3' 7960   0.202   2.258   6.692  1.7605 -0.1208  0.9788
   75CHL1    C4 7961   0.230   2.142   6.988 -0.2291  0.0529  0.3080
   75CHL1   H4A 7962   0.193   2.039   6.969 -0.7290  0.5470 -1.5699
   75CHL1   H4B 7963   0.340   2.136   6.974 -0.2476 -2.7704  0.6476
   75CHL1    C5 7964   0.195   2.205   7.127  0.0359  0.1201 -0.1808
   75CHL1    C6 7965   0.286   2.233   7.222  0.4660  0.1639  0.1278
   75CHL1    H6 7966   0.391   2.204   7.208 -0.2643 -2.7076 -0.0085
   75CHL1    C7 7967   0.255   2.283   7.361  0.6123 -0.4183 -0.1713
   75CHL1   H7A 7968   0.309   2.231   7.444 -0.1935  4.7603  4.1525
   75CHL1   H7B 7969   0.297   2.385   7.372 -1.1149  0.2057  1.2363
   75CHL1    C8 7970   0.103   2.271   7.396  0.2535 -0.4424 -0.2986
   75CHL1    H8 7971   0.075   2.166   7.422  0.5650  0.3064  3.6273
   75CHL1   C14 7972   0.076   2.351   7.522 -0.3302 -0.4074  0.0351
   75CHL1   H14 7973   0.119   2.450   7.498  1.2184 -0.6541  1.6491
   75CHL1   C15 7974   0.152   2.326   7.659  0.1886 -0.3789  0.0937
   75CHL1  H15A 7975   0.139   2.217   7.677 -0.1797 -0.5617 -1.1586
   75CHL1  H15B 7976   0.259   2.356   7.659 -0.4537  2.2804  1.8771
   75CHL1   C16 7977   0.064   2.401   7.762 -0.2469  0.1946  0.0067
   75CHL1  H16A 7978   0.062   2.342   7.857 -0.9895  0.4229  0.1394
   75CHL1  H16B 7979   0.114   2.497   7.786 -1.1256  0.9238 -0.9969
   75CHL1   C17 7980  -0.062   2.446   7.694  0.0126 -1.1847 -0.0461
   75CHL1   H17 7981  -0.037   2.551   7.668 -0.6822 -0.9336  0.2820
   75CHL1   C13 7982  -0.064   2.371   7.564  0.8596 -0.7822  0.3538
   75CHL1   C18 7983  -0.124   2.235   7.594 -0.3280  0.4117 -0.0786
   75CHL1  H18A 7984  -0.074   2.174   7.673  0.9718 -1.5572 -2.2849
   75CHL1  H18B 7985  -0.232   2.228   7.619 -0.8983  0.3881 -2.3310
   75CHL1  H18C 7986  -0.123   2.169   7.505  1.5533 -2.5038  1.9249
   75CHL1   C12 7987  -0.148   2.442   7.452 -0.0149  0.1723 -0.5179
   75CHL1  H12A 7988  -0.256   2.450   7.478 -0.2497 -0.7932 -1.1449
   75CHL1  H12B 7989  -0.110   2.546   7.450 -2.6940  1.2628  0.6569
   75CHL1   C11 7990  -0.119   2.363   7.318  0.4173 -0.0392  0.5084
   75CHL1  H11A 7991  -0.185   2.276   7.300  0.5217  0.0489 -0.3212
   75CHL1  H11B 7992  -0.158   2.436   7.243  1.4465  0.0279  0.0237
   75CHL1    C9 7993   0.028   2.329   7.284 -0.3213 -0.3346  0.5310
   75CHL1    H9 7994   0.076   2.427   7.262 -0.8314  0.3963  2.4736
   75CHL1   C10 7995   0.047   2.236   7.154  0.3791 -0.1373 -0.2413
   75CHL1   C19 7996  -0.024   2.096   7.161 -0.2066 -0.4523 -0.1520
   75CHL1  H19A 7997  -0.003   2.033   7.072 -1.3313  0.2393 -0.9342
   75CHL1  H19B 7998  -0.002   2.040   7.255  0.6654 -1.5865 -0.9951
   75CHL1  H19C 7999  -0.134   2.108   7.167 -0.2719 -1.2867  0.6014
   75CHL1    C1 8000  -0.004   2.321   7.036 -0.8152 -0.1688  0.0412
   75CHL1   H1A 8001  -0.114   2.336   7.036 -1.0323 -1.6055  0.7372
   75CHL1   H1B 8002   0.035   2.424   7.048 -1.6027  0.1133  0.2671
   75CHL1    C2 8003   0.021   2.261   6.900  0.4679 -0.2088  0.3223
   75CHL1   H2A 8004  -0.021   2.332   6.826 -0.1789 -1.0666 -0.1531
   75CHL1   H2B 8005  -0.033   2.164   6.900 -0.6467  0.3779  1.2770
   75CHL1   C20 8006  -0.194   2.444   7.778 -0.9959  0.2921  0.8065
   75CHL1   H20 8007  -0.278   2.420   7.710 -0.6339  0.0245  0.4451
   75CHL1   C21 8008  -0.235   2.581   7.841 -1.0033  0.1741  0.6701
   75CHL1  H21A 8009  -0.231   2.663   7.765  0.8943 -2.1958 -2.0054
   75CHL1  H21B 8010  -0.170   2.606   7.928  2.3334 -1.8908 -1.0545
   75CHL1  H21C 8011  -0.338   2.569   7.882 -0.8407  2.4638  1.9319
   75CHL1   C22 8012  -0.201   2.339   7.890  0.4190 -0.0744  0.1694
   75CHL1  H22A 8013  -0.159   2.243   7.852 -0.7944  0.4137 -2.6716
   75CHL1  H22B 8014  -0.157   2.366   7.988 -0.6935  1.6617  0.2230
   75CHL1   C23 8015  -0.353   2.300   7.916 -0.2981  0.0660  0.2446
   75CHL1  H23A 8016  -0.415   2.390   7.934 -0.4213 -0.3147  1.9922
   75CHL1  H23B 8017  -0.408   2.265   7.827 -0.3001  1.8478 -0.4896
   75CHL1   C24 8018  -0.378   2.212   8.041 -0.0877  0.8344  0.5106
   75CHL1  H24A 8019  -0.487   2.204   8.062 -0.7306 -0.1027 -2.6135
   75CHL1  H24B 8020  -0.356   2.104   8.023  0.3127  1.2370 -1.7400
   75CHL1   C25 8021  -0.305   2.266   8.169 -1.3698  0.4261 -0.1255
   75CHL1   H25 8022  -0.195   2.274   8.150 -0.9607 -1.4699  1.1894
   75CHL1   C26 8023  -0.355   2.403   8.214  0.3945 -0.5274 -0.2772
   75CHL1  H26A 8024  -0.349   2.477   8.131 -0.6878 -1.3457 -1.1076
   75CHL1  H26B 8025  -0.459   2.384   8.246  0.9135 -0.0756  1.8423
   75CHL1  H26C 8026  -0.288   2.426   8.300  0.6588 -0.4114 -0.5122
   75CHL1   C27 8027  -0.326   2.156   8.276 -0.5123 -0.5327  0.5269
   75CHL1  H27A 8028  -0.302   2.055   8.237  0.5497  0.1383 -0.6358
   75CHL1  H27B 8029  -0.263   2.184   8.363  1.7565 -0.8140 -0.9215
   75CHL1  H27C 8030  -0.433   2.147   8.302 -0.6013  1.3438  0.9256
   76CHL1    C3 8031   3.333   0.017   7.388 -0.7089 -0.4555  0.2264
   76CHL1    H3 8032   3.253   0.085   7.425 -1.5099 -1.3966  0.2654
   76CHL1    O3 8033   3.301  -0.004   7.250  0.1311  0.0986 -0.2453
   76CHL1   H3' 8034   3.355  -0.079   7.224  0.9034  0.9826 -1.3352
   76CHL1    C4 8035   3.468   0.084   7.425  0.1766  0.5206  0.4430
   76CHL1   H4A 8036   3.552   0.023   7.387 -1.3451 -0.9179 -0.7200
   76CHL1   H4B 8037   3.474   0.179   7.367 -0.7094  0.3428  0.0392
   76CHL1    C5 8038   3.498   0.090   7.571  0.2696 -0.3305 -0.4771
   76CHL1    C6 8039   3.523   0.215   7.624  0.7336  0.3284 -0.0483
   76CHL1    H6 8040   3.526   0.303   7.557  1.1835  0.9940  0.8143
   76CHL1    C7 8041   3.551   0.247   7.766  0.1373 -0.1184  0.3142
   76CHL1   H7A 8042   3.631   0.323   7.779  0.0305 -0.0919  0.8497
   76CHL1   H7B 8043   3.457   0.274   7.818 -2.0648 -0.8161 -3.0327
   76CHL1    C8 8044   3.591   0.112   7.836  0.8343  0.2395 -0.4885
   76CHL1    H8 8045   3.691   0.074   7.805  1.3831  1.0896  0.1862
   76CHL1   C14 8046   3.596   0.144   7.983  0.2718 -0.3570 -0.3160
   76CHL1   H14 8047   3.495   0.176   8.017  1.7082  2.6122  1.5163
   76CHL1   C15 8048   3.693   0.249   8.032 -0.2359  0.6533 -0.1435
   76CHL1  H15A 8049   3.790   0.239   7.978 -0.0647 -2.1200  0.5128
   76CHL1  H15B 8050   3.665   0.355   8.016 -0.7662  0.5248 -0.0791
   76CHL1   C16 8051   3.713   0.226   8.183 -0.2081  0.7262 -0.1464
   76CHL1  H16A 8052   3.818   0.213   8.216  1.0630  2.4191 -3.0621
   76CHL1  H16B 8053   3.655   0.310   8.228 -1.0511  0.6151 -0.9925
   76CHL1   C17 8054   3.632   0.093   8.217 -0.7595  0.8279  0.1372
   76CHL1   H17 8055   3.531   0.126   8.249  0.0611  1.3480  2.3355
   76CHL1   C13 8056   3.621   0.022   8.073  0.1023  0.2883  0.0547
   76CHL1   C18 8057   3.757  -0.042   8.045  0.7071  0.7432 -1.0243
   76CHL1  H18A 8058   3.776  -0.124   8.119 -1.9508  1.8588  1.0503
   76CHL1  H18B 8059   3.753  -0.078   7.940 -3.1804 -1.5744 -0.2733
   76CHL1  H18C 8060   3.841   0.030   8.061  1.3666 -0.3532  0.8548
   76CHL1   C12 8061   3.513  -0.077   8.055 -0.2503  0.5256 -0.8866
   76CHL1  H12A 8062   3.548  -0.165   8.114  1.2639  2.8296  1.9118
   76CHL1  H12B 8063   3.417  -0.035   8.091 -1.0102 -1.8396  0.0558
   76CHL1   C11 8064   3.497  -0.120   7.902 -0.1625 -0.3594  0.3832
   76CHL1  H11A 8065   3.575  -0.193   7.871 -1.1567 -2.1167  1.8509
   76CHL1  H11B 8066   3.403  -0.177   7.887  0.8892 -1.8364 -0.8247
   76CHL1    C9 8067   3.491   0.005   7.807 -0.0846 -0.3316 -0.0122
   76CHL1    H9 8068   3.395   0.046   7.843  0.1866 -0.5092  0.9477
   76CHL1   C10 8069   3.485  -0.039   7.654  0.6396 -0.8769  0.4786
   76CHL1   C19 8070   3.608  -0.126   7.625 -0.1055  0.4796  0.6600
   76CHL1  H19A 8071   3.706  -0.078   7.646  0.4239 -1.1312  2.0685
   76CHL1  H19B 8072   3.610  -0.221   7.681  0.3106  0.9653  1.4847
   76CHL1  H19C 8073   3.601  -0.163   7.520  0.8364  1.0104  0.3994
   76CHL1    C1 8074   3.348  -0.102   7.604  0.4013 -0.3308  0.3101
   76CHL1   H1A 8075   3.328  -0.202   7.648 -1.2233 -0.5694 -0.8724
   76CHL1   H1B 8076   3.270  -0.038   7.653  0.6081 -1.3779  2.0842
   76CHL1    C2 8077   3.318  -0.115   7.451  0.6851  0.0445  0.3194
   76CHL1   H2A 8078   3.215  -0.148   7.427  0.4959  0.6171  0.3424
   76CHL1   H2B 8079   3.380  -0.199   7.413 -1.3868 -0.6417 -1.7223
   76CHL1   C20 8080   3.697   0.017   8.338  0.0619 -1.4889 -1.0182
   76CHL1   H20 8081   3.784  -0.047   8.310 -0.1667 -2.2516 -0.0534
   76CHL1   C21 8082   3.596  -0.080   8.401 -0.1505  0.0972  0.6942
   76CHL1  H21A 8083   3.502  -0.038   8.444 -0.5799  0.0764 -0.1942
   76CHL1  H21B 8084   3.644  -0.125   8.490  2.5954  2.1529  0.3726
   76CHL1  H21C 8085   3.565  -0.153   8.324  0.4073  0.6603 -0.0853
   76CHL1   C22 8086   3.735   0.117   8.452  0.0070 -0.5124 -0.1619
   76CHL1  H22A 8087   3.780   0.054   8.532 -1.2852  0.3776  1.3095
   76CHL1  H22B 8088   3.816   0.193   8.437 -0.0869  0.4537  3.2679
   76CHL1   C23 8089   3.613   0.199   8.505 -0.2775  0.7434 -0.3159
   76CHL1  H23A 8090   3.567   0.260   8.425  1.3729  0.8452 -1.2395
   76CHL1  H23B 8091   3.537   0.132   8.549  1.0139 -1.5848 -1.4805
   76CHL1   C24 8092   3.668   0.288   8.622  0.4373  0.8203  0.3435
   76CHL1  H24A 8093   3.708   0.230   8.708  0.9454  0.2456 -0.2713
   76CHL1  H24B 8094   3.747   0.353   8.581  0.7992 -0.8875 -1.8540
   76CHL1   C25 8095   3.572   0.387   8.690  1.3007 -0.0071 -0.1425
   76CHL1   H25 8096   3.630   0.428   8.775  1.1502 -1.3787  0.6554
   76CHL1   C26 8097   3.553   0.504   8.603 -0.5663 -0.5254 -0.4632
   76CHL1  H26A 8098   3.466   0.572   8.623 -0.7105 -0.1399 -2.2277
   76CHL1  H26B 8099   3.648   0.562   8.612  0.3006 -1.8189 -1.1411
   76CHL1  H26C 8100   3.545   0.458   8.502 -1.3380  0.3884 -0.8410
   76CHL1   C27 8101   3.437   0.334   8.737  0.5113  0.2732 -0.0644
   76CHL1  H27A 8102   3.373   0.415   8.779  0.4324 -0.8553  2.1407
   76CHL1  H27B 8103   3.385   0.285   8.651 -2.6557  1.3867  1.0705
   76CHL1  H27C 8104   3.445   0.254   8.813  0.9520 -0.3090 -0.7113
   77CHL1    C3 8105   3.938   5.300   6.953  0.5656 -0.0809 -0.3978
   77CHL1    H3 8106   3.854   5.346   7.010  0.1278  2.3032 -2.7464
   77CHL1    O3 8107   3.902   5.296   6.814  0.2693 -0.1938 -0.1243
   77CHL1   H3' 8108   3.829   5.234   6.814 -0.0297  0.1186 -2.1374
   77CHL1    C4 8109   4.062   5.392   6.973 -0.7322 -0.4283  0.4143
   77CHL1   H4A 8110   4.134   5.345   6.902 -2.5922 -3.2674  0.2395
   77CHL1   H4B 8111   4.030   5.491   6.932 -0.5199 -1.1586 -1.6602
   77CHL1    C5 8112   4.095   5.396   7.122  0.0115 -0.1025  0.0944
   77CHL1    C6 8113   4.101   5.507   7.192 -0.4308 -0.7945 -0.3732
   77CHL1    H6 8114   4.092   5.601   7.135  0.0409 -0.9583 -0.7221
   77CHL1    C7 8115   4.129   5.514   7.337  0.6192  0.1391  0.3569
   77CHL1   H7A 8116   4.197   5.599   7.358  1.1177 -0.3634  0.8003
   77CHL1   H7B 8117   4.032   5.533   7.388  0.2985 -2.0367  0.6795
   77CHL1    C8 8118   4.186   5.386   7.395 -0.0722 -0.3973 -0.0302
   77CHL1    H8 8119   4.292   5.373   7.365 -0.1358 -0.3277 -0.2826
   77CHL1   C14 8120   4.175   5.396   7.546  0.3468 -0.0127  0.9007
   77CHL1   H14 8121   4.068   5.405   7.574  0.7895 -0.5729  2.9496
   77CHL1   C15 8122   4.238   5.519   7.616  0.4359 -0.1679  1.0232
   77CHL1  H15A 8123   4.344   5.522   7.584  0.5592  0.0806  1.4444
   77CHL1  H15B 8124   4.191   5.617   7.598  0.8277  0.5016  3.3269
   77CHL1   C16 8125   4.229   5.478   7.764 -0.7395 -0.0721  0.9159
   77CHL1  H16A 8126   4.330   5.493   7.807  0.5051 -0.6409 -1.6471
   77CHL1  H16B 8127   4.153   5.544   7.811  0.5967  2.4762 -0.3061
   77CHL1   C17 8128   4.189   5.327   7.770  0.3761  0.2993 -0.3193
   77CHL1   H17 8129   4.081   5.312   7.788  0.7477  1.1720  3.7105
   77CHL1   C13 8130   4.215   5.277   7.626 -0.1407 -0.0813 -0.2395
   77CHL1   C18 8131   4.369   5.250   7.613 -0.1845  0.1912  0.4896
   77CHL1  H18A 8132   4.420   5.328   7.673  1.4446 -0.6639  0.2715
   77CHL1  H18B 8133   4.382   5.151   7.661 -0.8104 -1.5830 -2.7028
   77CHL1  H18C 8134   4.406   5.245   7.509  0.1317 -1.2160  0.6536
   77CHL1   C12 8135   4.127   5.159   7.580 -0.3407  0.3610 -0.9957
   77CHL1  H12A 8136   4.168   5.068   7.629  2.0474  1.0122 -1.6344
   77CHL1  H12B 8137   4.019   5.173   7.604 -0.4324 -0.3193 -0.9890
   77CHL1   C11 8138   4.141   5.143   7.428 -0.3095 -0.0358  0.5179
   77CHL1  H11A 8139   4.247   5.122   7.403  0.1486  0.9451  1.5115
   77CHL1  H11B 8140   4.082   5.059   7.387  1.1680 -0.7400 -0.2487
   77CHL1    C9 8141   4.098   5.267   7.342  0.3760  0.0751  0.0683
   77CHL1    H9 8142   3.993   5.295   7.366  0.3298 -0.3953  0.4374
   77CHL1   C10 8143   4.101   5.257   7.195 -0.1074  0.1997  0.3320
   77CHL1   C19 8144   4.241   5.200   7.146 -0.1523  0.0079 -0.3819
   77CHL1  H19A 8145   4.240   5.190   7.035  1.2514 -0.9363 -0.3248
   77CHL1  H19B 8146   4.320   5.273   7.174 -0.3154  0.5785 -1.3265
   77CHL1  H19C 8147   4.265   5.105   7.197  0.2112 -0.0475 -0.6513
   77CHL1    C1 8148   3.976   5.164   7.163 -0.0308 -0.1801  0.5579
   77CHL1   H1A 8149   3.990   5.057   7.189  0.2171 -0.7173 -1.6235
   77CHL1   H1B 8150   3.879   5.201   7.204 -0.3205 -0.3183 -0.0036
   77CHL1    C2 8151   3.954   5.162   7.012  0.0342  0.4385  0.6384
   77CHL1   H2A 8152   3.868   5.094   6.994 -0.4475  0.6244  2.0757
   77CHL1   H2B 8153   4.034   5.109   6.958 -2.1107 -0.8282 -1.5081
   77CHL1   C20 8154   4.258   5.257   7.888 -0.6910  0.3129  0.1421
   77CHL1   H20 8155   4.366   5.242   7.869 -1.3529 -1.5014 -3.0245
   77CHL1   C21 8156   4.196   5.118   7.916 -0.2153  0.1739 -0.3163
   77CHL1  H21A 8157   4.086   5.129   7.920 -0.1909  0.5912 -0.7196
   77CHL1  H21B 8158   4.237   5.079   8.012  1.0177  2.3063  0.0961
   77CHL1  H21C 8159   4.219   5.045   7.836  2.4504  0.5450  0.0203
   77CHL1   C22 8160   4.242   5.343   8.019  0.2548 -0.2314  0.0722
   77CHL1  H22A 8161   4.300   5.283   8.092 -0.0813 -1.2111 -0.4538
   77CHL1  H22B 8162   4.297   5.440   8.015  1.4382 -0.6837  2.7649
   77CHL1   C23 8163   4.096   5.363   8.059  0.1164 -1.0768 -0.0798
   77CHL1  H23A 8164   4.042   5.408   7.973  1.1358 -2.2053 -1.3645
   77CHL1  H23B 8165   4.042   5.270   8.085 -0.9301  0.2660  3.0047
   77CHL1   C24 8166   4.088   5.464   8.175  0.0805  0.8914 -0.0389
   77CHL1  H24A 8167   4.137   5.559   8.143  0.5204  0.6429 -0.1136
   77CHL1  H24B 8168   3.982   5.491   8.189 -0.3559 -0.2453 -0.9662
   77CHL1   C25 8169   4.160   5.412   8.305  0.2250 -0.0643  0.2829
   77CHL1   H25 8170   4.269   5.409   8.283 -0.0600  0.2349 -1.3620
   77CHL1   C26 8171   4.136   5.498   8.425 -0.2962  0.2117 -0.0498
   77CHL1  H26A 8172   4.167   5.602   8.400  1.9165 -0.5088 -0.4518
   77CHL1  H26B 8173   4.027   5.499   8.449  0.0169  0.8205  1.4713
   77CHL1  H26C 8174   4.200   5.469   8.511  0.8801  0.5410 -0.8028
   77CHL1   C27 8175   4.129   5.263   8.335 -0.1052 -0.7955  0.0145
   77CHL1  H27A 8176   4.020   5.244   8.321 -0.2611 -0.4264  0.6758
   77CHL1  H27B 8177   4.174   5.200   8.256 -0.9666  0.6171 -1.6709
   77CHL1  H27C 8178   4.153   5.228   8.438 -0.0606 -3.3545 -0.7923
   78CHL1    C3 8179   0.869   0.089   6.780  0.4191 -0.5318  0.4625
   78CHL1    H3 8180   0.795   0.008   6.773 -0.2195 -0.0708  1.5414
   78CHL1    O3 8181   0.913   0.119   6.646  0.7263 -0.4227  0.5091
   78CHL1   H3' 8182   0.963   0.198   6.664 -0.8663  0.4505  1.3560
   78CHL1    C4 8183   0.805   0.218   6.838  0.5648 -0.1817 -0.3648
   78CHL1   H4A 8184   0.882   0.298   6.831 -0.0529  0.4656  0.0421
   78CHL1   H4B 8185   0.726   0.254   6.768  2.3337  3.1636 -0.8433
   78CHL1    C5 8186   0.761   0.183   6.984  0.1359 -0.3260  0.6131
   78CHL1    C6 8187   0.634   0.205   7.022  0.3434 -0.4977 -0.5086
   78CHL1    H6 8188   0.559   0.240   6.949  1.4969  0.1187 -1.4258
   78CHL1    C7 8189   0.580   0.168   7.155  0.6787 -0.5012 -0.0513
   78CHL1   H7A 8190   0.504   0.240   7.193  1.8966  0.4797  0.6331
   78CHL1   H7B 8191   0.537   0.066   7.143  1.7212 -0.9247 -0.3266
   78CHL1    C8 8192   0.688   0.159   7.258 -1.0931  0.0650 -0.3855
   78CHL1    H8 8193   0.732   0.259   7.277  1.6037 -1.3810  1.6458
   78CHL1   C14 8194   0.627   0.114   7.388  0.0133  0.1700 -1.0430
   78CHL1   H14 8195   0.581   0.016   7.361 -1.1050 -0.0647  1.3984
   78CHL1   C15 8196   0.519   0.190   7.473 -0.1421  0.6070  0.0168
   78CHL1  H15A 8197   0.555   0.292   7.501 -0.4156  0.9579 -0.8417
   78CHL1  H15B 8198   0.422   0.178   7.419  1.2652  1.0021 -2.7790
   78CHL1   C16 8199   0.511   0.114   7.604  0.7209  0.0113  0.3987
   78CHL1  H16A 8200   0.521   0.185   7.689 -0.8216 -0.2049  0.8000
   78CHL1  H16B 8201   0.413   0.063   7.614  1.0034 -0.6015  0.0908
   78CHL1   C17 8202   0.632   0.017   7.608  0.0723 -0.6012 -0.8375
   78CHL1   H17 8203   0.608  -0.081   7.560  1.0223  0.2799 -3.2793
   78CHL1   C13 8204   0.730   0.068   7.493 -0.6643  0.3754 -0.9556
   78CHL1   C18 8205   0.814   0.184   7.553 -0.1677 -0.2562 -0.1426
   78CHL1  H18A 8206   0.850   0.243   7.465  0.0342 -4.3629 -3.1143
   78CHL1  H18B 8207   0.762   0.248   7.627  2.6644  1.8933  0.1315
   78CHL1  H18C 8208   0.904   0.145   7.605  0.0753  1.5909  0.9027
   78CHL1   C12 8209   0.816  -0.042   7.429  0.5063 -0.6133  1.6212
   78CHL1  H12A 8210   0.887  -0.092   7.498  0.8237 -4.3175 -1.1086
   78CHL1  H12B 8211   0.757  -0.126   7.387  0.1639 -0.7722  2.3963
   78CHL1   C11 8212   0.893   0.016   7.304 -0.6611 -0.3453  0.3888
   78CHL1  H11A 8213   0.959   0.095   7.345  0.5190 -1.2169  0.2387
   78CHL1  H11B 8214   0.966  -0.063   7.274  1.6500  0.9911  2.2199
   78CHL1    C9 8215   0.801   0.067   7.197 -0.2617 -0.1839  0.2034
   78CHL1    H9 8216   0.744  -0.015   7.147  0.1494  1.0848 -2.5304
   78CHL1   C10 8217   0.880   0.130   7.072  0.1603  0.1795  0.5332
   78CHL1   C19 8218   0.984   0.235   7.113 -0.2145  0.2156 -0.2444
   78CHL1  H19A 8219   1.070   0.196   7.173 -0.3443  2.5102  1.5727
   78CHL1  H19B 8220   1.026   0.296   7.030 -1.2413 -0.3615 -1.2010
   78CHL1  H19C 8221   0.937   0.306   7.183  0.1199  0.3775 -0.1784
   78CHL1    C1 8222   0.951   0.011   7.000  0.7558 -0.2689  0.1397
   78CHL1   H1A 8223   1.037  -0.014   7.066 -0.0696 -1.4873  0.7799
   78CHL1   H1B 8224   0.880  -0.074   6.992  0.2529  0.0422  1.1225
   78CHL1    C2 8225   0.990   0.044   6.860 -0.4167 -0.0701  0.2887
   78CHL1   H2A 8226   1.028  -0.052   6.820  1.1020 -0.5690  2.7356
   78CHL1   H2B 8227   1.072   0.119   6.856 -3.3856  3.4583 -1.5553
   78CHL1   C20 8228   0.687  -0.013   7.752  0.2862 -0.4983  0.1936
   78CHL1   H20 8229   0.726   0.085   7.787  0.3868 -0.3463 -0.3342
   78CHL1   C21 8230   0.809  -0.099   7.759 -0.7017 -0.4968  0.0733
   78CHL1  H21A 8231   0.804  -0.194   7.703  1.2774 -0.3403 -0.4491
   78CHL1  H21B 8232   0.836  -0.119   7.865  0.0998  2.7407  0.5997
   78CHL1  H21C 8233   0.896  -0.040   7.723 -0.4747 -1.9879 -1.9803
   78CHL1   C22 8234   0.575  -0.055   7.849 -0.4057  0.9841 -0.4741
   78CHL1  H22A 8235   0.621  -0.033   7.948  0.2910 -3.1854  0.2908
   78CHL1  H22B 8236   0.482   0.005   7.856 -0.9040  0.2276 -0.4644
   78CHL1   C23 8237   0.530  -0.200   7.833 -0.3114  0.2292  1.0700
   78CHL1  H23A 8238   0.513  -0.227   7.727  2.2074 -0.4162  0.7711
   78CHL1  H23B 8239   0.608  -0.270   7.869  0.2535  0.2879 -0.0103
   78CHL1   C24 8240   0.400  -0.222   7.915  0.6474 -0.5854  0.4911
   78CHL1  H24A 8241   0.320  -0.165   7.863  0.6666 -2.1134 -1.3272
   78CHL1  H24B 8242   0.372  -0.330   7.912 -0.6787 -0.2240 -0.7954
   78CHL1   C25 8243   0.397  -0.171   8.060 -0.2932 -0.3382 -0.0996
   78CHL1   H25 8244   0.421  -0.063   8.064 -0.3203 -0.3681  1.4591
   78CHL1   C26 8245   0.254  -0.177   8.116 -0.0751  0.3905  0.3024
   78CHL1  H26A 8246   0.230  -0.284   8.136  1.7298 -0.0069  0.5300
   78CHL1  H26B 8247   0.252  -0.120   8.211  1.7165  2.8824 -1.0640
   78CHL1  H26C 8248   0.178  -0.136   8.046 -1.8222 -1.4939  0.9733
   78CHL1   C27 8249   0.510  -0.236   8.151 -0.2143 -0.1348  0.3807
   78CHL1  H27A 8250   0.611  -0.215   8.109  0.4407 -0.4400  1.7379
   78CHL1  H27B 8251   0.507  -0.190   8.252  1.1426  1.3164 -0.1897
   78CHL1  H27C 8252   0.499  -0.346   8.160 -0.9661 -0.2594 -1.6351
   79CHL1    C3 8253   4.677   1.537   7.203  0.1460  0.7689 -0.7843
   79CHL1    H3 8254   4.783   1.509   7.217 -0.3325 -1.9166 -1.8014
   79CHL1    O3 8255   4.633   1.550   7.065  0.2317  0.0140  0.3403
   79CHL1   H3' 8256   4.687   1.615   7.020 -1.0004  1.8616  1.3965
   79CHL1    C4 8257   4.615   1.403   7.244 -0.0740 -0.3302  0.4865
   79CHL1   H4A 8258   4.511   1.408   7.205  0.2185  0.2332 -0.2314
   79CHL1   H4B 8259   4.665   1.328   7.180 -0.7763  0.8013 -1.4600
   79CHL1    C5 8260   4.620   1.364   7.391 -0.2332 -0.7006  0.4136
   79CHL1    C6 8261   4.665   1.249   7.432 -0.5077 -0.1351  0.0098
   79CHL1    H6 8262   4.706   1.171   7.366  2.2637 -1.3621  2.9211
   79CHL1    C7 8263   4.654   1.206   7.575 -0.8181  0.4709  0.0909
   79CHL1   H7A 8264   4.600   1.109   7.583 -0.7433  0.4675  0.5374
   79CHL1   H7B 8265   4.757   1.186   7.610 -0.7488 -2.5622 -1.5054
   79CHL1    C8 8266   4.573   1.306   7.665  0.5547 -0.1948  0.2460
   79CHL1    H8 8267   4.463   1.291   7.652  0.8153 -0.9689 -1.3285
   79CHL1   C14 8268   4.603   1.287   7.808 -0.1965  0.2298 -0.2970
   79CHL1   H14 8269   4.711   1.308   7.824 -0.7187  2.7746  0.3948
   79CHL1   C15 8270   4.579   1.147   7.869 -0.6758 -0.2830 -0.0803
   79CHL1  H15A 8271   4.481   1.111   7.829 -0.8793  0.0545  0.1111
   79CHL1  H15B 8272   4.654   1.069   7.844  1.4728  1.3607  0.8871
   79CHL1   C16 8273   4.578   1.172   8.026  0.4040  0.6958  0.6001
   79CHL1  H16A 8274   4.492   1.114   8.063  0.2576 -0.2411 -1.0765
   79CHL1  H16B 8275   4.672   1.117   8.049  1.0497 -0.0720 -3.1372
   79CHL1   C17 8276   4.590   1.324   8.041  0.1934 -0.2378 -0.5445
   79CHL1   H17 8277   4.699   1.344   8.037  0.3361 -1.1851 -2.4695
   79CHL1   C13 8278   4.543   1.385   7.909  0.1506 -0.5496 -0.5786
   79CHL1   C18 8279   4.390   1.376   7.896 -0.3894  0.5802  0.0384
   79CHL1  H18A 8280   4.349   1.276   7.919  1.2536 -0.6312 -1.9101
   79CHL1  H18B 8281   4.337   1.458   7.949 -1.5243  0.8593 -1.4553
   79CHL1  H18C 8282   4.364   1.392   7.789  0.9267 -1.6919 -0.6892
   79CHL1   C12 8283   4.601   1.525   7.872  0.2815 -1.0955  0.1435
   79CHL1  H12A 8284   4.561   1.608   7.934  1.3561 -0.2546 -0.2476
   79CHL1  H12B 8285   4.711   1.530   7.889  0.2294  0.1157  0.2315
   79CHL1   C11 8286   4.567   1.556   7.730  0.1389 -0.0560 -0.0585
   79CHL1  H11A 8287   4.456   1.555   7.727  0.1308  0.7201 -0.3341
   79CHL1  H11B 8288   4.601   1.658   7.702  1.4555  0.3857  2.8378
   79CHL1    C9 8289   4.616   1.445   7.632 -0.8245 -0.4139 -0.0852
   79CHL1    H9 8290   4.726   1.452   7.642 -1.0013  0.7371  1.3072
   79CHL1   C10 8291   4.572   1.471   7.486 -0.3571  0.5568  0.1179
   79CHL1   C19 8292   4.417   1.476   7.471 -0.1468  0.0064  0.2906
   79CHL1  H19A 8293   4.357   1.383   7.484 -0.6706  0.1850 -0.6784
   79CHL1  H19B 8294   4.375   1.549   7.544  0.0525  2.9111 -2.2990
   79CHL1  H19C 8295   4.391   1.516   7.370  1.8752 -1.2053 -0.7775
   79CHL1    C1 8296   4.638   1.608   7.441  0.3237  0.1850  0.7960
   79CHL1   H1A 8297   4.577   1.687   7.490 -0.8573  0.1597 -0.5706
   79CHL1   H1B 8298   4.739   1.606   7.489  0.4005 -2.4050  0.6628
   79CHL1    C2 8299   4.628   1.647   7.298 -0.0440  0.5466  0.2012
   79CHL1   H2A 8300   4.697   1.730   7.273 -1.6222  1.6421 -0.6838
   79CHL1   H2B 8301   4.524   1.673   7.268 -0.2549 -1.0135 -0.5326
   79CHL1   C20 8302   4.545   1.375   8.182 -0.0268  0.7206  0.6548
   79CHL1   H20 8303   4.438   1.348   8.196 -0.7291  2.0051 -1.7155
   79CHL1   C21 8304   4.560   1.530   8.203  0.4514 -0.4296 -0.1154
   79CHL1  H21A 8305   4.537   1.550   8.310  1.8201 -1.5080  0.4140
   79CHL1  H21B 8306   4.482   1.585   8.146  0.7211  0.4498  0.3442
   79CHL1  H21C 8307   4.656   1.575   8.171  0.2552  2.7729  3.0599
   79CHL1   C22 8308   4.625   1.304   8.296 -0.2457 -0.4697 -0.3913
   79CHL1  H22A 8309   4.575   1.339   8.388 -0.2311 -1.3712 -0.0330
   79CHL1  H22B 8310   4.613   1.195   8.279  0.4763 -0.3104 -2.1991
   79CHL1   C23 8311   4.775   1.344   8.295 -0.5293  0.4138 -0.0537
   79CHL1  H23A 8312   4.819   1.327   8.195  0.1264 -1.1217  0.4505
   79CHL1  H23B 8313   4.777   1.454   8.305 -0.5818  0.5619 -1.5030
   79CHL1   C24 8314   4.859   1.298   8.415 -0.2658 -0.3868  0.3611
   79CHL1  H24A 8315   4.959   1.346   8.402 -0.7311  0.0797 -2.1127
   79CHL1  H24B 8316   4.811   1.346   8.503  0.0127  2.8979 -1.1481
   79CHL1   C25 8317   4.882   1.144   8.422  0.1499  0.2353 -0.2687
   79CHL1   H25 8318   4.782   1.096   8.422 -0.0465  0.6095  1.0229
   79CHL1   C26 8319   4.969   1.091   8.304 -0.7261 -0.2052  0.2226
   79CHL1  H26A 8320   5.047   1.167   8.283 -0.6286 -0.7524 -1.5877
   79CHL1  H26B 8321   5.014   0.996   8.339 -1.8960 -0.7631  0.2674
   79CHL1  H26C 8322   4.920   1.102   8.205  1.0060  1.4878 -0.5145
   79CHL1   C27 8323   4.939   1.106   8.569 -0.1680 -0.4254  0.5646
   79CHL1  H27A 8324   5.039   1.152   8.579 -0.6484  1.1251 -1.2538
   79CHL1  H27B 8325   4.871   1.160   8.639 -0.8614  2.5813 -2.1678
   79CHL1  H27C 8326   4.939   0.999   8.598 -0.4329 -0.3907  0.6968
   80CHL1    C3 8327   2.814   3.822   7.120 -0.2539  0.3974  0.7924
   80CHL1    H3 8328   2.851   3.888   7.201 -2.5782 -0.6194  2.8201
   80CHL1    O3 8329   2.849   3.880   6.998  0.0723 -0.3686 -0.3906
   80CHL1   H3' 8330   2.945   3.875   6.990  0.3694  2.8272 -0.1555
   80CHL1    C4 8331   2.857   3.674   7.118  0.5039  0.1114  0.3614
   80CHL1   H4A 8332   2.781   3.620   7.058  1.2333  1.7815 -2.2435
   80CHL1   H4B 8333   2.960   3.656   7.079  0.2277  0.1869 -0.4194
   80CHL1    C5 8334   2.830   3.625   7.260  0.1208 -0.2085 -0.0559
   80CHL1    C6 8335   2.928   3.575   7.343  0.0878  0.0459 -0.4774
   80CHL1    H6 8336   3.030   3.584   7.301 -0.7089 -2.1479 -3.1121
   80CHL1    C7 8337   2.927   3.530   7.486  0.7448  0.7426  0.2243
   80CHL1   H7A 8338   2.975   3.432   7.509 -0.6972 -0.3024 -1.0215
   80CHL1   H7B 8339   2.964   3.620   7.540  0.0752  0.4801  1.1524
   80CHL1    C8 8340   2.775   3.520   7.527 -0.3406 -0.4679 -0.2141
   80CHL1    H8 8341   2.731   3.423   7.495 -0.7425 -1.7515  3.7463
   80CHL1   C14 8342   2.763   3.519   7.684  0.4322  0.6735 -0.1583
   80CHL1   H14 8343   2.804   3.618   7.710  0.1047  1.0295 -0.9646
   80CHL1   C15 8344   2.850   3.417   7.757 -0.2487  0.0298 -0.9825
   80CHL1  H15A 8345   2.849   3.315   7.714 -0.5932 -0.3315 -0.1336
   80CHL1  H15B 8346   2.955   3.455   7.758 -0.8550  1.7785 -0.5609
   80CHL1   C16 8347   2.778   3.409   7.897 -0.3122 -0.5373  0.0089
   80CHL1  H16A 8348   2.741   3.304   7.899 -1.5408 -0.1226 -0.1482
   80CHL1  H16B 8349   2.847   3.436   7.980  0.2365  0.1198 -0.6594
   80CHL1   C17 8350   2.652   3.493   7.879 -0.4473 -0.2729 -0.6520
   80CHL1   H17 8351   2.684   3.591   7.920  0.2257 -0.4313 -0.7859
   80CHL1   C13 8352   2.622   3.493   7.733  0.4474 -0.4283  0.7667
   80CHL1   C18 8353   2.561   3.356   7.687 -0.2485 -0.1825 -0.3126
   80CHL1  H18A 8354   2.456   3.339   7.721 -0.9867  1.0240 -1.8746
   80CHL1  H18B 8355   2.557   3.355   7.576 -0.2975  1.7376 -0.3601
   80CHL1  H18C 8356   2.626   3.271   7.717 -0.0232  0.9051  2.6286
   80CHL1   C12 8357   2.537   3.609   7.680 -0.2857 -0.5457  0.4697
   80CHL1  H12A 8358   2.430   3.592   7.706 -0.6111  0.5728 -0.1115
   80CHL1  H12B 8359   2.568   3.699   7.737  1.9577 -1.6087  1.0511
   80CHL1   C11 8360   2.542   3.627   7.530 -0.5711 -0.0654 -0.3704
   80CHL1  H11A 8361   2.474   3.549   7.489 -1.0042  0.6530 -1.0483
   80CHL1  H11B 8362   2.494   3.724   7.506 -0.5956 -0.5183 -2.3570
   80CHL1    C9 8363   2.685   3.629   7.469  0.1807  0.1973  0.7674
   80CHL1    H9 8364   2.739   3.716   7.511 -0.9766  2.0631 -1.4407
   80CHL1   C10 8365   2.686   3.644   7.308 -0.4281  0.1861 -0.2918
   80CHL1   C19 8366   2.589   3.538   7.246  0.3366 -0.0335  0.4125
   80CHL1  H19A 8367   2.482   3.541   7.273 -0.1758  0.7581 -1.5638
   80CHL1  H19B 8368   2.605   3.529   7.137 -0.9783 -2.1755  0.3420
   80CHL1  H19C 8369   2.628   3.440   7.283  0.8271  0.7222  2.0005
   80CHL1    C1 8370   2.632   3.783   7.274  0.1987  0.1849 -0.0620
   80CHL1   H1A 8371   2.523   3.790   7.292  0.3823  2.5247  0.4765
   80CHL1   H1B 8372   2.677   3.863   7.337 -0.3422 -0.6643  1.4591
   80CHL1    C2 8373   2.667   3.828   7.133  0.3406 -0.6262  0.1015
   80CHL1   H2A 8374   2.620   3.925   7.105  1.8024 -0.3730 -1.6639
   80CHL1   H2B 8375   2.623   3.754   7.062 -0.1049 -1.4946  1.2396
   80CHL1   C20 8376   2.541   3.452   7.977 -0.0791 -0.6305 -0.0218
   80CHL1   H20 8377   2.506   3.351   7.950  0.7244 -1.1290  0.7535
   80CHL1   C21 8378   2.421   3.547   7.971  0.0819 -0.1655  0.4005
   80CHL1  H21A 8379   2.371   3.534   7.873  1.3588  2.4787 -0.6855
   80CHL1  H21B 8380   2.459   3.650   7.979 -1.1585  0.2704  0.9162
   80CHL1  H21C 8381   2.352   3.532   8.057  1.0785 -1.3946  1.0296
   80CHL1   C22 8382   2.595   3.448   8.124 -0.2105 -0.2245  0.2921
   80CHL1  H22A 8383   2.513   3.418   8.193  0.2398 -1.8921  0.1639
   80CHL1  H22B 8384   2.677   3.374   8.137 -0.4982 -0.9848 -1.8054
   80CHL1   C23 8385   2.654   3.579   8.172 -0.0754 -0.0727  0.2601
   80CHL1  H23A 8386   2.746   3.600   8.114  0.7781 -0.4532  1.4453
   80CHL1  H23B 8387   2.581   3.663   8.175 -0.5959 -0.4241 -1.2982
   80CHL1   C24 8388   2.724   3.556   8.306 -0.5379 -1.2511  0.1916
   80CHL1  H24A 8389   2.655   3.515   8.383  1.7641 -3.0882  1.4280
   80CHL1  H24B 8390   2.804   3.480   8.293 -0.6253 -1.3117  0.0169
   80CHL1   C25 8391   2.801   3.680   8.358  0.8724 -0.1092  0.2266
   80CHL1   H25 8392   2.853   3.738   8.278 -0.2068 -1.1813 -1.3239
   80CHL1   C26 8393   2.697   3.775   8.422  1.2035  0.2802  0.6364
   80CHL1  H26A 8394   2.619   3.714   8.473 -1.2190  0.9056 -2.0467
   80CHL1  H26B 8395   2.739   3.849   8.494 -0.4653  1.9023  0.0226
   80CHL1  H26C 8396   2.644   3.827   8.339 -0.2447 -0.7708  0.8679
   80CHL1   C27 8397   2.902   3.631   8.464 -0.6955 -0.1583  0.4954
   80CHL1  H27A 8398   2.999   3.686   8.458 -0.2147 -1.1496 -2.0585
   80CHL1  H27B 8399   2.851   3.640   8.563  0.3277  0.0292  1.0189
   80CHL1  H27C 8400   2.939   3.528   8.445  2.4629  1.0440 -0.6166
   81CHL1    C3 8401   5.134   3.128   6.860 -0.3508  0.3462  0.3833
   81CHL1    H3 8402   5.229   3.069   6.861 -1.9505 -2.4327 -0.5907
   81CHL1    O3 8403   5.105   3.149   6.717  0.1042  0.0122 -0.3409
   81CHL1   H3' 8404   5.176   3.208   6.690  0.3187  0.7602  1.6862
   81CHL1    C4 8405   5.022   3.036   6.915 -0.4147  0.2874  0.4284
   81CHL1   H4A 8406   4.926   3.084   6.887 -1.7021 -1.9398  0.8256
   81CHL1   H4B 8407   5.039   2.951   6.846 -0.0768  0.5740  0.1498
   81CHL1    C5 8408   5.040   3.012   7.061  0.3059 -0.2068 -0.3322
   81CHL1    C6 8409   5.053   2.890   7.107  0.1460  0.6984  0.3162
   81CHL1    H6 8410   5.049   2.804   7.038 -1.5520  1.1864 -0.2429
   81CHL1    C7 8411   5.081   2.854   7.249  0.5665  0.2525 -0.2193
   81CHL1   H7A 8412   5.039   2.758   7.287  1.4828  0.2733  0.9027
   81CHL1   H7B 8413   5.190   2.838   7.252  0.6889  1.1274  0.2911
   81CHL1    C8 8414   5.041   2.966   7.346  0.4545 -0.8164  0.7239
   81CHL1    H8 8415   4.930   2.978   7.350  0.5024  0.0798 -0.2784
   81CHL1   C14 8416   5.091   2.944   7.485 -0.5008 -0.0367 -0.3433
   81CHL1   H14 8417   5.202   2.936   7.476 -0.5674 -0.8214 -0.5947
   81CHL1   C15 8418   5.050   2.809   7.546  0.8420 -0.1528 -0.3337
   81CHL1  H15A 8419   4.942   2.793   7.529  0.8268  0.3757 -0.7998
   81CHL1  H15B 8420   5.112   2.725   7.508  2.0012  0.8450 -0.7363
   81CHL1   C16 8421   5.084   2.824   7.698  0.0893 -0.7332  0.5128
   81CHL1  H16A 8422   4.995   2.809   7.764  0.8686  3.1766  2.7749
   81CHL1  H16B 8423   5.171   2.763   7.730  0.5806 -0.3154 -0.0072
   81CHL1   C17 8424   5.122   2.980   7.722 -0.2231  0.0220  0.6294
   81CHL1   H17 8425   5.232   2.982   7.707 -0.2444  1.5324  0.5963
   81CHL1   C13 8426   5.066   3.052   7.597 -0.2761  0.0411 -0.4092
   81CHL1   C18 8427   4.918   3.081   7.607  0.8181 -1.1600  0.7376
   81CHL1  H18A 8428   4.901   3.125   7.707 -0.2776  2.3413 -0.7978
   81CHL1  H18B 8429   4.886   3.149   7.524  0.5232 -1.6375  0.4520
   81CHL1  H18C 8430   4.859   2.988   7.591 -0.9206 -0.0983  0.6885
   81CHL1   C12 8431   5.144   3.172   7.541 -0.0890 -0.3238 -0.3706
   81CHL1  H12A 8432   5.126   3.258   7.608  2.5804  0.5030 -0.5993
   81CHL1  H12B 8433   5.254   3.159   7.546  0.1996  2.2125  1.2195
   81CHL1   C11 8434   5.099   3.212   7.397 -0.0396 -0.4248 -0.0694
   81CHL1  H11A 8435   5.000   3.261   7.412  0.7388  0.7660  1.5998
   81CHL1  H11B 8436   5.165   3.284   7.345  1.0637 -3.0696 -2.5800
   81CHL1    C9 8437   5.101   3.098   7.296  0.3809  0.0614 -0.4515
   81CHL1    H9 8438   5.210   3.077   7.287  0.2829 -0.0842 -1.4061
   81CHL1   C10 8439   5.046   3.137   7.152 -0.8174 -0.6133 -0.6330
   81CHL1   C19 8440   4.916   3.217   7.178 -0.1991  0.8077  0.3233
   81CHL1  H19A 8441   4.849   3.177   7.257  0.7310  1.7198  1.6018
   81CHL1  H19B 8442   4.938   3.325   7.194  2.8154  0.2793  0.4170
   81CHL1  H19C 8443   4.855   3.214   7.085 -0.3937 -2.1079  0.4625
   81CHL1    C1 8444   5.158   3.225   7.081  0.3357  0.5771  0.3985
   81CHL1   H1A 8445   5.161   3.320   7.137 -1.9417  1.4431 -0.8053
   81CHL1   H1B 8446   5.257   3.178   7.097 -0.2868 -1.0704 -0.2336
   81CHL1    C2 8447   5.146   3.257   6.924 -0.0339 -0.1004  0.2351
   81CHL1   H2A 8448   5.240   3.309   6.896  0.2737 -0.1378  1.1617
   81CHL1   H2B 8449   5.057   3.322   6.919 -0.8842 -0.9709  2.5345
   81CHL1   C20 8450   5.089   3.028   7.863  0.0472 -1.2397  0.6283
   81CHL1   H20 8451   4.981   3.024   7.888  0.0950 -0.4274  1.0108
   81CHL1   C21 8452   5.122   3.180   7.879 -0.1515 -0.0078  0.4699
   81CHL1  H21A 8453   5.111   3.216   7.983  1.1152  1.3069  0.1957
   81CHL1  H21B 8454   5.048   3.241   7.823 -0.9122  0.1624  1.6528
   81CHL1  H21C 8455   5.226   3.192   7.841  0.4078 -0.5284  1.7795
   81CHL1   C22 8456   5.173   2.949   7.963  0.5359 -0.6049  0.2300
   81CHL1  H22A 8457   5.179   2.841   7.939  0.5543 -0.9792  1.7884
   81CHL1  H22B 8458   5.277   2.988   7.966 -0.1415  1.5505 -1.3919
   81CHL1   C23 8459   5.117   2.948   8.107 -0.4535 -0.4582  0.4930
   81CHL1  H23A 8460   5.094   3.055   8.126  0.1708 -0.1051 -0.6548
   81CHL1  H23B 8461   5.014   2.905   8.108 -2.0178  2.9442  0.7399
   81CHL1   C24 8462   5.213   2.903   8.220  0.0290 -0.9046  0.3208
   81CHL1  H24A 8463   5.261   2.808   8.191  1.4382  0.1905 -1.1435
   81CHL1  H24B 8464   5.298   2.974   8.227 -0.6540 -0.0661  0.4176
   81CHL1   C25 8465   5.159   2.892   8.359 -0.7919 -0.2844 -0.5981
   81CHL1   H25 8466   5.068   2.829   8.364 -0.8919 -0.0761  0.5345
   81CHL1   C26 8467   5.254   2.836   8.465  0.5078  0.0868  0.3446
   81CHL1  H26A 8468   5.291   2.735   8.437  3.6395  0.5217  2.3667
   81CHL1  H26B 8469   5.349   2.895   8.469  0.2401  0.5872 -0.4850
   81CHL1  H26C 8470   5.202   2.819   8.561 -1.4622 -0.6710 -0.8033
   81CHL1   C27 8471   5.121   3.029   8.421 -0.6418  0.1254 -0.2486
   81CHL1  H27A 8472   5.077   3.018   8.522 -0.1163 -2.0884 -0.2173
   81CHL1  H27B 8473   5.204   3.103   8.429 -1.6427  1.3702 -0.8212
   81CHL1  H27C 8474   5.046   3.078   8.354 -0.6857 -0.2683 -0.4873
   82CHL1    C3 8475   0.653   0.663   6.816  0.1910  0.1980  0.5733
   82CHL1    H3 8476   0.743   0.729   6.815  0.2113  0.2035  1.4931
   82CHL1    O3 8477   0.652   0.624   6.680 -0.1320  0.2909  0.4791
   82CHL1   H3' 8478   0.575   0.567   6.667 -0.6951  1.0550  0.4335
   82CHL1    C4 8479   0.675   0.541   6.909 -0.1021  0.3496 -0.1328
   82CHL1   H4A 8480   0.595   0.464   6.897 -0.8082  0.9034  0.8827
   82CHL1   H4B 8481   0.771   0.495   6.877 -0.9090 -1.6111  0.0894
   82CHL1    C5 8482   0.686   0.570   7.050  0.2548 -0.1322 -0.0676
   82CHL1    C6 8483   0.793   0.547   7.126  0.4445  0.2072 -0.8264
   82CHL1    H6 8484   0.883   0.505   7.080  1.2815  1.2677 -0.2300
   82CHL1    C7 8485   0.798   0.574   7.273  0.3555 -0.1528  0.1430
   82CHL1   H7A 8486   0.850   0.495   7.332 -0.0959 -0.3852  0.2344
   82CHL1   H7B 8487   0.851   0.670   7.287  0.2032 -0.0714  0.1581
   82CHL1    C8 8488   0.657   0.585   7.335  0.0601  0.3487  0.6299
   82CHL1    H8 8489   0.605   0.487   7.343 -0.0131  0.4509  1.4455
   82CHL1   C14 8490   0.673   0.651   7.471 -0.1339  0.3028  0.6313
   82CHL1   H14 8491   0.713   0.753   7.452  2.1610 -0.4673  0.9619
   82CHL1   C15 8492   0.770   0.585   7.581  0.1579  0.4435 -0.1963
   82CHL1  H15A 8493   0.743   0.478   7.568  1.6440  0.1129 -0.7576
   82CHL1  H15B 8494   0.877   0.603   7.555  0.4740  0.3722  0.9844
   82CHL1   C16 8495   0.721   0.634   7.715 -0.3229  0.5996 -0.2482
   82CHL1  H16A 8496   0.696   0.546   7.779 -1.0105  1.9436  1.4286
   82CHL1  H16B 8497   0.815   0.670   7.761 -0.3374  0.3687 -0.0328
   82CHL1   C17 8498   0.606   0.735   7.680 -0.2939 -0.3497 -0.9356
   82CHL1   H17 8499   0.657   0.830   7.657 -0.3893 -0.0240  0.1313
   82CHL1   C13 8500   0.544   0.681   7.543  0.2259 -0.0522 -0.4186
   82CHL1   C18 8501   0.469   0.554   7.590  0.3169  0.1875  0.4541
   82CHL1  H18A 8502   0.439   0.495   7.500  0.3285 -0.8354  1.1049
   82CHL1  H18B 8503   0.533   0.482   7.646 -0.5671  0.2194  1.5295
   82CHL1  H18C 8504   0.382   0.578   7.654  0.3444  1.6352 -0.0313
   82CHL1   C12 8505   0.452   0.773   7.459  0.4837  0.4450  0.5716
   82CHL1  H12A 8506   0.347   0.775   7.495  0.4652  1.4313  0.4857
   82CHL1  H12B 8507   0.486   0.879   7.461 -1.4658  1.0971  1.1682
   82CHL1   C11 8508   0.447   0.722   7.314  0.0376 -0.0247 -0.2048
   82CHL1  H11A 8509   0.392   0.626   7.320  0.9521 -0.5031  0.9338
   82CHL1  H11B 8510   0.391   0.797   7.254 -2.3643 -1.2336  0.3971
   82CHL1    C9 8511   0.581   0.686   7.250 -0.2059 -0.3796 -0.1883
   82CHL1    H9 8512   0.645   0.777   7.248  0.3721 -0.7784 -0.0765
   82CHL1   C10 8513   0.562   0.636   7.105 -0.0314  0.1040 -0.6398
   82CHL1   C19 8514   0.440   0.539   7.100 -0.1191 -0.1729 -0.2615
   82CHL1  H19A 8515   0.346   0.592   7.126  0.1089  0.5665 -0.8922
   82CHL1  H19B 8516   0.424   0.494   7.000  1.2018 -1.6245  0.1301
   82CHL1  H19C 8517   0.453   0.452   7.168  1.9073 -1.3984 -2.0882
   82CHL1    C1 8518   0.517   0.765   7.014  0.4053 -0.0800 -0.2317
   82CHL1   H1A 8519   0.419   0.798   7.052  0.1058 -1.0502 -0.1259
   82CHL1   H1B 8520   0.597   0.840   7.032  2.5166 -2.4383  0.7928
   82CHL1    C2 8521   0.521   0.735   6.857  0.2342 -0.0606 -0.1641
   82CHL1   H2A 8522   0.496   0.829   6.802 -0.5118  0.3834  0.9000
   82CHL1   H2B 8523   0.439   0.662   6.841  0.4455 -0.0857 -1.1515
   82CHL1   C20 8524   0.523   0.777   7.799 -0.0411 -0.5164  0.1754
   82CHL1   H20 8525   0.473   0.683   7.832 -0.1824 -0.8483 -0.9330
   82CHL1   C21 8526   0.413   0.886   7.760  0.4867  0.0390 -0.3082
   82CHL1  H21A 8527   0.352   0.913   7.849  1.2972 -1.4067  0.7273
   82CHL1  H21B 8528   0.350   0.831   7.687  2.2488 -0.8990 -1.1897
   82CHL1  H21C 8529   0.459   0.971   7.705 -0.4891  0.0565 -1.1312
   82CHL1   C22 8530   0.622   0.830   7.912  0.4256  0.9216 -0.0294
   82CHL1  H22A 8531   0.705   0.759   7.933  0.6014  1.6317  1.8323
   82CHL1  H22B 8532   0.662   0.928   7.878 -0.6555  1.2518 -0.3826
   82CHL1   C23 8533   0.554   0.866   8.048 -0.0302  0.4528 -0.6516
   82CHL1  H23A 8534   0.473   0.941   8.038 -1.9147 -1.6320 -1.7022
   82CHL1  H23B 8535   0.497   0.775   8.077  1.6855 -0.4516  0.0470
   82CHL1   C24 8536   0.648   0.899   8.170  0.3521 -0.0861 -0.4783
   82CHL1  H24A 8537   0.701   0.807   8.203 -0.9713 -0.7016 -0.0194
   82CHL1  H24B 8538   0.719   0.980   8.141  0.4622  0.2474  0.6750
   82CHL1   C25 8539   0.572   0.954   8.295  0.2356 -0.0240 -0.3327
   82CHL1   H25 8540   0.516   1.046   8.268 -3.1489 -2.1377 -1.0495
   82CHL1   C26 8541   0.483   0.849   8.356  0.4896  0.0256  0.2278
   82CHL1  H26A 8542   0.452   0.876   8.460  2.0027 -1.8574  1.2411
   82CHL1  H26B 8543   0.393   0.817   8.301 -0.6327 -2.3559  3.1991
   82CHL1  H26C 8544   0.532   0.751   8.376 -1.7882 -0.8921  1.6369
   82CHL1   C27 8545   0.666   0.992   8.411  0.2955 -0.6754 -0.1353
   82CHL1  H27A 8546   0.739   0.910   8.429  0.9553 -0.1268 -0.2636
   82CHL1  H27B 8547   0.714   1.089   8.383 -2.0894  0.7256  0.3225
   82CHL1  H27C 8548   0.617   1.013   8.508 -2.9357  0.1101 -1.8077
   83CHL1    C3 8549   5.672   4.586   6.821  0.4071  0.1015 -0.7503
   83CHL1    H3 8550   5.563   4.606   6.826 -0.0320 -2.3780  2.2286
   83CHL1    O3 8551   5.696   4.534   6.691 -0.2968 -0.2433 -0.4348
   83CHL1   H3' 8552   5.789   4.509   6.686 -0.4662 -0.6211 -4.0235
   83CHL1    C4 8553   5.757   4.716   6.846 -0.3653  0.4567 -0.5543
   83CHL1   H4A 8554   5.862   4.697   6.814 -0.8353  2.5104 -3.8342
   83CHL1   H4B 8555   5.737   4.801   6.777 -0.9987  0.8729  0.1364
   83CHL1    C5 8556   5.726   4.759   6.988 -0.4179  0.6395  0.0719
   83CHL1    C6 8557   5.670   4.877   7.012  0.3710 -1.0299 -0.3837
   83CHL1    H6 8558   5.634   4.934   6.925 -2.5749 -2.1198 -0.0055
   83CHL1    C7 8559   5.658   4.945   7.145  0.0662 -0.1552 -0.0674
   83CHL1   H7A 8560   5.684   5.053   7.144  1.0291 -0.3111  1.9723
   83CHL1   H7B 8561   5.553   4.940   7.180  0.5462 -0.4925  1.4078
   83CHL1    C8 8562   5.747   4.866   7.250  0.7160 -0.8659  0.3205
   83CHL1    H8 8563   5.853   4.895   7.234  0.3571  0.3448  0.0734
   83CHL1   C14 8564   5.708   4.911   7.388 -0.4897  0.3418  0.2931
   83CHL1   H14 8565   5.601   4.884   7.394 -0.0522 -1.3425  0.8878
   83CHL1   C15 8566   5.715   5.062   7.417  0.2613  0.5489  0.4307
   83CHL1  H15A 8567   5.808   5.106   7.374 -0.9186 -0.3123 -3.3797
   83CHL1  H15B 8568   5.627   5.113   7.371 -1.1645 -0.9144  1.4274
   83CHL1   C16 8569   5.714   5.063   7.570  0.0691  0.0780  0.1261
   83CHL1  H16A 8570   5.788   5.136   7.608 -0.2757  1.5579 -1.9012
   83CHL1  H16B 8571   5.621   5.106   7.612  0.3032 -0.4816  1.2595
   83CHL1   C17 8572   5.736   4.924   7.631 -0.6706 -0.3597  0.5522
   83CHL1   H17 8573   5.635   4.889   7.660 -0.8146 -1.0072 -0.6446
   83CHL1   C13 8574   5.783   4.841   7.513 -0.4564 -0.4565  0.5806
   83CHL1   C18 8575   5.939   4.852   7.499 -0.1095  0.3650  0.2848
   83CHL1  H18A 8576   5.987   4.789   7.577  0.8054  2.4926  1.5303
   83CHL1  H18B 8577   5.969   4.818   7.398 -1.7315 -0.7326  0.1302
   83CHL1  H18C 8578   5.977   4.952   7.527  0.0142 -0.2289  2.4779
   83CHL1   C12 8579   5.745   4.696   7.502  0.1911  0.5485  0.1863
   83CHL1  H12A 8580   5.775   4.622   7.578 -1.2876  0.1572  0.4083
   83CHL1  H12B 8581   5.636   4.697   7.519 -0.2241  2.0390 -2.0041
   83CHL1   C11 8582   5.786   4.642   7.360  0.3240  0.1432  0.4440
   83CHL1  H11A 8583   5.896   4.630   7.358  0.1819 -1.2184  0.0023
   83CHL1  H11B 8584   5.752   4.537   7.350  1.1027 -0.0008 -0.8050
   83CHL1    C9 8585   5.726   4.718   7.237  0.6199 -0.2382 -0.0345
   83CHL1    H9 8586   5.617   4.700   7.249  0.3564  1.8912  1.4371
   83CHL1   C10 8587   5.772   4.666   7.099  0.2278  0.3970 -0.0485
   83CHL1   C19 8588   5.929   4.634   7.089  0.8946  0.2528 -0.2808
   83CHL1  H19A 8589   5.976   4.561   7.158  1.0018 -1.1008 -1.7135
   83CHL1  H19B 8590   5.954   4.608   6.983 -1.8289  0.1911 -0.9908
   83CHL1  H19C 8591   5.985   4.724   7.120  1.8593 -1.4423  3.4082
   83CHL1    C1 8592   5.690   4.535   7.067 -0.1816 -0.5375  0.3370
   83CHL1   H1A 8593   5.711   4.452   7.139 -0.5319  0.2283  1.3454
   83CHL1   H1B 8594   5.583   4.562   7.084 -0.1419  0.2897 -0.6952
   83CHL1    C2 8595   5.708   4.484   6.925  0.1243 -0.5546 -0.3523
   83CHL1   H2A 8596   5.646   4.392   6.927 -2.0876  0.8801  1.4141
   83CHL1   H2B 8597   5.815   4.463   6.903  0.8075  1.9571  0.2422
   83CHL1   C20 8598   5.818   4.922   7.754 -1.2784 -0.1483 -0.0118
   83CHL1   H20 8599   5.919   4.964   7.734 -2.1437  2.2993  0.4821
   83CHL1   C21 8600   5.838   4.782   7.814 -0.3770 -0.3535 -1.1635
   83CHL1  H21A 8601   5.923   4.786   7.886 -1.5915 -0.4409  0.3371
   83CHL1  H21B 8602   5.853   4.694   7.748  1.1912 -1.1994  0.2343
   83CHL1  H21C 8603   5.752   4.762   7.881 -1.2349 -0.0676 -2.1600
   83CHL1   C22 8604   5.763   5.015   7.873  0.6494 -0.0316  0.9521
   83CHL1  H22A 8605   5.740   5.115   7.828  0.0071  0.2332  1.8365
   83CHL1  H22B 8606   5.667   4.980   7.916  0.6407 -0.3290  0.6952
   83CHL1   C23 8607   5.862   5.032   7.988 -0.2113 -0.6410 -0.7535
   83CHL1  H23A 8608   5.881   4.935   8.039  0.6498  1.5862  3.6211
   83CHL1  H23B 8609   5.955   5.072   7.942 -0.9612  1.6268 -0.4398
   83CHL1   C24 8610   5.831   5.139   8.092 -0.7588  0.5417 -0.2097
   83CHL1  H24A 8611   5.838   5.246   8.064 -1.0304  0.7079  0.3469
   83CHL1  H24B 8612   5.726   5.112   8.115 -0.4878 -0.3411  0.0628
   83CHL1   C25 8613   5.907   5.103   8.225 -0.9500 -0.4099  0.3403
   83CHL1   H25 8614   5.892   4.994   8.239  0.4348 -0.7825 -0.7723
   83CHL1   C26 8615   6.050   5.155   8.210 -0.1164  0.1192 -0.0431
   83CHL1  H26A 8616   6.063   5.262   8.184  2.2992 -0.1330 -0.1078
   83CHL1  H26B 8617   6.099   5.133   8.308 -0.3522  0.3148  0.1217
   83CHL1  H26C 8618   6.095   5.102   8.124 -0.1944  2.1806 -1.4040
   83CHL1   C27 8619   5.840   5.176   8.337  0.1110 -0.7467  1.0058
   83CHL1  H27A 8620   5.883   5.144   8.435  0.1862 -1.0646  0.8697
   83CHL1  H27B 8621   5.838   5.287   8.332  1.0870 -0.7411  0.5771
   83CHL1  H27C 8622   5.731   5.158   8.346 -0.0481 -0.4017 -0.1245
   84CHL1    C3 8623   5.927   2.575   7.008 -0.2605 -0.3956  0.9069
   84CHL1    H3 8624   5.972   2.663   7.060  1.4267 -1.0353  0.6134
   84CHL1    O3 8625   5.928   2.589   6.867 -0.4868 -0.0194  0.3644
   84CHL1   H3' 8626   5.856   2.531   6.841 -0.7175 -0.0673  1.0964
   84CHL1    C4 8627   6.006   2.451   7.044 -0.1283  0.1485  0.5016
   84CHL1   H4A 8628   5.958   2.364   6.994  1.1167 -0.0069 -0.4794
   84CHL1   H4B 8629   6.107   2.461   6.999 -0.6282 -0.2491 -0.7482
   84CHL1    C5 8630   6.019   2.429   7.192 -0.6850  0.1090 -0.4899
   84CHL1    C6 8631   6.129   2.422   7.262  0.1801  0.3183  0.8915
   84CHL1    H6 8632   6.228   2.435   7.215  0.5396 -0.6857  1.3404
   84CHL1    C7 8633   6.136   2.400   7.412  0.6053 -0.0671 -0.0208
   84CHL1   H7A 8634   6.220   2.333   7.437  1.3855  0.3185 -1.4887
   84CHL1   H7B 8635   6.161   2.499   7.456  0.8995  0.0858 -0.5202
   84CHL1    C8 8636   6.012   2.354   7.489  1.1852  0.0544  0.0899
   84CHL1    H8 8637   5.995   2.248   7.458  0.9300 -0.4551  1.8725
   84CHL1   C14 8638   6.026   2.370   7.640  0.0320 -0.0305  1.3813
   84CHL1   H14 8639   6.030   2.478   7.665  1.6869 -0.6081  3.9834
   84CHL1   C15 8640   6.154   2.314   7.711 -0.3107 -0.4999  0.6314
   84CHL1  H15A 8641   6.190   2.213   7.683 -0.9709 -0.6343  0.2333
   84CHL1  H15B 8642   6.230   2.393   7.695 -0.6015 -0.6188 -1.5087
   84CHL1   C16 8643   6.114   2.300   7.866  1.0783 -0.5941  0.8715
   84CHL1  H16A 8644   6.146   2.198   7.896  0.5501 -0.6403  1.2908
   84CHL1  H16B 8645   6.157   2.371   7.939  2.1389  0.6077 -0.8499
   84CHL1   C17 8646   5.958   2.337   7.860  0.6616  0.0382 -0.6510
   84CHL1   H17 8647   5.944   2.447   7.873 -1.0163 -0.0936 -1.0560
   84CHL1   C13 8648   5.904   2.322   7.717 -0.6469 -0.5858 -0.2066
   84CHL1   C18 8649   5.876   2.175   7.687 -0.2338 -0.1039  0.1005
   84CHL1  H18A 8650   5.789   2.146   7.749 -1.4615 -0.7228 -1.8317
   84CHL1  H18B 8651   5.850   2.153   7.581 -2.2200  0.5195  0.4268
   84CHL1  H18C 8652   5.960   2.111   7.722  0.6859  0.8351 -0.3277
   84CHL1   C12 8653   5.782   2.404   7.674  0.0508 -0.0693  0.1461
   84CHL1  H12A 8654   5.689   2.369   7.725  0.2224  0.8536  1.1396
   84CHL1  H12B 8655   5.788   2.513   7.692 -0.2915 -0.3926  2.5368
   84CHL1   C11 8656   5.766   2.395   7.520  0.3335  0.4572  0.4098
   84CHL1  H11A 8657   5.737   2.291   7.493  0.2145 -0.7357  4.3921
   84CHL1  H11B 8658   5.679   2.461   7.501 -0.5646  0.1163  2.9306
   84CHL1    C9 8659   5.891   2.426   7.424  0.2919 -0.2171  0.8596
   84CHL1    H9 8660   5.922   2.531   7.442 -0.1856  0.2286 -0.6897
   84CHL1   C10 8661   5.881   2.423   7.269 -0.2998  0.1031  0.5482
   84CHL1   C19 8662   5.813   2.286   7.240  0.2825  0.4363 -0.6124
   84CHL1  H19A 8663   5.710   2.273   7.281  0.2922 -1.0331 -0.9977
   84CHL1  H19B 8664   5.797   2.271   7.131 -1.0132 -0.0987 -0.3714
   84CHL1  H19C 8665   5.875   2.201   7.275 -1.1620 -1.3308 -2.1067
   84CHL1    C1 8666   5.799   2.542   7.219 -0.0693  0.0987 -0.3401
   84CHL1   H1A 8667   5.696   2.527   7.260  0.3923  0.3767  0.9908
   84CHL1   H1B 8668   5.843   2.637   7.257 -1.7868  0.8635 -0.1640
   84CHL1    C2 8669   5.786   2.565   7.063 -0.3533 -0.5925 -0.0448
   84CHL1   H2A 8670   5.742   2.666   7.058 -3.1205 -1.6474  0.9837
   84CHL1   H2B 8671   5.733   2.482   7.011 -1.4410 -1.4734  2.3159
   84CHL1   C20 8672   5.872   2.280   7.984 -0.4863  0.3768 -0.0535
   84CHL1   H20 8673   5.764   2.285   7.957 -0.7899 -1.4733  0.7080
   84CHL1   C21 8674   5.885   2.384   8.095 -0.1260  0.4105 -0.2748
   84CHL1  H21A 8675   5.840   2.479   8.061 -1.7557  0.1560  1.0230
   84CHL1  H21B 8676   5.990   2.401   8.125  0.7349 -0.4914 -2.5569
   84CHL1  H21C 8677   5.824   2.347   8.181  0.6579 -0.4281 -0.0671
   84CHL1   C22 8678   5.912   2.135   8.022 -0.1391 -0.2001  0.2279
   84CHL1  H22A 8679   5.927   2.085   7.924 -0.7145  1.0441 -0.5113
   84CHL1  H22B 8680   6.013   2.151   8.066 -0.6352  1.6334  0.7603
   84CHL1   C23 8681   5.819   2.060   8.114 -0.4516 -0.4506  0.2776
   84CHL1  H23A 8682   5.799   2.123   8.204 -5.0487  0.4716 -1.1202
   84CHL1  H23B 8683   5.716   2.063   8.074 -1.4880 -1.3262  2.6588
   84CHL1   C24 8684   5.850   1.919   8.161  0.3983 -0.3386 -0.0322
   84CHL1  H24A 8685   5.867   1.874   8.061 -1.0741  0.0207 -0.4631
   84CHL1  H24B 8686   5.938   1.906   8.227  0.8354  0.8889 -0.3389
   84CHL1   C25 8687   5.728   1.833   8.209  0.2142  0.2984 -0.1207
   84CHL1   H25 8688   5.642   1.849   8.141  0.9826 -0.1924 -1.2498
   84CHL1   C26 8689   5.764   1.684   8.213 -0.2640  0.1250 -0.7195
   84CHL1  H26A 8690   5.691   1.624   8.272  0.1744  0.4161  0.1267
   84CHL1  H26B 8691   5.777   1.653   8.107  0.1493 -0.6078 -0.4687
   84CHL1  H26C 8692   5.859   1.684   8.270 -1.0482 -1.0789  0.6940
   84CHL1   C27 8693   5.690   1.866   8.354 -0.0829  0.2785  0.9809
   84CHL1  H27A 8694   5.687   1.977   8.360 -1.9455  0.6966 -3.5983
   84CHL1  H27B 8695   5.593   1.817   8.377  0.2707 -1.8936 -1.5921
   84CHL1  H27C 8696   5.770   1.826   8.419  0.6948 -1.1107 -0.7364
   85CHL1    C3 8697   6.082   2.106   6.825 -0.7104  0.0297 -0.0351
   85CHL1    H3 8698   6.053   2.210   6.849  0.5721  0.7732 -1.4803
   85CHL1    O3 8699   6.072   2.116   6.685  0.6686  0.4203  0.1923
   85CHL1   H3' 8700   6.045   2.033   6.645 -0.2434  1.0441 -0.5381
   85CHL1    C4 8701   6.224   2.075   6.859 -0.3595  0.1726 -0.0428
   85CHL1   H4A 8702   6.243   1.978   6.809 -1.1481 -0.2340  0.4297
   85CHL1   H4B 8703   6.291   2.158   6.826  1.0042 -0.4692  0.9912
   85CHL1    C5 8704   6.240   2.065   7.015  0.2912  0.4649 -0.7066
   85CHL1    C6 8705   6.332   2.135   7.089 -0.3330  0.6506  0.3781
   85CHL1    H6 8706   6.405   2.196   7.033 -0.4217  0.0236 -0.4501
   85CHL1    C7 8707   6.355   2.120   7.236 -0.6127 -0.0320  0.5888
   85CHL1   H7A 8708   6.465   2.115   7.254 -0.7878 -0.3807  1.6155
   85CHL1   H7B 8709   6.308   2.214   7.271 -2.3160  0.1390 -1.9135
   85CHL1    C8 8710   6.294   1.989   7.300 -0.1226 -0.0364 -0.2910
   85CHL1    H8 8711   6.371   1.910   7.292  0.6266  0.4431  1.7472
   85CHL1   C14 8712   6.280   2.009   7.452 -0.5224 -0.6303  0.9236
   85CHL1   H14 8713   6.201   2.086   7.467  1.4729  1.5479  0.8897
   85CHL1   C15 8714   6.392   2.076   7.527  0.1033  0.2072 -0.9051
   85CHL1  H15A 8715   6.493   2.052   7.487  0.5353 -0.9726  0.7979
   85CHL1  H15B 8716   6.384   2.185   7.545  3.3255  0.3745  0.1451
   85CHL1   C16 8717   6.366   2.021   7.672 -0.1215  0.0270 -0.2169
   85CHL1  H16A 8718   6.450   1.952   7.698 -1.2523 -1.2870  0.1000
   85CHL1  H16B 8719   6.362   2.095   7.755  0.5697  0.0045 -0.1512
   85CHL1   C17 8720   6.242   1.924   7.668  0.9460 -0.5511 -0.0130
   85CHL1   H17 8721   6.155   1.994   7.667  0.7692 -0.7308 -2.3316
   85CHL1   C13 8722   6.243   1.877   7.516  0.4548  0.3492  0.2786
   85CHL1   C18 8723   6.345   1.764   7.504 -0.2808 -0.0396 -0.7169
   85CHL1  H18A 8724   6.445   1.793   7.542  0.2114 -0.9025 -1.3063
   85CHL1  H18B 8725   6.310   1.688   7.576 -2.1985  0.7290 -0.7741
   85CHL1  H18C 8726   6.351   1.733   7.397 -0.5723  0.3908 -0.8635
   85CHL1   C12 8727   6.109   1.835   7.461  0.2011 -0.3170 -0.0463
   85CHL1  H12A 8728   6.080   1.731   7.486  1.1137 -1.0660 -1.9289
   85CHL1  H12B 8729   6.032   1.904   7.500  0.0899 -0.1577 -0.5398
   85CHL1   C11 8730   6.105   1.822   7.309  0.0664  0.6044  0.0295
   85CHL1  H11A 8731   6.171   1.737   7.284  0.4386  0.6698  0.7463
   85CHL1  H11B 8732   6.001   1.805   7.274 -0.8361  0.4935  2.5035
   85CHL1    C9 8733   6.157   1.951   7.245  0.0404 -0.2648  0.1499
   85CHL1    H9 8734   6.088   2.028   7.287 -2.0487 -0.0645 -3.2302
   85CHL1   C10 8735   6.147   1.956   7.088 -0.3345  0.5880  0.1915
   85CHL1   C19 8736   6.207   1.816   7.027 -0.2850 -1.4385 -0.1791
   85CHL1  H19A 8737   6.137   1.740   7.066 -0.6397  0.7294  4.0130
   85CHL1  H19B 8738   6.199   1.818   6.916 -0.6006 -0.4078 -0.1485
   85CHL1  H19C 8739   6.310   1.786   7.057 -0.3251 -0.0112  1.6093
   85CHL1    C1 8740   5.998   1.982   7.040  0.1856  0.2274 -0.7104
   85CHL1   H1A 8741   5.935   1.901   7.083 -0.3367  0.5201 -0.9038
   85CHL1   H1B 8742   5.961   2.072   7.094  1.2956 -0.5666  1.4450
   85CHL1    C2 8743   5.988   2.003   6.887 -0.6715 -0.1398  0.0439
   85CHL1   H2A 8744   5.887   2.038   6.855 -0.3515 -0.0200 -0.8530
   85CHL1   H2B 8745   6.009   1.902   6.845 -0.0249 -0.3114  0.7478
   85CHL1   C20 8746   6.214   1.829   7.778  0.0718  0.0789 -1.0593
   85CHL1   H20 8747   6.283   1.743   7.764  0.5186  0.4864 -1.4196
   85CHL1   C21 8748   6.062   1.793   7.786 -0.1433  0.1175  0.2618
   85CHL1  H21A 8749   6.047   1.720   7.869 -2.5638  0.5333  0.2829
   85CHL1  H21B 8750   6.031   1.741   7.692 -2.3464  1.9766 -0.1333
   85CHL1  H21C 8751   6.004   1.887   7.792 -0.7519 -0.2353  0.0307
   85CHL1   C22 8752   6.246   1.889   7.919  0.5682 -0.5947  0.7743
   85CHL1  H22A 8753   6.337   1.953   7.914 -1.0503  2.0765 -6.3482
   85CHL1  H22B 8754   6.169   1.965   7.942  1.0560  0.0614  0.3043
   85CHL1   C23 8755   6.252   1.787   8.029  0.0283 -0.9143  0.2766
   85CHL1  H23A 8756   6.154   1.738   8.047 -0.2433 -0.9470 -1.1695
   85CHL1  H23B 8757   6.320   1.703   8.004  0.6301 -0.1607 -0.6749
   85CHL1   C24 8758   6.291   1.857   8.158  0.4309  0.1876 -0.1538
   85CHL1  H24A 8759   6.385   1.914   8.139  1.0625 -0.1551  1.7512
   85CHL1  H24B 8760   6.201   1.921   8.170 -1.5557 -1.9778 -2.4102
   85CHL1   C25 8761   6.292   1.769   8.285 -0.5500 -0.5237  0.2230
   85CHL1   H25 8762   6.361   1.684   8.268 -1.1788 -0.8315 -0.8713
   85CHL1   C26 8763   6.350   1.859   8.393 -0.2443 -0.1893  0.6499
   85CHL1  H26A 8764   6.373   1.785   8.473  0.8862 -1.5766 -0.8829
   85CHL1  H26B 8765   6.450   1.891   8.356  0.6363 -2.4038  1.0025
   85CHL1  H26C 8766   6.295   1.950   8.425 -0.6079 -0.3206  0.4079
   85CHL1   C27 8767   6.156   1.725   8.325  0.1101 -0.1066  0.5120
   85CHL1  H27A 8768   6.082   1.805   8.347 -0.9981 -0.8888 -0.2676
   85CHL1  H27B 8769   6.114   1.664   8.242  2.2800  2.0710 -2.3803
   85CHL1  H27C 8770   6.167   1.659   8.414 -0.2552 -0.2941  0.4192
   86CHL1    C3 8771   5.139   6.088   6.973  0.4169  0.2551  0.3379
   86CHL1    H3 8772   5.071   6.169   7.008 -0.9551 -0.9576  0.6008
   86CHL1    O3 8773   5.165   6.095   6.834 -0.4704 -0.2071  0.6120
   86CHL1   H3' 8774   5.214   6.015   6.815  1.0249  0.7952  0.1131
   86CHL1    C4 8775   5.264   6.092   7.061  0.0554 -0.3868  0.0732
   86CHL1   H4A 8776   5.334   6.014   7.023  0.4364  0.4778 -1.0588
   86CHL1   H4B 8777   5.316   6.188   7.039 -0.3258 -0.1285  0.2896
   86CHL1    C5 8778   5.244   6.060   7.208  0.3001 -0.5110  0.5700
   86CHL1    C6 8779   5.281   6.136   7.312  0.0619  0.1373  0.5210
   86CHL1    H6 8780   5.344   6.223   7.289 -0.6980  0.5764  0.0564
   86CHL1    C7 8781   5.270   6.091   7.451  0.4763  1.1981 -0.3063
   86CHL1   H7A 8782   5.368   6.102   7.502 -0.0617  1.1898  0.7511
   86CHL1   H7B 8783   5.188   6.142   7.505 -0.0210  0.7416 -0.6255
   86CHL1    C8 8784   5.245   5.933   7.459 -0.1684  0.0361 -0.6642
   86CHL1    H8 8785   5.344   5.889   7.433  0.7489  1.2536  0.5763
   86CHL1   C14 8786   5.207   5.905   7.604  0.3027 -0.1291 -0.5992
   86CHL1   H14 8787   5.118   5.970   7.623  0.7132  0.6348 -1.2260
   86CHL1   C15 8788   5.310   5.940   7.715  1.0653 -0.3681  0.2649
   86CHL1  H15A 8789   5.413   5.915   7.680  0.6877  0.6699 -1.7441
   86CHL1  H15B 8790   5.298   6.050   7.726  0.0023 -0.1441 -2.3425
   86CHL1   C16 8791   5.258   5.853   7.840 -0.3262  0.4253  0.0846
   86CHL1  H16A 8792   5.348   5.810   7.888 -0.4263  2.4441  2.2697
   86CHL1  H16B 8793   5.219   5.922   7.918 -0.2088  0.0798  0.4516
   86CHL1   C17 8794   5.152   5.752   7.788 -0.4866  0.0164 -0.0340
   86CHL1   H17 8795   5.053   5.798   7.808 -1.1992 -1.6214  0.3450
   86CHL1   C13 8796   5.165   5.759   7.630 -0.5092 -0.3973  0.2734
   86CHL1   C18 8797   5.279   5.661   7.580 -0.6013 -0.6894  0.2287
   86CHL1  H18A 8798   5.375   5.670   7.636 -0.8924 -1.6785  0.9109
   86CHL1  H18B 8799   5.229   5.567   7.610 -0.9784 -0.3220  0.7764
   86CHL1  H18C 8800   5.307   5.667   7.473  1.2592 -0.0428  0.7097
   86CHL1   C12 8801   5.037   5.730   7.545 -0.6021 -0.0096  0.0494
   86CHL1  H12A 8802   5.010   5.623   7.560 -0.3076 -0.1934 -0.6860
   86CHL1  H12B 8803   4.955   5.801   7.570  0.9978  1.3809  1.6593
   86CHL1   C11 8804   5.066   5.751   7.387  0.1647  0.1239  0.2408
   86CHL1  H11A 8805   5.125   5.667   7.344  1.3571  2.1395 -2.3508
   86CHL1  H11B 8806   4.971   5.739   7.331 -0.4346  1.8779  0.8182
   86CHL1    C9 8807   5.130   5.893   7.366 -0.3377 -0.1414  0.3878
   86CHL1    H9 8808   5.049   5.962   7.399  0.5124 -0.0724  2.4609
   86CHL1   C10 8809   5.173   5.923   7.217  0.0776 -0.5059 -0.0860
   86CHL1   C19 8810   5.270   5.813   7.176 -0.5440  0.1874 -0.3493
   86CHL1  H19A 8811   5.290   5.820   7.067  2.1548 -0.2054  0.0653
   86CHL1  H19B 8812   5.370   5.811   7.223  1.6799  2.2641 -4.4403
   86CHL1  H19C 8813   5.233   5.711   7.198 -0.4516  0.5105  1.4295
   86CHL1    C1 8814   5.038   5.925   7.132 -0.5652  0.4943  0.1875
   86CHL1   H1A 8815   4.990   5.826   7.116  1.9025 -0.4701 -2.0696
   86CHL1   H1B 8816   4.954   5.982   7.178  0.5157  0.2282  2.6309
   86CHL1    C2 8817   5.062   5.958   6.984 -0.4132 -0.2696  0.8539
   86CHL1   H2A 8818   4.970   5.971   6.922 -0.1613 -0.0316  0.5295
   86CHL1   H2B 8819   5.131   5.886   6.937  1.5303  2.5209 -0.8382
   86CHL1   C20 8820   5.147   5.617   7.858  0.3383 -0.0055 -0.3799
   86CHL1   H20 8821   5.229   5.559   7.811 -1.8277 -0.6376 -3.7160
   86CHL1   C21 8822   5.018   5.542   7.829  0.5613 -1.2241  0.1535
   86CHL1  H21A 8823   5.031   5.455   7.762 -1.2579 -1.0697 -0.4563
   86CHL1  H21B 8824   4.950   5.612   7.776  0.8363 -1.3137 -0.3219
   86CHL1  H21C 8825   4.958   5.514   7.918  0.0704  0.0544  0.2481
   86CHL1   C22 8826   5.166   5.629   8.008 -0.6282 -0.3008  0.2270
   86CHL1  H22A 8827   5.267   5.670   8.026 -0.1018 -1.0457 -0.9583
   86CHL1  H22B 8828   5.094   5.702   8.051 -0.3890  0.2633 -0.3125
   86CHL1   C23 8829   5.168   5.495   8.094  0.9368 -0.2969  0.6887
   86CHL1  H23A 8830   5.075   5.437   8.076 -0.7070  2.7506 -1.6106
   86CHL1  H23B 8831   5.247   5.435   8.044  1.1861  0.3101  0.3494
   86CHL1   C24 8832   5.198   5.523   8.238 -0.1872 -0.3345 -0.1477
   86CHL1  H24A 8833   5.216   5.428   8.293 -1.6394 -0.8660 -0.5574
   86CHL1  H24B 8834   5.293   5.579   8.251  0.1401 -1.0571  0.6826
   86CHL1   C25 8835   5.093   5.608   8.315 -0.1325 -0.0886  0.4301
   86CHL1   H25 8836   5.104   5.709   8.269  1.4713 -0.7069 -0.6788
   86CHL1   C26 8837   4.953   5.557   8.298  0.1066  0.2991  0.0455
   86CHL1  H26A 8838   4.912   5.592   8.201 -0.2303 -1.1938 -0.3794
   86CHL1  H26B 8839   4.939   5.446   8.294  2.4963 -0.0497 -0.2913
   86CHL1  H26C 8840   4.893   5.607   8.376  1.2244  1.3789  0.2315
   86CHL1   C27 8841   5.137   5.616   8.454 -0.6147  0.2602  0.0059
   86CHL1  H27A 8842   5.060   5.669   8.513  0.5824  1.9910  0.1005
   86CHL1  H27B 8843   5.149   5.513   8.494  0.5069  0.3226 -0.1215
   86CHL1  H27C 8844   5.229   5.679   8.466  0.3117 -1.3728  2.0761
   87CHL1    C3 8845   5.213   6.736   6.849  0.1744  0.6317 -0.1713
   87CHL1    H3 8846   5.179   6.841   6.862  0.5939  0.6346  1.0031
   87CHL1    O3 8847   5.238   6.710   6.710  0.3471  0.1582 -0.5461
   87CHL1   H3' 8848   5.298   6.634   6.711  0.9867  0.6474 -0.7700
   87CHL1    C4 8849   5.348   6.707   6.922  0.0650  0.4273  0.2496
   87CHL1   H4A 8850   5.370   6.599   6.907 -3.3408 -0.4201  0.5635
   87CHL1   H4B 8851   5.431   6.769   6.881 -0.1244  0.0005 -0.8116
   87CHL1    C5 8852   5.329   6.720   7.071  0.1809 -0.8901 -0.4914
   87CHL1    C6 8853   5.404   6.809   7.137  0.4552 -0.2575 -0.0882
   87CHL1    H6 8854   5.475   6.876   7.087  0.3518  0.8681  1.1868
   87CHL1    C7 8855   5.396   6.827   7.288 -0.7408 -0.3176  0.8159
   87CHL1   H7A 8856   5.497   6.836   7.335 -1.1724  0.0029  1.6998
   87CHL1   H7B 8857   5.356   6.929   7.309  0.6163  0.2276  0.8739
   87CHL1    C8 8858   5.316   6.711   7.364  0.8079 -0.3189 -0.5811
   87CHL1    H8 8859   5.385   6.624   7.357 -0.7843 -1.5817 -1.1719
   87CHL1   C14 8860   5.282   6.750   7.508 -0.9987  0.2230  0.0900
   87CHL1   H14 8861   5.217   6.840   7.498  1.6675  2.4977  1.7960
   87CHL1   C15 8862   5.395   6.802   7.601 -0.4709  0.0382 -0.0168
   87CHL1  H15A 8863   5.497   6.763   7.582 -0.7811 -0.3118 -1.0190
   87CHL1  H15B 8864   5.391   6.912   7.587  3.5277  0.2167 -1.0692
   87CHL1   C16 8865   5.354   6.752   7.741 -0.0878  0.0547 -0.0282
   87CHL1  H16A 8866   5.411   6.671   7.790  1.8811  0.5814 -1.3378
   87CHL1  H16B 8867   5.356   6.839   7.811 -1.8854 -0.6138  0.9193
   87CHL1   C17 8868   5.205   6.711   7.730  0.6000  0.1670  0.0433
   87CHL1   H17 8869   5.147   6.806   7.732 -1.9890 -1.2921  3.3443
   87CHL1   C13 8870   5.200   6.641   7.588  0.1486 -0.7629 -0.2734
   87CHL1   C18 8871   5.279   6.507   7.602 -0.3302 -0.5246  0.0414
   87CHL1  H18A 8872   5.379   6.523   7.649  1.3676 -3.2879 -2.3084
   87CHL1  H18B 8873   5.223   6.432   7.660  0.7410 -1.0355  0.4441
   87CHL1  H18C 8874   5.310   6.467   7.503  1.3272 -0.5978  0.5533
   87CHL1   C12 8875   5.063   6.620   7.513  0.0114 -0.0290  0.1679
   87CHL1  H12A 8876   4.997   6.536   7.542 -1.1953  0.4149 -1.1456
   87CHL1  H12B 8877   4.986   6.700   7.512 -2.2931 -2.0973  1.4203
   87CHL1   C11 8878   5.086   6.587   7.369 -0.2130 -0.2537 -0.0025
   87CHL1  H11A 8879   5.123   6.482   7.368 -0.8727 -0.4978  0.6276
   87CHL1  H11B 8880   4.989   6.602   7.318 -1.0897  1.9406  2.1439
   87CHL1    C9 8881   5.187   6.683   7.294  0.4660 -0.1028  0.2840
   87CHL1    H9 8882   5.135   6.781   7.288  1.9896  0.6210 -3.2244
   87CHL1   C10 8883   5.212   6.647   7.137 -0.6243  0.0752 -0.0235
   87CHL1   C19 8884   5.234   6.495   7.131 -0.3415 -0.1077  0.4056
   87CHL1  H19A 8885   5.153   6.434   7.175 -0.2742 -0.8108 -0.4140
   87CHL1  H19B 8886   5.261   6.448   7.034 -1.1145  0.3204 -0.0277
   87CHL1  H19C 8887   5.311   6.464   7.205 -1.6411 -1.0319  1.4114
   87CHL1    C1 8888   5.087   6.669   7.043 -0.2532 -0.6635 -0.1506
   87CHL1   H1A 8889   5.009   6.605   7.091 -0.6230  0.5004  0.8543
   87CHL1   H1B 8890   5.063   6.775   7.066 -1.5840 -1.2875  1.6690
   87CHL1    C2 8891   5.101   6.644   6.896  0.3755  0.5716  0.2485
   87CHL1   H2A 8892   5.019   6.675   6.827  1.2969 -0.3279 -1.3081
   87CHL1   H2B 8893   5.113   6.535   6.884 -1.3906  0.3178  0.5698
   87CHL1   C20 8894   5.160   6.633   7.849 -0.6127 -0.0487 -0.8609
   87CHL1   H20 8895   5.211   6.535   7.852  1.3536  0.9443  0.3311
   87CHL1   C21 8896   5.012   6.599   7.845  0.4198 -0.6441  0.7005
   87CHL1  H21A 8897   4.981   6.538   7.933 -2.6527  1.5013  1.2855
   87CHL1  H21B 8898   4.968   6.554   7.754  0.9368 -0.6809  0.4662
   87CHL1  H21C 8899   4.957   6.696   7.852 -0.2054 -0.8512 -0.9417
   87CHL1   C22 8900   5.193   6.691   7.991  0.0335 -0.2369  0.2849
   87CHL1  H22A 8901   5.302   6.712   7.987  0.3495 -1.6638  0.7410
   87CHL1  H22B 8902   5.129   6.781   8.000  0.6662  0.1058  1.5866
   87CHL1   C23 8903   5.190   6.601   8.112  0.1056  0.2865  0.0487
   87CHL1  H23A 8904   5.087   6.570   8.141  0.6064 -0.7662  0.7675
   87CHL1  H23B 8905   5.231   6.502   8.084 -0.6773  0.4044 -1.6026
   87CHL1   C24 8906   5.245   6.673   8.237 -0.2417 -0.4873 -1.2286
   87CHL1  H24A 8907   5.354   6.693   8.225 -0.7377  1.3979 -3.2376
   87CHL1  H24B 8908   5.200   6.774   8.244  2.1036  0.4957  0.8180
   87CHL1   C25 8909   5.214   6.586   8.360  0.5730  0.5044  0.4839
   87CHL1   H25 8910   5.106   6.562   8.369  0.3344  0.9752 -0.9453
   87CHL1   C26 8911   5.303   6.459   8.359 -0.4743 -0.0007 -0.9279
   87CHL1  H26A 8912   5.277   6.393   8.274 -2.0360  0.0043 -0.4811
   87CHL1  H26B 8913   5.412   6.482   8.365 -0.4558 -0.3105 -0.0328
   87CHL1  H26C 8914   5.283   6.405   8.453  0.0410 -1.1011 -1.4340
   87CHL1   C27 8915   5.240   6.664   8.481 -0.2195  0.2664 -0.1157
   87CHL1  H27A 8916   5.180   6.757   8.480  0.0525  0.4883  1.4685
   87CHL1  H27B 8917   5.209   6.599   8.566  0.0233  1.7937  1.1922
   87CHL1  H27C 8918   5.343   6.694   8.512 -0.3011 -0.5502  1.0293
   88CHL1    C3 8919   5.707   2.966   6.829 -0.3228  0.6713 -0.1889
   88CHL1    H3 8920   5.700   2.855   6.832  0.6806  0.6094 -0.0455
   88CHL1    O3 8921   5.706   3.013   6.696  0.2723 -0.2067 -0.1578
   88CHL1   H3' 8922   5.686   3.106   6.713  0.3145 -0.1868 -0.2194
   88CHL1    C4 8923   5.598   3.042   6.899  0.2218  0.5733 -0.0429
   88CHL1   H4A 8924   5.616   3.151   6.885 -1.0426  0.8082  0.0575
   88CHL1   H4B 8925   5.504   3.008   6.851  0.9766 -1.9106  0.0852
   88CHL1    C5 8926   5.600   3.014   7.045  0.0271  0.5229 -0.0491
   88CHL1    C6 8927   5.495   2.971   7.113 -0.0334 -0.9647 -0.0297
   88CHL1    H6 8928   5.401   2.970   7.057  0.4769 -2.1006 -0.9069
   88CHL1    C7 8929   5.485   2.949   7.257 -0.2425  0.4724  0.4712
   88CHL1   H7A 8930   5.396   3.002   7.297 -0.7139 -0.2878  0.4406
   88CHL1   H7B 8931   5.459   2.842   7.269 -3.3901  1.0536 -0.3979
   88CHL1    C8 8932   5.607   2.983   7.336  0.5700  0.2525 -0.3273
   88CHL1    H8 8933   5.592   3.090   7.363  0.4520  0.2310 -0.3079
   88CHL1   C14 8934   5.612   2.902   7.468 -0.0675  0.0077 -0.6865
   88CHL1   H14 8935   5.621   2.799   7.429 -1.2206  0.2969 -1.7912
   88CHL1   C15 8936   5.484   2.911   7.559  0.2344 -0.2540  0.6855
   88CHL1  H15A 8937   5.440   3.013   7.567 -0.0142 -0.2908 -0.1564
   88CHL1  H15B 8938   5.401   2.847   7.522  1.3479 -0.8510 -0.9056
   88CHL1   C16 8939   5.539   2.869   7.696  0.1063 -0.0800 -0.1493
   88CHL1  H16A 8940   5.491   2.933   7.773 -1.0141 -1.3133  0.2124
   88CHL1  H16B 8941   5.498   2.767   7.711 -0.0964 -0.0221 -0.3056
   88CHL1   C17 8942   5.697   2.862   7.691  0.2726  0.3754 -0.3397
   88CHL1   H17 8943   5.715   2.755   7.667 -2.7928 -0.3600  0.2460
   88CHL1   C13 8944   5.728   2.953   7.564 -0.2421 -0.1836  0.0103
   88CHL1   C18 8945   5.723   3.105   7.612 -0.0899 -0.4466  0.1338
   88CHL1  H18A 8946   5.802   3.108   7.691 -0.9271 -3.8211  1.2753
   88CHL1  H18B 8947   5.738   3.169   7.523 -2.3090 -1.8268 -1.3242
   88CHL1  H18C 8948   5.618   3.118   7.646 -0.2693  1.8034 -1.1413
   88CHL1   C12 8949   5.857   2.924   7.487 -1.0506  0.3558  0.5947
   88CHL1  H12A 8950   5.948   2.957   7.541 -1.4269 -0.3623  1.6984
   88CHL1  H12B 8951   5.878   2.818   7.462  0.0793  0.7782 -0.3541
   88CHL1   C11 8952   5.863   2.988   7.346 -0.2502  0.2776  0.3677
   88CHL1  H11A 8953   5.886   3.097   7.354 -0.3092  0.4076 -1.0137
   88CHL1  H11B 8954   5.948   2.943   7.291  0.8323  1.6171  0.8885
   88CHL1    C9 8955   5.735   2.964   7.255  0.2177  0.0873 -0.2849
   88CHL1    H9 8956   5.734   2.853   7.248 -0.5706  0.1295 -1.2043
   88CHL1   C10 8957   5.742   3.028   7.115 -0.8387 -1.3113 -0.7850
   88CHL1   C19 8958   5.769   3.181   7.123 -0.4352 -0.6660 -0.4969
   88CHL1  H19A 8959   5.878   3.199   7.141 -0.9041  1.2981  0.6702
   88CHL1  H19B 8960   5.744   3.241   7.033 -1.2627  0.4438  0.4488
   88CHL1  H19C 8961   5.704   3.221   7.203  1.8019 -1.0446  1.6360
   88CHL1    C1 8962   5.857   2.971   7.032  0.1156 -0.0657  0.6095
   88CHL1   H1A 8963   5.955   3.007   7.069  0.0668 -1.7014  2.4360
   88CHL1   H1B 8964   5.848   2.861   7.043  0.4497 -0.0959  0.5790
   88CHL1    C2 8965   5.844   3.007   6.883  0.0578 -0.1644 -0.6489
   88CHL1   H2A 8966   5.922   2.953   6.824 -1.2203 -3.2830  0.2988
   88CHL1   H2B 8967   5.848   3.117   6.869 -4.5112  0.3228  0.2941
   88CHL1   C20 8968   5.766   2.898   7.821  0.2937 -0.8702  0.0304
   88CHL1   H20 8969   5.730   2.999   7.848  1.3270 -0.1559 -1.1646
   88CHL1   C21 8970   5.917   2.901   7.809  0.2941 -0.0178  0.3826
   88CHL1  H21A 8971   5.949   2.968   7.726 -1.5460 -2.8732 -2.9203
   88CHL1  H21B 8972   5.955   2.797   7.798  1.4493  0.4625 -0.4010
   88CHL1  H21C 8973   5.971   2.937   7.899 -2.1156  2.1851  1.0398
   88CHL1   C22 8974   5.723   2.809   7.941 -0.0090  0.4954 -0.1858
   88CHL1  H22A 8975   5.614   2.789   7.939 -0.0102  0.5274 -0.5130
   88CHL1  H22B 8976   5.777   2.712   7.932 -0.4120  0.0909  1.3717
   88CHL1   C23 8977   5.775   2.864   8.076  0.0794  0.6658 -0.8903
   88CHL1  H23A 8978   5.885   2.873   8.085 -0.0336  2.8524 -1.0186
   88CHL1  H23B 8979   5.742   2.969   8.091 -2.1899 -0.4154  3.4015
   88CHL1   C24 8980   5.727   2.784   8.196 -0.2848 -0.1525 -0.5372
   88CHL1  H24A 8981   5.616   2.778   8.189 -0.5580 -1.2996  3.0633
   88CHL1  H24B 8982   5.766   2.680   8.191 -0.7945 -0.4155  0.6834
   88CHL1   C25 8983   5.766   2.840   8.334 -0.8616 -0.0743  0.0667
   88CHL1   H25 8984   5.876   2.833   8.347 -1.1620 -0.9977  2.6242
   88CHL1   C26 8985   5.733   2.992   8.344 -0.1341  0.5532 -0.6769
   88CHL1  H26A 8986   5.753   3.021   8.450 -0.0872  0.1704 -0.5807
   88CHL1  H26B 8987   5.784   3.057   8.270 -0.5367 -0.9615 -2.3487
   88CHL1  H26C 8988   5.627   3.006   8.313  0.1042 -0.6834 -2.1019
   88CHL1   C27 8989   5.702   2.753   8.451  0.3370 -0.4624  0.0879
   88CHL1  H27A 8990   5.744   2.786   8.549 -0.1594  1.8095 -0.4274
   88CHL1  H27B 8991   5.595   2.779   8.452  0.3959 -0.0030  3.0103
   88CHL1  H27C 8992   5.694   2.643   8.434 -1.3699 -0.6550  1.8487
   89CHL1    C3 8993   2.898   5.430   7.093  0.1340 -0.1293 -0.6985
   89CHL1    H3 8994   2.916   5.540   7.104 -0.8513  0.0325 -0.6082
   89CHL1    O3 8995   2.877   5.410   6.960  0.5046 -0.7325 -0.0763
   89CHL1   H3' 8996   2.967   5.403   6.926  0.4847 -0.0103 -0.2863
   89CHL1    C4 8997   3.019   5.344   7.132  0.6902 -0.1203 -0.0457
   89CHL1   H4A 8998   3.002   5.237   7.109 -0.1251  0.1308 -0.6834
   89CHL1   H4B 8999   3.104   5.377   7.069  0.0989  0.6841 -0.4458
   89CHL1    C5 9000   3.053   5.361   7.281  0.4909 -0.2158 -0.3932
   89CHL1    C6 9001   3.176   5.396   7.318 -0.0556 -0.1140  0.1876
   89CHL1    H6 9002   3.259   5.408   7.247  0.3098  1.2618  0.8059
   89CHL1    C7 9003   3.210   5.409   7.469  0.0859  0.1326  0.0656
   89CHL1   H7A 9004   3.308   5.358   7.484  0.2984 -0.3917 -2.6447
   89CHL1   H7B 9005   3.231   5.515   7.494  2.6449 -0.1983 -0.4218
   89CHL1    C8 9006   3.113   5.343   7.569  0.0381 -0.2814  0.7108
   89CHL1    H8 9007   3.131   5.233   7.570 -2.7618 -0.8140  0.4348
   89CHL1   C14 9008   3.134   5.398   7.700  0.0536 -0.2783  0.0638
   89CHL1   H14 9009   3.108   5.506   7.698  2.1087  0.2535 -0.0786
   89CHL1   C15 9010   3.281   5.403   7.753  0.5267 -1.0837  0.6688
   89CHL1  H15A 9011   3.324   5.301   7.744  0.3231 -1.2742  1.7318
   89CHL1  H15B 9012   3.344   5.481   7.703  0.5860  0.1758  2.5961
   89CHL1   C16 9013   3.258   5.439   7.898  0.6335 -0.2558 -0.7828
   89CHL1  H16A 9014   3.330   5.385   7.963  1.1683  1.3016 -0.0083
   89CHL1  H16B 9015   3.280   5.544   7.929  2.1916 -0.9127  0.4743
   89CHL1   C17 9016   3.108   5.412   7.930  0.0137 -0.0903 -0.2435
   89CHL1   H17 9017   3.064   5.514   7.926 -1.5209 -0.6688  0.7742
   89CHL1   C13 9018   3.046   5.337   7.811  0.2957 -0.6716 -0.3136
   89CHL1   C18 9019   3.084   5.187   7.833 -0.0809 -0.7180 -0.4810
   89CHL1  H18A 9020   3.182   5.178   7.884 -0.6072 -5.2569  0.1730
   89CHL1  H18B 9021   3.010   5.128   7.891  0.4245 -1.4154 -0.5284
   89CHL1  H18C 9022   3.092   5.138   7.733 -0.1273 -0.7756 -0.4562
   89CHL1   C12 9023   2.900   5.357   7.776  0.8613  0.1032 -0.1223
   89CHL1  H12A 9024   2.835   5.304   7.850 -1.7593 -0.0752 -2.3674
   89CHL1  H12B 9025   2.863   5.462   7.783  0.5501 -0.0088 -0.0347
   89CHL1   C11 9026   2.875   5.294   7.632 -0.1793 -0.0398 -0.5321
   89CHL1  H11A 9027   2.891   5.184   7.626 -0.5933 -0.0405 -2.3550
   89CHL1  H11B 9028   2.770   5.308   7.597  0.9447  2.0477 -3.5093
   89CHL1    C9 9029   2.970   5.362   7.529  0.0787 -0.4753 -0.7988
   89CHL1    H9 9030   2.955   5.472   7.527  1.9860 -0.1828 -0.3546
   89CHL1   C10 9031   2.938   5.331   7.383  0.6380  0.3192  0.4287
   89CHL1   C19 9032   2.926   5.175   7.369  0.1928 -0.2015  0.9193
   89CHL1  H19A 9033   2.921   5.138   7.264  1.1365 -2.1360  1.5070
   89CHL1  H19B 9034   3.001   5.119   7.428 -0.4241 -0.9417  1.0211
   89CHL1  H19C 9035   2.826   5.150   7.411 -1.1050  0.6264 -1.4309
   89CHL1    C1 9036   2.809   5.408   7.334 -0.1939 -0.5135 -0.2215
   89CHL1   H1A 9037   2.719   5.378   7.392  0.2467 -0.6801  0.3852
   89CHL1   H1B 9038   2.840   5.513   7.346  0.6431 -1.0564  4.0843
   89CHL1    C2 9039   2.776   5.391   7.182  0.2595 -0.7424 -0.3535
   89CHL1   H2A 9040   2.692   5.459   7.155  0.1112 -0.1872  1.3770
   89CHL1   H2B 9041   2.760   5.284   7.157 -1.3019 -0.5678 -0.1749
   89CHL1   C20 9042   3.088   5.357   8.077 -1.0359  0.1638  0.1711
   89CHL1   H20 9043   3.117   5.250   8.089  1.8546  1.0541  1.9783
   89CHL1   C21 9044   2.941   5.360   8.101 -0.5381 -0.5399  0.4006
   89CHL1  H21A 9045   2.875   5.308   8.029 -0.8529  1.6196 -0.9794
   89CHL1  H21B 9046   2.903   5.464   8.109  0.0475  0.0841 -3.3446
   89CHL1  H21C 9047   2.907   5.308   8.193 -1.7298 -3.0478 -1.3637
   89CHL1   C22 9048   3.159   5.445   8.185 -0.1597 -0.4042 -0.4465
   89CHL1  H22A 9049   3.266   5.469   8.167 -0.0710  1.3517  1.9186
   89CHL1  H22B 9050   3.117   5.547   8.169 -1.9802 -0.8131  1.2295
   89CHL1   C23 9051   3.143   5.399   8.334 -0.2166 -0.3258  0.9213
   89CHL1  H23A 9052   3.214   5.458   8.396  1.3759  0.6215 -1.6590
   89CHL1  H23B 9053   3.035   5.415   8.357 -0.9430 -2.5753 -0.5393
   89CHL1   C24 9054   3.178   5.254   8.356  1.1774 -0.0691  0.2464
   89CHL1  H24A 9055   3.107   5.195   8.295 -1.7875  3.5810 -0.1941
   89CHL1  H24B 9056   3.281   5.236   8.321  1.4125  2.6776 -0.7528
   89CHL1   C25 9057   3.166   5.221   8.508  0.0365  0.3639 -0.1528
   89CHL1   H25 9058   3.231   5.294   8.560 -1.7178  1.0591  1.1505
   89CHL1   C26 9059   3.029   5.241   8.564 -0.0266 -0.0593 -0.3708
   89CHL1  H26A 9060   3.045   5.218   8.672  0.8075  0.9015 -0.2735
   89CHL1  H26B 9061   2.978   5.339   8.562 -0.5316 -0.3136 -0.1779
   89CHL1  H26C 9062   2.958   5.164   8.527  0.9112 -0.8344 -0.5931
   89CHL1   C27 9063   3.229   5.082   8.539  0.3933 -0.0996  0.2264
   89CHL1  H27A 9064   3.232   5.070   8.650 -0.3036  0.9917  0.3723
   89CHL1  H27B 9065   3.185   4.994   8.487 -1.5875 -0.5944  2.5386
   89CHL1  H27C 9066   3.337   5.066   8.515 -0.0784 -2.9155 -0.4350
   90CHL1    C3 9067   6.240   6.146   6.823 -0.9366 -0.2192 -0.5393
   90CHL1    H3 9068   6.241   6.256   6.810  2.2353 -0.1843 -0.8343
   90CHL1    O3 9069   6.252   6.082   6.695 -0.1918  0.0488  0.0382
   90CHL1   H3' 9070   6.163   6.097   6.662  0.4464 -1.1682 -2.5127
   90CHL1    C4 9071   6.366   6.106   6.907 -0.3864  0.6914  0.2830
   90CHL1   H4A 9072   6.369   5.996   6.917 -1.8733  0.5931 -0.0930
   90CHL1   H4B 9073   6.455   6.142   6.852 -0.9692  0.1033 -1.0859
   90CHL1    C5 9074   6.354   6.152   7.049 -0.6546 -0.4700  0.5859
   90CHL1    C6 9075   6.451   6.224   7.109  0.1889 -0.0310  0.1628
   90CHL1    H6 9076   6.535   6.253   7.045 -0.1204 -0.9243 -0.6571
   90CHL1    C7 9077   6.457   6.276   7.252 -0.0438 -0.2866  0.5682
   90CHL1   H7A 9078   6.555   6.251   7.299 -0.1767  2.0124  2.1803
   90CHL1   H7B 9079   6.449   6.386   7.256  1.2221 -0.1253 -0.4442
   90CHL1    C8 9080   6.334   6.219   7.332 -0.1580 -0.3377  0.5046
   90CHL1    H8 9081   6.363   6.116   7.362  0.1535 -0.3840  0.0493
   90CHL1   C14 9082   6.320   6.300   7.470 -0.5583  0.2835 -0.0914
   90CHL1   H14 9083   6.294   6.404   7.441 -0.8506 -0.3741 -2.3654
   90CHL1   C15 9084   6.445   6.308   7.560  0.2118  0.2838 -0.7631
   90CHL1  H15A 9085   6.501   6.213   7.553  0.3036  0.2720  0.1063
   90CHL1  H15B 9086   6.510   6.397   7.546 -1.0664  1.6063  1.2451
   90CHL1   C16 9087   6.385   6.327   7.702  0.1088  0.3608 -0.2040
   90CHL1  H16A 9088   6.430   6.258   7.776  0.8934 -0.7350 -1.6443
   90CHL1  H16B 9089   6.401   6.429   7.743  2.7290 -0.0384 -0.0722
   90CHL1   C17 9090   6.233   6.308   7.695 -1.0402 -0.4566  0.2244
   90CHL1   H17 9091   6.196   6.412   7.680 -2.6550 -1.0467 -0.0103
   90CHL1   C13 9092   6.210   6.232   7.560 -0.5838  0.0123 -0.9626
   90CHL1   C18 9093   6.253   6.084   7.596 -0.4380 -0.3711 -0.3323
   90CHL1  H18A 9094   6.166   6.034   7.643 -0.4098  0.9426  1.2062
   90CHL1  H18B 9095   6.278   6.029   7.503  3.4518  0.2201  0.2109
   90CHL1  H18C 9096   6.331   6.080   7.675 -1.7796 -0.8251  1.0356
   90CHL1   C12 9097   6.076   6.234   7.478  0.1889 -0.0363 -0.6440
   90CHL1  H12A 9098   5.999   6.204   7.552 -1.2520  3.6413 -0.4189
   90CHL1  H12B 9099   6.051   6.342   7.467  1.5121  0.3679  0.0972
   90CHL1   C11 9100   6.080   6.178   7.336  0.1424 -0.2463  0.3414
   90CHL1  H11A 9101   6.093   6.068   7.347 -0.0913 -0.2238  0.8782
   90CHL1  H11B 9102   5.984   6.195   7.283 -0.0880 -1.9689  0.1743
   90CHL1    C9 9103   6.205   6.213   7.251  0.0749 -0.0760 -0.5899
   90CHL1    H9 9104   6.188   6.317   7.216  0.0607 -0.1579 -0.8308
   90CHL1   C10 9105   6.214   6.126   7.120  0.3835 -0.3610  0.6352
   90CHL1   C19 9106   6.205   5.971   7.143 -0.4447  0.1950 -0.6304
   90CHL1  H19A 9107   6.240   5.907   7.060 -0.4479 -0.7201  0.0503
   90CHL1  H19B 9108   6.277   5.951   7.225 -0.2493 -0.5193 -0.9710
   90CHL1  H19C 9109   6.100   5.952   7.176  0.2071 -2.5265  0.2122
   90CHL1    C1 9110   6.094   6.164   7.021 -0.6194  0.1955  0.5020
   90CHL1   H1A 9111   5.999   6.137   7.072 -1.0859  0.0862 -0.4068
   90CHL1   H1B 9112   6.095   6.275   7.016  1.2441  0.1784 -1.2007
   90CHL1    C2 9113   6.109   6.099   6.884  0.2262  0.1773 -0.4215
   90CHL1   H2A 9114   6.027   6.120   6.812  0.4127  1.4065 -0.2914
   90CHL1   H2B 9115   6.112   5.988   6.888 -2.5730 -0.0143 -1.5749
   90CHL1   C20 9116   6.170   6.266   7.825  0.3341  0.8673 -0.3957
   90CHL1   H20 9117   6.189   6.157   7.835 -1.0189  0.0856 -4.6155
   90CHL1   C21 9118   6.018   6.281   7.814 -0.2403  0.3691  0.0342
   90CHL1  H21A 9119   5.985   6.352   7.736 -0.9900  0.6480  0.5869
   90CHL1  H21B 9120   5.982   6.309   7.915  1.0142  1.2702  0.2547
   90CHL1  H21C 9121   5.966   6.183   7.802  0.3155 -0.0873  1.1855
   90CHL1   C22 9122   6.236   6.335   7.952  0.2138  0.1582  0.3689
   90CHL1  H22A 9123   6.344   6.314   7.966 -0.0853 -0.5964  1.7275
   90CHL1  H22B 9124   6.224   6.444   7.931  0.9825 -0.3039 -3.1099
   90CHL1   C23 9125   6.177   6.293   8.091 -0.1101  0.9309  0.4987
   90CHL1  H23A 9126   6.186   6.382   8.156 -2.7300  1.4770  0.2565
   90CHL1  H23B 9127   6.066   6.281   8.091 -0.1090  0.8977  0.1645
   90CHL1   C24 9128   6.251   6.172   8.149  0.6152  0.1002 -0.1142
   90CHL1  H24A 9129   6.242   6.091   8.074  1.8920 -0.6439  0.4975
   90CHL1  H24B 9130   6.353   6.209   8.172  0.3450  0.8535 -0.1124
   90CHL1   C25 9131   6.199   6.122   8.287 -0.4575 -0.0473 -0.9557
   90CHL1   H25 9132   6.159   6.209   8.345  0.2096  0.1327 -0.7535
   90CHL1   C26 9133   6.075   6.038   8.273  0.5105 -0.0963 -0.1388
   90CHL1  H26A 9134   6.103   5.950   8.211 -2.0095 -0.7945 -0.4174
   90CHL1  H26B 9135   6.012   6.010   8.361 -1.0939  0.3047 -1.1065
   90CHL1  H26C 9136   6.000   6.094   8.213  0.2569  0.6216  0.8260
   90CHL1   C27 9137   6.305   6.052   8.370 -0.2223 -0.6607 -0.4160
   90CHL1  H27A 9138   6.346   5.965   8.314 -0.6964 -0.8455 -0.4809
   90CHL1  H27B 9139   6.390   6.119   8.397  0.9541 -0.5600 -3.8097
   90CHL1  H27C 9140   6.262   6.018   8.466 -1.8724  1.3749 -0.3639
   91CHL1    C3 9141   2.396   1.071   7.344 -0.1367 -0.3737  0.7879
   91CHL1    H3 9142   2.448   0.973   7.343 -1.0682 -0.8913  1.6300
   91CHL1    O3 9143   2.401   1.135   7.218  0.1014 -0.2394  0.0775
   91CHL1   H3' 9144   2.310   1.160   7.197 -0.0903 -0.3606  0.7550
   91CHL1    C4 9145   2.252   1.049   7.387 -0.5157 -0.2146 -0.1283
   91CHL1   H4A 9146   2.198   1.144   7.365 -0.3374  0.3604  1.6994
   91CHL1   H4B 9147   2.221   0.974   7.312 -1.5968  0.3340 -0.2397
   91CHL1    C5 9148   2.242   1.013   7.534  0.2764  0.2667  0.8660
   91CHL1    C6 9149   2.181   0.895   7.570 -0.4423  0.3522 -0.4298
   91CHL1    H6 9150   2.128   0.838   7.492  1.7172 -1.2018 -0.8552
   91CHL1    C7 9151   2.150   0.849   7.707  0.0688 -0.8696 -0.1361
   91CHL1   H7A 9152   2.041   0.827   7.717  0.2901 -3.6348 -2.5936
   91CHL1   H7B 9153   2.211   0.757   7.699 -0.9941 -1.5169 -1.1867
   91CHL1    C8 9154   2.189   0.950   7.818  0.0283 -0.8781 -0.0327
   91CHL1    H8 9155   2.105   1.024   7.822  2.1129  1.6335  0.2069
   91CHL1   C14 9156   2.205   0.884   7.950  0.7763  0.1609 -0.5881
   91CHL1   H14 9157   2.303   0.831   7.940 -0.4385 -2.7451  1.7000
   91CHL1   C15 9158   2.106   0.779   7.993 -0.3941  0.3193 -0.1453
   91CHL1  H15A 9159   2.003   0.797   7.953 -1.0596 -1.2826  0.7455
   91CHL1  H15B 9160   2.141   0.685   7.946 -0.0228  1.0563 -1.3944
   91CHL1   C16 9161   2.108   0.775   8.145 -0.2245 -0.4039 -0.1823
   91CHL1  H16A 9162   2.006   0.803   8.179  0.2007  1.2638 -0.1984
   91CHL1  H16B 9163   2.142   0.676   8.182 -0.1559 -0.8173 -1.3014
   91CHL1   C17 9164   2.211   0.884   8.190 -0.4578 -0.8734  0.2202
   91CHL1   H17 9165   2.309   0.833   8.205 -0.4195 -1.0164 -0.5098
   91CHL1   C13 9166   2.222   0.985   8.070  0.6141  0.1612 -0.3991
   91CHL1   C18 9167   2.102   1.074   8.089 -0.2855  0.0956 -0.0088
   91CHL1  H18A 9168   2.005   1.019   8.085  0.1565 -0.6280 -1.6826
   91CHL1  H18B 9169   2.112   1.129   8.185  0.0204  0.6045 -0.3314
   91CHL1  H18C 9170   2.091   1.155   8.014 -0.7907  0.6371  0.6302
   91CHL1   C12 9171   2.352   1.058   8.043  0.3376  0.5529 -0.5422
   91CHL1  H12A 9172   2.369   1.128   8.127 -1.5720  1.4459 -0.8451
   91CHL1  H12B 9173   2.439   0.990   8.050 -0.1473 -0.0372 -0.0610
   91CHL1   C11 9174   2.356   1.125   7.901 -0.0932  0.5148 -1.3828
   91CHL1  H11A 9175   2.281   1.207   7.909  0.4427  0.9424 -0.6582
   91CHL1  H11B 9176   2.455   1.171   7.880  1.6944 -1.7350  1.3846
   91CHL1    C9 9177   2.318   1.029   7.784 -0.4913  0.5014  0.2803
   91CHL1    H9 9178   2.398   0.952   7.777  2.3958  3.3829 -1.0578
   91CHL1   C10 9179   2.313   1.097   7.638 -0.0728  0.2791  0.0405
   91CHL1   C19 9180   2.245   1.242   7.645  0.5550 -0.4796  0.0230
   91CHL1  H19A 9181   2.306   1.311   7.707 -0.1186  0.3005 -0.1661
   91CHL1  H19B 9182   2.248   1.289   7.545  0.8245 -0.0822  0.2143
   91CHL1  H19C 9183   2.144   1.229   7.689  1.0373 -1.0422  1.0212
   91CHL1    C1 9184   2.456   1.107   7.584 -0.0743 -0.6609 -0.9367
   91CHL1   H1A 9185   2.512   1.166   7.660 -2.9824  2.0593 -0.6858
   91CHL1   H1B 9186   2.510   1.012   7.601 -1.1047 -0.7091  3.1853
   91CHL1    C2 9187   2.464   1.165   7.439 -0.6735 -0.3376 -0.2085
   91CHL1   H2A 9188   2.568   1.178   7.401 -1.6434  3.4751 -1.9844
   91CHL1   H2B 9189   2.417   1.265   7.443 -2.3560 -1.0931 -0.3226
   91CHL1   C20 9190   2.189   0.937   8.334 -0.1962 -0.4427 -0.0650
   91CHL1   H20 9191   2.213   1.045   8.325  2.7716 -1.1599 -2.3450
   91CHL1   C21 9192   2.281   0.863   8.432  0.1449 -0.1695  0.5096
   91CHL1  H21A 9193   2.249   0.872   8.538 -1.5930 -1.0035  0.0845
   91CHL1  H21B 9194   2.382   0.908   8.421 -0.9449  1.7919 -3.0936
   91CHL1  H21C 9195   2.289   0.755   8.411  0.1187  0.1026 -1.0022
   91CHL1   C22 9196   2.041   0.931   8.397  0.0322 -0.6131  0.4802
   91CHL1  H22A 9197   1.975   0.993   8.334  1.0621  2.3781  2.1422
   91CHL1  H22B 9198   2.009   0.825   8.407 -2.1083  0.0749  1.4452
   91CHL1   C23 9199   2.033   1.015   8.533  0.4955  0.5473 -0.6168
   91CHL1  H23A 9200   2.090   0.968   8.617 -0.0526  0.6942 -0.1528
   91CHL1  H23B 9201   2.080   1.115   8.525 -0.6920  1.6736  3.5713
   91CHL1   C24 9202   1.886   1.039   8.576 -0.7049  0.3655 -0.5697
   91CHL1  H24A 9203   1.827   1.062   8.485  1.0119  2.0387 -1.3168
   91CHL1  H24B 9204   1.844   0.946   8.619  0.0072 -0.1055 -0.8806
   91CHL1   C25 9205   1.858   1.150   8.682  0.2791  0.4499 -0.3523
   91CHL1   H25 9206   1.916   1.119   8.772 -1.9766 -3.6069 -0.0259
   91CHL1   C26 9207   1.921   1.285   8.656  0.0438 -0.1709 -0.3384
   91CHL1  H26A 9208   1.913   1.366   8.731  0.8436 -1.1174  0.8186
   91CHL1  H26B 9209   2.031   1.271   8.646  0.2770  1.3820 -0.1723
   91CHL1  H26C 9210   1.869   1.316   8.563 -1.7741 -3.1637 -0.4545
   91CHL1   C27 9211   1.716   1.153   8.728 -0.0430  0.2143  0.4170
   91CHL1  H27A 9212   1.692   1.203   8.824 -1.0683 -1.9954  1.4018
   91CHL1  H27B 9213   1.663   1.202   8.644 -1.3295 -0.4304  0.8220
   91CHL1  H27C 9214   1.680   1.048   8.738 -0.8280  0.3874 -0.4971
   92CHL1    C3 9215   0.908   4.583   7.043 -0.6456 -0.0403  0.2035
   92CHL1    H3 9216   0.942   4.480   7.069  2.4670  1.2724  1.9026
   92CHL1    O3 9217   0.887   4.617   6.909  0.3037 -0.3178  0.3811
   92CHL1   H3' 9218   0.874   4.712   6.904 -0.3290 -0.4456 -1.4563
   92CHL1    C4 9219   0.784   4.629   7.124  0.1585  0.6953 -0.0634
   92CHL1   H4A 9220   0.760   4.734   7.100  0.3142  0.6152 -0.5804
   92CHL1   H4B 9221   0.707   4.560   7.083 -0.1147  0.0649  1.4370
   92CHL1    C5 9222   0.803   4.623   7.273 -0.3107  0.0958 -0.1449
   92CHL1    C6 9223   0.717   4.553   7.348  0.3629 -0.3396  0.5424
   92CHL1    H6 9224   0.625   4.510   7.306 -0.9110  1.0879  1.7136
   92CHL1    C7 9225   0.727   4.541   7.499 -0.2989 -0.2322  0.0164
   92CHL1   H7A 9226   0.638   4.580   7.552 -0.2843 -1.0585  0.6688
   92CHL1   H7B 9227   0.749   4.438   7.534  1.4077 -1.1809 -3.3734
   92CHL1    C8 9228   0.834   4.642   7.554 -0.3532 -0.5407 -0.1413
   92CHL1    H8 9229   0.784   4.741   7.553  0.1739 -0.2695 -1.3995
   92CHL1   C14 9230   0.875   4.608   7.695  0.2000  0.5197  0.7571
   92CHL1   H14 9231   0.925   4.510   7.680  2.1566  1.4265  1.0956
   92CHL1   C15 9232   0.758   4.594   7.792 -0.4968 -0.5005  0.1691
   92CHL1  H15A 9233   0.691   4.682   7.785  0.6042  0.6308  2.6823
   92CHL1  H15B 9234   0.707   4.496   7.776 -0.6682 -0.2979 -0.5557
   92CHL1   C16 9235   0.825   4.608   7.928 -0.2649  0.2955 -0.4608
   92CHL1  H16A 9236   0.797   4.702   7.980 -1.1667 -0.5031  0.5634
   92CHL1  H16B 9237   0.809   4.517   7.991 -1.4356  0.0189 -1.1255
   92CHL1   C17 9238   0.980   4.628   7.901  0.3988 -0.0376 -0.1853
   92CHL1   H17 9239   1.020   4.525   7.887 -1.0303 -0.6115 -0.2123
   92CHL1   C13 9240   0.976   4.687   7.762  0.2800  0.7788  0.3416
   92CHL1   C18 9241   0.946   4.838   7.769 -0.4875 -0.6414 -0.0837
   92CHL1  H18A 9242   0.859   4.855   7.836 -0.6564  0.7270 -0.6243
   92CHL1  H18B 9243   1.031   4.891   7.816 -0.6947 -1.1620  0.9116
   92CHL1  H18C 9244   0.927   4.862   7.663 -0.5316 -1.1823 -0.2030
   92CHL1   C12 9245   1.109   4.674   7.682  0.6759  0.2293 -0.9574
   92CHL1  H12A 9246   1.179   4.738   7.741 -2.8561  2.1512  1.5591
   92CHL1  H12B 9247   1.128   4.565   7.692 -1.6224 -0.0948  0.8256
   92CHL1   C11 9248   1.098   4.700   7.535  0.7286  0.1534 -0.1498
   92CHL1  H11A 9249   1.093   4.810   7.516  1.0785  0.3364  0.7746
   92CHL1  H11B 9250   1.181   4.652   7.479  0.7791  1.3337 -1.1338
   92CHL1    C9 9251   0.969   4.641   7.475 -0.3097  0.6924 -0.2181
   92CHL1    H9 9252   0.991   4.533   7.459 -1.9191 -0.0986  2.3414
   92CHL1   C10 9253   0.939   4.686   7.333  0.6030  0.7566  0.5267
   92CHL1   C19 9254   0.904   4.846   7.324  0.3612  0.5109  0.2163
   92CHL1  H19A 9255   0.999   4.903   7.331 -0.2769  1.9967 -2.0643
   92CHL1  H19B 9256   0.851   4.869   7.229  2.7593  1.3002 -0.9952
   92CHL1  H19C 9257   0.839   4.861   7.413 -0.9066  0.2810 -0.6367
   92CHL1    C1 9258   1.059   4.657   7.236 -0.5148 -0.3216  0.0853
   92CHL1   H1A 9259   1.146   4.723   7.256 -1.0949  0.5473 -0.2211
   92CHL1   H1B 9260   1.088   4.553   7.262  1.4970  0.6749  2.1617
   92CHL1    C2 9261   1.028   4.670   7.081  0.1016 -0.5232 -0.1945
   92CHL1   H2A 9262   1.118   4.629   7.031  0.6181  0.5944 -0.2118
   92CHL1   H2B 9263   1.010   4.775   7.048 -0.6655 -0.8637 -0.8802
   92CHL1   C20 9264   1.058   4.684   8.019  0.0538 -0.1837 -0.3697
   92CHL1   H20 9265   1.039   4.793   8.020  4.1564  0.6802 -0.7963
   92CHL1   C21 9266   1.214   4.665   8.003  0.5021  0.0265 -0.2495
   92CHL1  H21A 9267   1.267   4.690   8.097  0.2046 -0.7531  0.1303
   92CHL1  H21B 9268   1.256   4.741   7.934  1.3898 -1.1412 -1.0447
   92CHL1  H21C 9269   1.237   4.560   7.977 -1.6009 -0.7686  0.8445
   92CHL1   C22 9270   1.028   4.642   8.165 -0.1736 -0.1085 -0.7580
   92CHL1  H22A 9271   1.092   4.709   8.226 -3.2537  3.4929 -1.1306
   92CHL1  H22B 9272   0.922   4.674   8.177 -0.5660 -1.7851  0.7210
   92CHL1   C23 9273   1.042   4.492   8.202  0.2018 -0.1392 -0.0240
   92CHL1  H23A 9274   0.957   4.438   8.155  0.6154 -1.0248  0.2439
   92CHL1  H23B 9275   1.136   4.447   8.164 -0.7400 -1.2799 -1.0876
   92CHL1   C24 9276   1.048   4.463   8.356  0.6168 -0.7253  0.5956
   92CHL1  H24A 9277   1.141   4.511   8.394 -1.3441  1.7680  2.5985
   92CHL1  H24B 9278   0.959   4.513   8.399 -0.1470 -1.0415 -0.5733
   92CHL1   C25 9279   1.054   4.310   8.410 -0.0758  0.1881  0.4079
   92CHL1   H25 9280   1.141   4.270   8.354 -1.1060  1.1746 -2.0168
   92CHL1   C26 9281   1.081   4.290   8.557 -0.5733  0.1340 -0.0562
   92CHL1  H26A 9282   1.113   4.186   8.577  0.4473  0.6415  1.0660
   92CHL1  H26B 9283   1.158   4.364   8.589  0.9535 -1.3261 -0.2885
   92CHL1  H26C 9284   0.993   4.305   8.624 -0.0321 -0.5524  0.8219
   92CHL1   C27 9285   0.938   4.219   8.366  0.0394 -0.0749  0.9521
   92CHL1  H27A 9286   0.840   4.262   8.395 -0.0031 -0.2652  1.0967
   92CHL1  H27B 9287   0.940   4.205   8.256  0.5137 -0.1802  0.9683
   92CHL1  H27C 9288   0.938   4.118   8.412 -0.5284  0.1559  1.4688
   93CHL1    C3 9289   0.318   1.139   7.032  0.1137 -0.2770 -0.6843
   93CHL1    H3 9290   0.362   1.044   7.070 -0.0649 -1.3918 -3.0573
   93CHL1    O3 9291   0.315   1.123   6.893  0.2971  0.2382  0.1594
   93CHL1   H3' 9292   0.240   1.173   6.858 -0.2909 -2.3871 -2.8360
   93CHL1    C4 9293   0.178   1.159   7.092  0.8394  0.1819 -0.2863
   93CHL1   H4A 9294   0.132   1.247   7.043  3.9359  2.9800  1.4748
   93CHL1   H4B 9295   0.122   1.063   7.082 -0.6059  0.5738  2.8419
   93CHL1    C5 9296   0.184   1.169   7.246  0.0774  0.1001  0.1859
   93CHL1    C6 9297   0.120   1.088   7.335  0.1503  0.2984 -0.4359
   93CHL1    H6 9298   0.063   1.007   7.287  0.9158  0.2239 -1.2379
   93CHL1    C7 9299   0.117   1.094   7.488  0.6733  0.1433  0.0815
   93CHL1   H7A 9300   0.016   1.066   7.526  1.1108 -1.7287 -0.0258
   93CHL1   H7B 9301   0.176   1.013   7.535 -1.6225 -0.3330  2.4148
   93CHL1    C8 9302   0.170   1.229   7.537 -0.3040 -0.3121  0.0995
   93CHL1    H8 9303   0.086   1.300   7.522  0.0818  0.0828 -0.1864
   93CHL1   C14 9304   0.205   1.217   7.689  0.3173 -0.1770  0.0041
   93CHL1   H14 9305   0.281   1.137   7.704  0.0341 -0.3124  0.7479
   93CHL1   C15 9306   0.093   1.173   7.782 -0.0817 -0.4911 -0.4681
   93CHL1  H15A 9307   0.000   1.231   7.760 -0.9228 -0.4815  2.7115
   93CHL1  H15B 9308   0.068   1.067   7.765  0.1539 -0.4170 -1.3587
   93CHL1   C16 9309   0.135   1.203   7.923  0.3637 -0.5423 -0.3958
   93CHL1  H16A 9310   0.067   1.258   7.992  1.6393 -1.1128  1.3981
   93CHL1  H16B 9311   0.155   1.111   7.982 -0.0119 -0.7379 -0.5739
   93CHL1   C17 9312   0.270   1.280   7.910 -0.5454  0.2433  0.0888
   93CHL1   H17 9313   0.352   1.205   7.911 -0.4937  0.2635 -1.3828
   93CHL1   C13 9314   0.265   1.338   7.758 -0.0087 -0.5610  0.7284
   93CHL1   C18 9315   0.166   1.459   7.756 -0.3806  0.5245 -0.0720
   93CHL1  H18A 9316   0.166   1.495   7.651  0.6203  1.1610  0.1314
   93CHL1  H18B 9317   0.063   1.435   7.792 -0.1557 -0.6174 -0.1543
   93CHL1  H18C 9318   0.208   1.540   7.819  2.2073 -1.8416  1.4918
   93CHL1   C12 9319   0.394   1.356   7.691 -0.7735 -0.3991 -0.0656
   93CHL1  H12A 9320   0.455   1.442   7.728 -0.3336  0.9125 -3.4358
   93CHL1  H12B 9321   0.449   1.260   7.699 -1.5819 -0.7303  3.0789
   93CHL1   C11 9322   0.373   1.387   7.539 -0.4899  0.1214 -0.0795
   93CHL1  H11A 9323   0.317   1.482   7.527  1.0269  0.7123 -3.9612
   93CHL1  H11B 9324   0.468   1.402   7.484 -0.5776 -0.0539 -0.2839
   93CHL1    C9 9325   0.295   1.271   7.464 -0.0208 -0.2569 -0.3252
   93CHL1    H9 9326   0.360   1.181   7.475 -0.4287 -0.4289  0.7353
   93CHL1   C10 9327   0.282   1.280   7.307 -0.3685  0.3842 -0.2714
   93CHL1   C19 9328   0.223   1.417   7.278  0.0664 -0.0502  0.0428
   93CHL1  H19A 9329   0.127   1.433   7.331 -0.5985  1.2415 -1.4551
   93CHL1  H19B 9330   0.305   1.491   7.292 -1.3466  1.2668  1.7542
   93CHL1  H19C 9331   0.183   1.443   7.178 -1.7449  2.6974  1.3497
   93CHL1    C1 9332   0.416   1.257   7.232  0.6328 -0.0939 -0.0455
   93CHL1   H1A 9333   0.473   1.347   7.264 -1.0866  0.2080  2.4582
   93CHL1   H1B 9334   0.473   1.169   7.268  0.5191 -0.1353  0.0341
   93CHL1    C2 9335   0.402   1.257   7.082  0.1838 -0.1571  0.8698
   93CHL1   H2A 9336   0.501   1.272   7.034 -0.2981 -1.1002 -0.4695
   93CHL1   H2B 9337   0.349   1.351   7.055  2.1274  0.4707 -1.0328
   93CHL1   C20 9338   0.305   1.371   8.029 -0.1316  0.2183  0.2087
   93CHL1   H20 9339   0.230   1.452   8.037  0.6204  0.8622  0.9120
   93CHL1   C21 9340   0.441   1.442   8.003  0.2897 -0.3622  0.0228
   93CHL1  H21A 9341   0.446   1.496   7.907  0.5432  0.7195  0.6343
   93CHL1  H21B 9342   0.527   1.376   8.031  0.8970  1.2630  2.2967
   93CHL1  H21C 9343   0.440   1.531   8.070 -1.0641 -0.7037  0.4938
   93CHL1   C22 9344   0.302   1.295   8.165 -0.9977 -0.6025  0.7873
   93CHL1  H22A 9345   0.204   1.248   8.181 -1.3727 -0.3363 -0.5938
   93CHL1  H22B 9346   0.381   1.218   8.150 -2.2273 -1.5180 -1.3667
   93CHL1   C23 9347   0.328   1.385   8.287  0.3296 -0.0270  0.4836
   93CHL1  H23A 9348   0.432   1.425   8.279  0.1825  0.8172  2.2222
   93CHL1  H23B 9349   0.262   1.474   8.297  0.2093  0.2494 -2.0711
   93CHL1   C24 9350   0.320   1.302   8.414 -0.9067  0.4484 -0.4591
   93CHL1  H24A 9351   0.215   1.275   8.438  0.3380 -4.6684  0.3520
   93CHL1  H24B 9352   0.366   1.201   8.408 -0.3153  0.6469  0.5118
   93CHL1   C25 9353   0.374   1.373   8.544  0.3935 -0.2359 -0.1694
   93CHL1   H25 9354   0.475   1.407   8.511  0.2676 -1.2173 -1.6721
   93CHL1   C26 9355   0.280   1.484   8.592 -0.2383 -0.1354  0.2496
   93CHL1  H26A 9356   0.260   1.559   8.512  0.0996 -1.1439 -0.8071
   93CHL1  H26B 9357   0.181   1.444   8.623 -1.2351  1.1701 -1.0809
   93CHL1  H26C 9358   0.337   1.542   8.667  0.5642  1.2173 -1.3355
   93CHL1   C27 9359   0.412   1.281   8.661 -0.6911 -0.3267  0.9387
   93CHL1  H27A 9360   0.495   1.332   8.714 -0.9463  0.4278  0.6213
   93CHL1  H27B 9361   0.337   1.249   8.737 -0.3178 -0.0602  1.4243
   93CHL1  H27C 9362   0.447   1.182   8.625 -2.2277 -0.4616 -0.3092
   94CHL1    C3 9363   0.942   3.337   6.896  0.1474 -0.7430 -0.2226
   94CHL1    H3 9364   0.947   3.230   6.927 -0.2510 -0.1532  2.1177
   94CHL1    O3 9365   0.945   3.350   6.760  0.2574  0.6355  0.3480
   94CHL1   H3' 9366   1.038   3.357   6.740 -0.1664  0.3324 -2.0555
   94CHL1    C4 9367   0.820   3.404   6.950 -0.2142 -0.5578  0.1713
   94CHL1   H4A 9368   0.814   3.509   6.915 -0.6297 -0.5627  0.2219
   94CHL1   H4B 9369   0.733   3.346   6.912 -0.4366 -0.6738  0.8453
   94CHL1    C5 9370   0.822   3.408   7.099  0.0398  1.6630  0.6307
   94CHL1    C6 9371   0.723   3.344   7.163  0.3547 -0.4933 -0.0049
   94CHL1    H6 9372   0.640   3.295   7.110  0.6114 -0.3629 -0.5327
   94CHL1    C7 9373   0.709   3.346   7.313 -0.2054  0.4093  0.4765
   94CHL1   H7A 9374   0.605   3.351   7.351 -0.1875  0.0840  0.5664
   94CHL1   H7B 9375   0.760   3.254   7.348  0.6959  1.5577  2.3184
   94CHL1    C8 9376   0.796   3.461   7.379 -0.1123  0.5070  0.2775
   94CHL1    H8 9377   0.757   3.561   7.349  0.8653  0.0737 -2.7870
   94CHL1   C14 9378   0.799   3.449   7.529  0.2731  0.3241 -0.4040
   94CHL1   H14 9379   0.827   3.344   7.554 -1.3659  0.5275  2.6669
   94CHL1   C15 9380   0.663   3.474   7.602 -0.5197  0.0302 -0.3965
   94CHL1  H15A 9381   0.621   3.569   7.564 -0.5790 -0.0997 -0.6529
   94CHL1  H15B 9382   0.586   3.395   7.593 -0.9002  0.5097 -1.5999
   94CHL1   C16 9383   0.710   3.478   7.744 -0.1797 -0.2395 -0.2216
   94CHL1  H16A 9384   0.654   3.558   7.797  0.9461  0.0539  0.5649
   94CHL1  H16B 9385   0.690   3.382   7.796  0.9466 -0.4477 -0.1441
   94CHL1   C17 9386   0.864   3.509   7.748 -0.0879  0.0468 -0.3130
   94CHL1   H17 9387   0.920   3.414   7.762  0.6524  0.8744  3.1213
   94CHL1   C13 9388   0.900   3.539   7.602  0.1738  0.2179 -1.0068
   94CHL1   C18 9389   0.859   3.688   7.578 -0.3325  0.1435 -0.2915
   94CHL1  H18A 9390   0.950   3.752   7.581 -0.2355 -0.0188  0.3193
   94CHL1  H18B 9391   0.828   3.704   7.472  1.4447  1.2424 -0.6910
   94CHL1  H18C 9392   0.779   3.724   7.646 -0.1503  0.2159 -0.1132
   94CHL1   C12 9393   1.039   3.503   7.553 -0.8425  0.3656 -0.6027
   94CHL1  H12A 9394   1.116   3.566   7.602  0.5981 -1.2777 -0.6525
   94CHL1  H12B 9395   1.068   3.398   7.578  2.0822  0.7086 -2.0619
   94CHL1   C11 9396   1.047   3.519   7.401 -0.1843  0.1940  0.0637
   94CHL1  H11A 9397   1.038   3.626   7.373  4.2967  0.9283  0.5478
   94CHL1  H11B 9398   1.144   3.490   7.355 -0.3289  2.0802 -1.5590
   94CHL1    C9 9399   0.933   3.448   7.321 -0.2392  0.5861 -0.6651
   94CHL1    H9 9400   0.964   3.342   7.334 -1.7374  0.0226 -1.4367
   94CHL1   C10 9401   0.944   3.475   7.167 -0.1563 -0.4545  0.0107
   94CHL1   C19 9402   0.961   3.620   7.140 -0.4320 -0.5143  0.2009
   94CHL1  H19A 9403   0.885   3.683   7.191 -0.3707 -1.5369  1.6024
   94CHL1  H19B 9404   1.062   3.653   7.172 -0.2395 -1.1947  0.3242
   94CHL1  H19C 9405   0.950   3.644   7.032 -1.4322 -0.3638  0.3266
   94CHL1    C1 9406   1.069   3.393   7.102  0.0382  0.1160 -0.0170
   94CHL1   H1A 9407   1.172   3.413   7.138  0.8133 -0.4368 -1.8060
   94CHL1   H1B 9408   1.050   3.289   7.137 -1.6080  0.1185 -0.8357
   94CHL1    C2 9409   1.070   3.398   6.959 -0.8393  0.4883 -0.2632
   94CHL1   H2A 9410   1.157   3.343   6.917 -1.7534 -0.3387 -1.1380
   94CHL1   H2B 9411   1.089   3.500   6.917  2.7415  0.0923  0.0953
   94CHL1   C20 9412   0.892   3.610   7.858 -0.1107  0.5441  0.5712
   94CHL1   H20 9413   0.857   3.711   7.830  0.1043 -0.1198 -2.4115
   94CHL1   C21 9414   1.047   3.630   7.862 -0.1701  0.5486  0.0326
   94CHL1  H21A 9415   1.074   3.689   7.953 -1.4185 -1.5299  1.8594
   94CHL1  H21B 9416   1.076   3.687   7.771 -0.8460  0.1177 -0.4588
   94CHL1  H21C 9417   1.111   3.540   7.867 -1.7367 -0.5714  0.9581
   94CHL1   C22 9418   0.842   3.565   7.994  0.2316  0.2777  0.4393
   94CHL1  H22A 9419   0.889   3.632   8.069  1.4659 -0.0978  0.0173
   94CHL1  H22B 9420   0.733   3.586   8.005 -0.6054 -1.9003 -2.3928
   94CHL1   C23 9421   0.901   3.431   8.047 -0.1427 -0.2422 -0.0905
   94CHL1  H23A 9422   0.871   3.348   7.979 -0.1594 -1.4954  1.3784
   94CHL1  H23B 9423   1.012   3.439   8.045 -0.0134 -1.6145  0.2485
   94CHL1   C24 9424   0.847   3.392   8.186 -0.2552 -0.7825 -0.8590
   94CHL1  H24A 9425   0.887   3.460   8.263  0.4563 -1.4001 -0.6640
   94CHL1  H24B 9426   0.736   3.398   8.183 -0.2196 -0.1569 -1.0186
   94CHL1   C25 9427   0.876   3.249   8.241 -0.2856  0.0877  0.0624
   94CHL1   H25 9428   0.814   3.178   8.182  0.2436  0.8546 -1.4492
   94CHL1   C26 9429   1.021   3.209   8.237 -0.1207  0.2385  0.4144
   94CHL1  H26A 9430   1.040   3.109   8.282 -0.6528 -0.9873 -1.8947
   94CHL1  H26B 9431   1.061   3.199   8.134  1.2636 -2.4302  1.1068
   94CHL1  H26C 9432   1.083   3.281   8.295  1.4233 -1.9954  1.6944
   94CHL1   C27 9433   0.808   3.225   8.379 -0.5759  0.3795 -0.2386
   94CHL1  H27A 9434   0.822   3.118   8.407  1.3019  0.3371 -1.1429
   94CHL1  H27B 9435   0.867   3.282   8.454  1.1401 -2.1694  0.5105
   94CHL1  H27C 9436   0.699   3.244   8.384 -0.9408 -0.9524 -2.0500
   95CHL1    C3 9437   1.573   6.459   6.896  0.0481  0.1021 -0.0120
   95CHL1    H3 9438   1.603   6.545   6.960  2.3515  0.6491 -1.7117
   95CHL1    O3 9439   1.594   6.485   6.761 -0.1628  0.0425  0.2834
   95CHL1   H3' 9440   1.567   6.410   6.709 -1.9565  0.2439  0.8367
   95CHL1    C4 9441   1.660   6.338   6.934 -0.7697 -0.3982 -0.0322
   95CHL1   H4A 9442   1.647   6.262   6.855 -1.0998  0.7471 -1.1146
   95CHL1   H4B 9443   1.766   6.368   6.915  0.3820 -3.5014  0.8990
   95CHL1    C5 9444   1.640   6.280   7.074  1.3343  0.3119  0.4750
   95CHL1    C6 9445   1.741   6.271   7.163  0.5386 -0.3307 -0.4307
   95CHL1    H6 9446   1.844   6.293   7.131  0.5765 -1.3751 -1.0497
   95CHL1    C7 9447   1.727   6.226   7.303 -0.4177  0.2488  0.5368
   95CHL1   H7A 9448   1.806   6.151   7.324  0.3334  1.0423  0.6185
   95CHL1   H7B 9449   1.745   6.306   7.378 -1.0675  1.9463 -1.0523
   95CHL1    C8 9450   1.597   6.155   7.332 -0.4347 -0.1276 -0.8563
   95CHL1    H8 9451   1.597   6.051   7.295  0.4882 -0.8302  1.0153
   95CHL1   C14 9452   1.580   6.150   7.485 -0.5518  0.9542  0.3347
   95CHL1   H14 9453   1.588   6.254   7.523 -0.8805  1.4565 -0.9360
   95CHL1   C15 9454   1.698   6.078   7.565 -0.2592 -0.8749  0.7858
   95CHL1  H15A 9455   1.706   5.972   7.532  1.0600 -0.1915 -1.2630
   95CHL1  H15B 9456   1.799   6.123   7.556 -0.5570 -0.6398 -2.0503
   95CHL1   C16 9457   1.634   6.056   7.709  0.3166 -0.3282  0.2588
   95CHL1  H16A 9458   1.655   5.948   7.720  2.7496  0.0574  0.0415
   95CHL1  H16B 9459   1.680   6.102   7.799 -1.4074 -0.5191  1.2688
   95CHL1   C17 9460   1.488   6.096   7.696  0.6588  0.2811  0.7071
   95CHL1   H17 9461   1.478   6.206   7.709  0.9462  0.3225  0.5669
   95CHL1   C13 9462   1.457   6.089   7.543  0.0982 -0.6071 -0.2449
   95CHL1   C18 9463   1.438   5.936   7.507  0.2000 -0.2868 -0.4544
   95CHL1  H18A 9464   1.329   5.920   7.514 -0.0173  1.5035  0.7053
   95CHL1  H18B 9465   1.452   5.917   7.398 -2.2000  2.1588 -1.2980
   95CHL1  H18C 9466   1.489   5.862   7.573 -1.2525 -2.4574 -1.6690
   95CHL1   C12 9467   1.345   6.179   7.489  0.0307  0.0207 -0.1671
   95CHL1  H12A 9468   1.246   6.137   7.518  0.2208  0.0684  0.5587
   95CHL1  H12B 9469   1.359   6.278   7.536  0.1713  0.0022 -0.1703
   95CHL1   C11 9470   1.346   6.179   7.333 -0.1112 -0.7608 -0.4089
   95CHL1  H11A 9471   1.334   6.073   7.301  1.0226 -1.1344  0.3371
   95CHL1  H11B 9472   1.261   6.246   7.309  0.9242  0.2193 -1.4822
   95CHL1    C9 9473   1.479   6.234   7.275  0.6479  0.6224  0.8358
   95CHL1    H9 9474   1.498   6.333   7.322  2.0140  0.1862  1.2688
   95CHL1   C10 9475   1.488   6.249   7.118 -0.0672 -0.2463 -1.0749
   95CHL1   C19 9476   1.436   6.118   7.055 -0.6705 -0.6285 -0.6642
   95CHL1  H19A 9477   1.450   6.129   6.945  2.4296  0.7103 -0.2566
   95CHL1  H19B 9478   1.496   6.027   7.080 -1.2233 -0.4310  1.5857
   95CHL1  H19C 9479   1.328   6.101   7.072 -0.7213  1.2093  1.2571
   95CHL1    C1 9480   1.407   6.376   7.069 -0.3542  0.2921  0.1982
   95CHL1   H1A 9481   1.297   6.358   7.070 -0.5749  1.5879  1.3248
   95CHL1   H1B 9482   1.438   6.466   7.126 -0.7668 -0.0781  1.0178
   95CHL1    C2 9483   1.427   6.415   6.921  0.7542  0.0182  0.3915
   95CHL1   H2A 9484   1.355   6.498   6.900 -1.8993 -2.2248  0.0521
   95CHL1   H2B 9485   1.402   6.330   6.854  1.1120  1.2432 -1.3924
   95CHL1   C20 9486   1.385   6.031   7.802  0.5667 -0.0643  0.0710
   95CHL1   H20 9487   1.392   5.920   7.802 -1.4379 -0.2393  0.8648
   95CHL1   C21 9488   1.233   6.055   7.783 -0.0468  0.2792 -0.3213
   95CHL1  H21A 9489   1.218   6.165   7.792  0.3272  0.3499 -0.5781
   95CHL1  H21B 9490   1.171   6.002   7.859 -1.3607  0.6816 -1.0743
   95CHL1  H21C 9491   1.201   6.007   7.689  0.7377 -3.0850  0.9777
   95CHL1   C22 9492   1.420   6.087   7.943 -0.2270  0.8719  0.2271
   95CHL1  H22A 9493   1.527   6.070   7.965 -0.7353 -0.0646  2.3288
   95CHL1  H22B 9494   1.416   6.198   7.951  3.5106  0.9637  3.1782
   95CHL1   C23 9495   1.339   6.037   8.065  0.7368 -0.4580  0.4262
   95CHL1  H23A 9496   1.233   6.070   8.073  0.9162  0.2886 -0.0935
   95CHL1  H23B 9497   1.334   5.927   8.062 -0.8163 -0.3960 -0.1375
   95CHL1   C24 9498   1.403   6.073   8.197  0.0021 -0.5324  0.2742
   95CHL1  H24A 9499   1.501   6.022   8.214  0.2217 -0.2783 -0.2010
   95CHL1  H24B 9500   1.416   6.183   8.204 -1.1567 -0.2749 -1.1484
   95CHL1   C25 9501   1.320   6.030   8.317  0.4342  0.0491 -0.0338
   95CHL1   H25 9502   1.224   6.085   8.317  1.5544  2.2139  2.4557
   95CHL1   C26 9503   1.301   5.885   8.315 -0.5996  0.3306 -0.0889
   95CHL1  H26A 9504   1.260   5.849   8.412  0.1129 -1.5416 -0.4475
   95CHL1  H26B 9505   1.229   5.843   8.241 -1.7666 -0.0832  1.2442
   95CHL1  H26C 9506   1.402   5.840   8.308  0.0072  1.6301 -0.0173
   95CHL1   C27 9507   1.392   6.070   8.447  0.2124  0.4227  0.3951
   95CHL1  H27A 9508   1.502   6.065   8.431  0.0592 -1.7114 -0.3911
   95CHL1  H27B 9509   1.369   6.174   8.478  1.8643  0.8841  0.1417
   95CHL1  H27C 9510   1.372   6.008   8.537  0.0137  0.2135  0.2068
   96CHL1    C3 9511   0.501   5.701   6.802  0.2508  0.2188 -0.0917
   96CHL1    H3 9512   0.608   5.680   6.782  0.1343 -0.3314 -0.1631
   96CHL1    O3 9513   0.450   5.722   6.667  0.2005 -0.2473 -0.2995
   96CHL1   H3' 9514   0.365   5.767   6.669 -0.6013 -1.6938  0.2584
   96CHL1    C4 9515   0.421   5.577   6.862  0.6936 -0.0788  1.2031
   96CHL1   H4A 9516   0.311   5.595   6.863  0.7090  0.0911  0.3649
   96CHL1   H4B 9517   0.429   5.489   6.796  1.2787  1.2639 -0.5910
   96CHL1    C5 9518   0.460   5.557   7.005 -0.6549 -0.3680 -0.0807
   96CHL1    C6 9519   0.503   5.436   7.045  0.4257  0.1893 -0.0527
   96CHL1    H6 9520   0.498   5.356   6.969  0.1868  0.8619 -0.7601
   96CHL1    C7 9521   0.533   5.407   7.190 -0.1666 -0.5487  0.1350
   96CHL1   H7A 9522   0.490   5.305   7.204  1.4280 -0.9728  2.5467
   96CHL1   H7B 9523   0.644   5.401   7.198  0.0919 -0.9092 -2.5865
   96CHL1    C8 9524   0.477   5.510   7.288  0.5643 -0.6926  0.0633
   96CHL1    H8 9525   0.369   5.485   7.297  0.3286 -1.3070 -3.1437
   96CHL1   C14 9526   0.539   5.489   7.426 -0.0898 -0.1185 -0.3281
   96CHL1   H14 9527   0.650   5.495   7.420 -0.0830 -0.0289 -0.1392
   96CHL1   C15 9528   0.510   5.351   7.496  0.1467 -0.1661  0.6192
   96CHL1  H15A 9529   0.406   5.314   7.476  0.8497 -0.6296 -2.8851
   96CHL1  H15B 9530   0.582   5.274   7.460 -0.5217 -0.5165 -0.0128
   96CHL1   C16 9531   0.550   5.381   7.637  0.4156 -0.1113 -0.2497
   96CHL1  H16A 9532   0.478   5.347   7.714  1.6874 -1.0474  0.5545
   96CHL1  H16B 9533   0.642   5.324   7.660  0.7814  0.8955  0.9099
   96CHL1   C17 9534   0.563   5.529   7.663  0.2632  0.0047  0.5437
   96CHL1   H17 9535   0.669   5.562   7.663 -0.2900  1.8895  0.8192
   96CHL1   C13 9536   0.497   5.594   7.532  0.1689  0.2408 -0.0714
   96CHL1   C18 9537   0.345   5.599   7.558  0.0006 -0.6440 -0.2821
   96CHL1  H18A 9538   0.279   5.636   7.477 -0.6856  1.0757  1.0030
   96CHL1  H18B 9539   0.317   5.497   7.592 -1.2103 -1.0745 -2.3846
   96CHL1  H18C 9540   0.326   5.678   7.634 -0.4597  0.1384 -1.1795
   96CHL1   C12 9541   0.541   5.729   7.487  0.2272 -0.5759  0.2273
   96CHL1  H12A 9542   0.516   5.805   7.563 -0.3113 -0.3945 -0.1242
   96CHL1  H12B 9543   0.652   5.731   7.483  0.3551 -1.0081  2.3814
   96CHL1   C11 9544   0.477   5.761   7.348 -0.0013  0.0377  0.1863
   96CHL1  H11A 9545   0.366   5.764   7.350 -0.0672 -1.6236  0.8326
   96CHL1  H11B 9546   0.515   5.856   7.305  1.0833 -0.5203 -0.1142
   96CHL1    C9 9547   0.514   5.649   7.237 -0.9976  0.1347 -0.1737
   96CHL1    H9 9548   0.625   5.644   7.235 -0.8923  0.5432  2.1581
   96CHL1   C10 9549   0.446   5.679   7.102 -1.2507 -0.6849 -0.2319
   96CHL1   C19 9550   0.294   5.710   7.114 -0.2399 -0.9612 -0.4916
   96CHL1  H19A 9551   0.273   5.810   7.157 -1.3640 -0.5830 -1.8580
   96CHL1  H19B 9552   0.249   5.726   7.014  0.2983  1.9328 -0.3532
   96CHL1  H19C 9553   0.247   5.632   7.178  1.5460  0.0360  2.1858
   96CHL1    C1 9554   0.519   5.796   7.034  0.2418 -0.6559  0.0049
   96CHL1   H1A 9555   0.509   5.891   7.090 -1.0131  0.3451 -1.8379
   96CHL1   H1B 9556   0.628   5.778   7.046  0.0975 -1.0071  0.9414
   96CHL1    C2 9557   0.472   5.825   6.891 -0.3980  0.1625 -0.2329
   96CHL1   H2A 9558   0.520   5.921   6.861 -0.1407 -0.0265 -0.4284
   96CHL1   H2B 9559   0.363   5.846   6.890  0.0405  2.7518 -0.4982
   96CHL1   C20 9560   0.521   5.570   7.801  0.4688 -0.3647 -0.1267
   96CHL1   H20 9561   0.412   5.547   7.803  0.3802  0.0394  1.3191
   96CHL1   C21 9562   0.533   5.718   7.827 -0.1259  0.7167  0.2418
   96CHL1  H21A 9563   0.531   5.742   7.936 -0.0244 -0.1648  0.4420
   96CHL1  H21B 9564   0.462   5.782   7.770 -1.9992 -0.8548  0.7158
   96CHL1  H21C 9565   0.634   5.754   7.798  0.7964  1.1504  3.5889
   96CHL1   C22 9566   0.585   5.491   7.915  0.1182 -0.1169 -0.1773
   96CHL1  H22A 9567   0.578   5.383   7.889  1.7376 -0.6626  1.4295
   96CHL1  H22B 9568   0.693   5.514   7.920 -0.1213  1.6256 -2.1031
   96CHL1   C23 9569   0.519   5.502   8.052 -0.0829 -0.1852 -0.5062
   96CHL1  H23A 9570   0.509   5.608   8.084 -1.6808 -0.1929 -0.8883
   96CHL1  H23B 9571   0.419   5.457   8.068 -0.7752  0.7719 -1.9106
   96CHL1   C24 9572   0.610   5.433   8.157  0.0566 -0.4365 -0.0941
   96CHL1  H24A 9573   0.648   5.333   8.128 -3.4800 -2.3689  1.2232
   96CHL1  H24B 9574   0.696   5.502   8.161  0.6607 -1.0624 -1.7688
   96CHL1   C25 9575   0.549   5.426   8.303 -0.2281  0.6896  1.1110
   96CHL1   H25 9576   0.479   5.513   8.310  0.4261  1.5698 -1.9293
   96CHL1   C26 9577   0.478   5.294   8.328  0.7493  0.7743 -0.1352
   96CHL1  H26A 9578   0.538   5.202   8.309 -0.8554 -1.0095  2.7054
   96CHL1  H26B 9579   0.457   5.297   8.437  0.3233 -0.3580 -0.1727
   96CHL1  H26C 9580   0.386   5.291   8.266  1.2428 -0.7539 -0.8448
   96CHL1   C27 9581   0.655   5.433   8.417 -0.5249 -0.5833  0.7119
   96CHL1  H27A 9582   0.714   5.339   8.415 -0.4909 -0.5920  1.7456
   96CHL1  H27B 9583   0.723   5.519   8.401 -1.6151 -0.2313 -3.0900
   96CHL1  H27C 9584   0.607   5.450   8.516 -0.4576  1.3037  0.4600
   97OSM      N 9585   2.743   5.415  10.944 -0.6561  0.9726  0.5605
   97OSM    C15 9586   2.683   5.281  10.974 -0.0663  0.4823  1.0597
   97OSM   H15A 9587   2.594   5.262  10.917  0.6557 -0.7402  0.3091
   97OSM   H15B 9588   2.665   5.267  11.080 -0.2514 -0.8959  0.8589
   97OSM   H15C 9589   2.740   5.195  10.943 -0.3159  1.1677 -1.5218
   97OSM    C14 9590   2.862   5.443  11.021  0.5810 -0.3853  0.5889
   97OSM   H14A 9591   2.930   5.361  11.042  1.5387  0.0431 -0.7146
   97OSM   H14B 9592   2.829   5.471  11.120  0.3473  2.9682 -0.3257
   97OSM   H14C 9593   2.921   5.530  10.999 -0.7795  1.5252  3.8223
   97OSM    C13 9594   2.792   5.402  10.804  0.0325  0.0298  0.6624
   97OSM   H13A 9595   2.718   5.397  10.726  0.3341  1.3906  0.2699
   97OSM   H13B 9596   2.856   5.315  10.797  1.2482  1.0421 -2.6453
   97OSM   H13C 9597   2.858   5.484  10.781 -3.1250  2.6242  0.1355
   97OSM    C12 9598   2.634   5.515  10.966  0.4189  0.5146 -0.2417
   97OSM   H12A 9599   2.670   5.612  10.936  0.6803  0.8368  1.0583
   97OSM   H12B 9600   2.607   5.516  11.071 -0.4190  0.0359 -0.4412
   97OSM    C11 9601   2.511   5.490  10.880  0.1401 -0.5259 -0.8282
   97OSM   H11A 9602   2.469   5.387  10.884 -1.4904  0.1416  0.7660
   97OSM   H11B 9603   2.529   5.516  10.774 -0.4525  1.3571 -0.5140
   97OSM      P 9604   2.412   5.737  10.919 -0.3599  0.0471  0.1348
   97OSM    O13 9605   2.282   5.803  10.921  0.6501 -1.0160 -0.1077
   97OSM    O14 9606   2.522   5.769  11.013  0.4893 -0.2531 -0.2526
   97OSM    O11 9607   2.467   5.744  10.768 -0.2650 -0.1583 -0.1191
   97OSM    O12 9608   2.399   5.574  10.921  0.1364 -0.2905 -0.5076
   97OSM    C1S 9609   2.376   5.723  10.656 -0.3549 -0.3910 -0.1361
   97OSM    H1S 9610   2.290   5.791  10.675  0.9578  1.0493  0.9442
   97OSM    H1T 9611   2.351   5.617  10.634  3.1431 -1.0112 -1.7589
   97OSM     NF 9612   2.337   5.790  10.422  0.3553  0.3875 -0.4999
   97OSM    HNF 9613   2.341   5.716  10.355  2.0997  0.1977 -0.2089
   97OSM    C2S 9614   2.436   5.781  10.527  0.4934 -0.1485 -0.8022
   97OSM    H2S 9615   2.474   5.883  10.551  0.7291 -1.0246  3.1317
   97OSM    C3S 9616   2.569   5.705  10.493  0.1655 -1.1170 -0.4509
   97OSM    H3S 9617   2.538   5.603  10.464 -2.0037 -0.4284 -0.6828
   97OSM     O3 9618   2.661   5.687  10.595 -0.5404 -0.0353 -0.3182
   97OSM    HO3 9619   2.615   5.702  10.678 -1.7533 -0.5454 -0.8660
   97OSM    C4S 9620   2.639   5.770  10.372 -0.7739  0.1024  0.5194
   97OSM    H4S 9621   2.708   5.850  10.404  1.4456 -1.4597 -0.1307
   97OSM    C5S 9622   2.626   5.725  10.249  0.5975 -0.8529 -0.3255
   97OSM    H5S 9623   2.558   5.642  10.225  1.6331 -2.7593  2.7499
   97OSM    C6S 9624   2.691   5.783  10.125  0.0669 -0.5626 -0.0703
   97OSM    H6S 9625   2.762   5.708  10.084 -0.3028 -0.9885  0.0644
   97OSM    H6T 9626   2.756   5.872  10.140  0.4561 -0.6215 -1.3206
   97OSM    C7S 9627   2.593   5.821  10.014  0.3584 -0.0068 -0.3422
   97OSM    H7S 9628   2.518   5.892  10.055  0.6920 -0.2833  0.7613
   97OSM    H7T 9629   2.537   5.727   9.994  0.8497 -0.4204  0.1872
   97OSM    C8S 9630   2.657   5.888   9.895  0.1394  0.6663  0.5625
   97OSM    H8S 9631   2.724   5.972   9.926  0.1989  1.1769 -0.8886
   97OSM    H8T 9632   2.581   5.933   9.827 -1.4721 -1.6842  0.7128
   97OSM    C9S 9633   2.741   5.799   9.803  0.0311 -0.2169  0.4101
   97OSM    H9S 9634   2.673   5.735   9.743  0.7023  0.8346 -1.5646
   97OSM    H9T 9635   2.816   5.728   9.844 -0.7919  0.1107  2.5940
   97OSM   C10S 9636   2.789   5.888   9.676 -0.4255 -0.8141 -0.3308
   97OSM   H10S 9637   2.851   5.971   9.714 -2.5032  1.3659 -1.3874
   97OSM   H10T 9638   2.696   5.914   9.620 -0.8877 -2.8349 -0.5962
   97OSM   C11S 9639   2.873   5.820   9.566  0.5531  0.0708 -0.9394
   97OSM   H11S 9640   2.810   5.745   9.513 -0.0615 -1.9519  2.3534
   97OSM   H11T 9641   2.958   5.773   9.622  1.4438  1.0148 -1.4683
   97OSM   C12S 9642   2.937   5.918   9.472  0.3919 -0.5691  0.3833
   97OSM   H12S 9643   3.010   5.979   9.529  0.8340 -0.7010 -0.0407
   97OSM   H12T 9644   2.856   5.986   9.435 -2.3034 -3.3642  0.7709
   97OSM   C13S 9645   3.008   5.859   9.350 -0.0425 -0.0956  0.5250
   97OSM   H13S 9646   3.023   5.941   9.276 -1.4321  0.9317  1.3326
   97OSM   H13T 9647   2.935   5.804   9.287 -1.0579  1.3883  0.3320
   97OSM   C14S 9648   3.128   5.781   9.381 -0.2915 -0.1173 -0.0809
   97OSM   H14S 9649   3.098   5.694   9.442 -1.5931 -0.1923 -0.7808
   97OSM   H14T 9650   3.196   5.840   9.447 -0.1460  0.4046 -0.6850
   97OSM   C15S 9651   3.192   5.737   9.248  0.1596  0.6243  0.4860
   97OSM   H15S 9652   3.194   5.825   9.180 -0.4478  0.7678  0.6541
   97OSM   H15T 9653   3.126   5.664   9.196 -1.0187  1.5788  0.6075
   97OSM   C16S 9654   3.334   5.681   9.261 -0.3091 -0.0003  0.6893
   97OSM   H16S 9655   3.332   5.584   9.315 -1.0109 -0.2961  0.1458
   97OSM   H16T 9656   3.398   5.753   9.315 -1.0776  1.6999 -0.5507
   97OSM   C17S 9657   3.390   5.659   9.124  0.2817 -0.7551  0.3462
   97OSM   H17S 9658   3.413   5.757   9.077 -0.4075  0.5871  2.6364
   97OSM   H17T 9659   3.309   5.614   9.061 -0.5121  0.0011  0.7987
   97OSM   C18S 9660   3.519   5.574   9.133 -0.7077  0.1475 -0.8263
   97OSM   H18S 9661   3.556   5.546   9.032  2.8639  0.2830  0.2951
   97OSM   H18T 9662   3.501   5.479   9.186  0.6145  0.0856 -0.4487
   97OSM   H18U 9663   3.590   5.641   9.186 -1.2812  1.2442 -1.4073
   97OSM    C1F 9664   2.236   5.878  10.421  0.9001  0.1138  0.7050
   97OSM     OF 9665   2.245   5.982  10.488 -0.8047  0.0633 -0.3302
   97OSM    C2F 9666   2.112   5.831  10.345  0.9070 -1.0720  0.1882
   97OSM    H2F 9667   2.030   5.822  10.419 -0.1846  0.2404 -0.7968
   97OSM    H2G 9668   2.140   5.736  10.295  2.1259 -0.3358 -0.5703
   97OSM    C3F 9669   2.063   5.939  10.247  0.1742 -0.3492  0.0465
   97OSM    H3F 9670   2.025   6.024  10.308  0.0357  1.7246 -2.7079
   97OSM    H3G 9671   1.976   5.894  10.194 -0.0461 -0.3831  0.4341
   97OSM    C4F 9672   2.168   5.966  10.142  0.2749 -1.0019  0.3197
   97OSM    H4F 9673   2.207   5.866  10.115 -0.2964 -0.4045 -3.2071
   97OSM    H4G 9674   2.246   6.032  10.186 -0.0725  0.1975 -0.8064
   97OSM    C5F 9675   2.129   6.032  10.012  0.2620 -0.0935  0.3704
   97OSM    H5F 9676   2.107   6.141  10.020  2.4215  0.4074  0.0724
   97OSM    H5G 9677   2.042   5.979   9.968 -0.1288  1.4241 -0.7667
   97OSM    C6F 9678   2.242   6.014   9.910  0.8559  0.2278 -0.5807
   97OSM    H6F 9679   2.246   5.917   9.857  2.3700  0.3441 -0.6994
   97OSM    H6G 9680   2.340   6.022   9.962  1.9976  1.7148 -2.7945
   97OSM    C7F 9681   2.248   6.128   9.805 -0.6428 -0.4198 -0.1576
   97OSM    H7F 9682   2.259   6.220   9.865 -0.0177  0.5134 -1.6649
   97OSM    H7G 9683   2.147   6.136   9.757 -1.0609 -0.4258  0.7070
   97OSM    C8F 9684   2.368   6.113   9.713  0.1318 -0.1407  0.4919
   97OSM    H8F 9685   2.456   6.093   9.779  1.6679 -1.4363 -1.7978
   97OSM    H8G 9686   2.376   6.218   9.676 -0.7938 -0.0907  0.4233
   97OSM    C9F 9687   2.347   6.010   9.600 -0.1565  0.1042  0.0510
   97OSM    H9F 9688   2.306   5.914   9.634  0.5984 -2.0499 -4.4474
   97OSM   C10F 9689   2.356   6.030   9.466  0.2694 -0.3498 -0.4663
   97OSM   H10F 9690   2.344   5.942   9.401 -0.3357 -0.0767 -0.7299
   97OSM   C11F 9691   2.388   6.149   9.384  0.6519  0.0836 -0.2971
   97OSM   H11F 9692   2.497   6.132   9.368  1.3676  2.2285  1.6779
   97OSM   H11G 9693   2.358   6.238   9.443 -0.7755  0.3220 -1.3501
   97OSM   C12F 9694   2.325   6.142   9.244 -0.1778 -0.2871  0.1838
   97OSM   H12F 9695   2.343   6.055   9.178 -1.6386 -0.2117 -0.3659
   97OSM   H12G 9696   2.379   6.226   9.197 -0.0546 -1.1702 -1.3012
   97OSM   C13F 9697   2.175   6.176   9.250 -0.0850  0.2691  0.9250
   97OSM   H13F 9698   2.155   6.268   9.309  0.4033 -1.0258  3.2362
   97OSM   H13G 9699   2.128   6.100   9.316  0.5616  0.5468  1.7421
   97OSM   C14F 9700   2.118   6.181   9.106 -0.0824 -0.4407  0.1572
   97OSM   H14F 9701   2.008   6.171   9.121 -0.6144  1.3017 -2.1569
   97OSM   H14G 9702   2.156   6.093   9.050  2.8655  1.3924 -0.9218
   97OSM   C15F 9703   2.121   6.319   9.035  0.6510  0.3394  0.6214
   97OSM   H15F 9704   2.231   6.333   9.028  0.9496 -1.8098  0.4855
   97OSM   H15G 9705   2.071   6.396   9.098  2.2930  1.6581  0.3937
   97OSM   C16F 9706   2.052   6.306   8.892 -0.1742 -0.3663 -0.5824
   97OSM   H16F 9707   1.945   6.279   8.901 -0.7316  1.4006 -1.4460
   97OSM   H16G 9708   2.098   6.229   8.828  0.4895  0.2432 -0.8580
   97OSM   C17F 9709   2.047   6.454   8.826 -0.4388 -0.1342  0.9091
   97OSM   H17F 9710   1.968   6.513   8.878 -2.0178 -2.3192  1.1334
   97OSM   H17G 9711   2.014   6.426   8.724  0.2175  0.3069  0.5659
   97OSM   C18F 9712   2.181   6.533   8.826  0.5035 -0.2431  0.2722
   97OSM   H18F 9713   2.260   6.486   8.763 -1.1952 -0.7006 -1.6504
   97OSM   H18G 9714   2.223   6.547   8.928  0.0239  1.8039  0.2220
   97OSM   H18H 9715   2.157   6.629   8.776 -0.3621 -0.7405 -0.3077
   98OSM      N 9716   1.979   3.020  11.251  0.2735  0.1277  0.3890
   98OSM    C15 9717   1.952   2.926  11.373 -0.1068 -1.0455  0.4637
   98OSM   H15A 9718   1.887   2.841  11.358  0.2233 -1.4453  1.2520
   98OSM   H15B 9719   1.893   2.984  11.443 -0.8788  0.3267 -1.2502
   98OSM   H15C 9720   2.038   2.885  11.424  1.4725 -0.8474 -1.8630
   98OSM    C14 9721   1.855   3.088  11.201  0.3380 -0.5992 -0.9027
   98OSM   H14A 9722   1.883   3.174  11.142  1.6257  0.4876  1.1610
   98OSM   H14B 9723   1.788   3.115  11.282 -0.3538 -1.2956 -1.2285
   98OSM   H14C 9724   1.787   3.032  11.138 -2.1035  2.0676 -0.8766
   98OSM    C13 9725   2.081   3.125  11.290  0.2631  0.8662 -0.1000
   98OSM   H13A 9726   2.054   3.168  11.385  0.2440 -1.7788  1.1866
   98OSM   H13B 9727   2.101   3.193  11.208 -1.3553  2.0247  0.4178
   98OSM   H13C 9728   2.177   3.085  11.319  1.3568  3.1021 -0.4332
   98OSM    C12 9729   2.035   2.939  11.136 -0.2409  0.2905 -0.0618
   98OSM   H12A 9730   1.980   2.847  11.149  1.1691 -0.3105  2.2257
   98OSM   H12B 9731   2.140   2.917  11.149 -0.5691 -2.2404 -1.0902
   98OSM    C11 9732   2.028   2.990  10.987  0.3880 -0.9001 -0.2338
   98OSM   H11A 9733   1.919   2.999  10.966  0.6886  2.4798 -0.9252
   98OSM   H11B 9734   2.066   2.908  10.922  2.5070 -1.0611  1.1267
   98OSM      P 9735   2.254   3.114  10.951  0.0355  0.1706 -0.3686
   98OSM    O13 9736   2.292   3.257  10.974 -0.2305 -0.5596 -0.0327
   98OSM    O14 9737   2.309   3.006  11.041  0.0380  0.2248  0.0206
   98OSM    O11 9738   2.289   3.070  10.796  0.0539 -0.1092 -0.8705
   98OSM    O12 9739   2.093   3.108  10.956 -0.0450 -0.1416 -0.0264
   98OSM    C1S 9740   2.241   3.159  10.699 -0.0818 -0.6981  0.6234
   98OSM    H1S 9741   2.295   3.256  10.702  2.5136 -1.8887 -2.0601
   98OSM    H1T 9742   2.132   3.182  10.709 -0.5223 -1.2571 -2.0348
   98OSM     NF 9743   2.228   3.209  10.456 -0.0047 -0.3895 -0.6640
   98OSM    HNF 9744   2.133   3.210  10.426  0.1896  0.6326 -1.3215
   98OSM    C2S 9745   2.262   3.102  10.556  0.0381  1.0832  0.2689
   98OSM    H2S 9746   2.371   3.078  10.548  0.0026 -0.7439  3.5399
   98OSM    C3S 9747   2.177   2.972  10.544 -0.5863 -0.4458  0.0147
   98OSM    H3S 9748   2.070   3.001  10.552 -0.2147  1.6235 -1.6309
   98OSM     O3 9749   2.197   2.882  10.648 -0.3771  0.1343 -0.3163
   98OSM    HO3 9750   2.243   2.936  10.713 -2.2227  0.2029  1.0218
   98OSM    C4S 9751   2.195   2.904  10.405  0.2737 -0.7797  0.5474
   98OSM    H4S 9752   2.129   2.949  10.330  0.0307  0.9669  1.7426
   98OSM    C5S 9753   2.274   2.794  10.373 -0.1737  0.3302  0.2125
   98OSM    H5S 9754   2.330   2.749  10.457 -0.3451  1.9119  1.2020
   98OSM    C6S 9755   2.293   2.733  10.242  0.0650  0.4413  0.8889
   98OSM    H6S 9756   2.286   2.622  10.249 -2.5872  0.4863  0.0168
   98OSM    H6T 9757   2.403   2.729  10.225  0.0509 -2.8473  0.8657
   98OSM    C7S 9758   2.220   2.800  10.124 -0.0395  0.1192 -0.5008
   98OSM    H7S 9759   2.255   2.903  10.104 -0.3883  0.4975  0.7535
   98OSM    H7T 9760   2.110   2.810  10.136  0.0862  2.4723 -0.9449
   98OSM    C8S 9761   2.243   2.718   9.997  0.0080  0.0179 -1.0791
   98OSM    H8S 9762   2.209   2.614  10.013 -0.9369  0.2154 -1.7770
   98OSM    H8T 9763   2.353   2.726   9.980  0.3059  0.5806  0.7838
   98OSM    C9S 9764   2.151   2.772   9.886 -0.2326 -0.1189 -0.7383
   98OSM    H9S 9765   2.175   2.879   9.872 -0.1618  0.6009  3.5074
   98OSM    H9T 9766   2.044   2.750   9.908  0.1328 -0.8962  0.3672
   98OSM   C10S 9767   2.195   2.694   9.758  0.0072  0.1507 -0.6329
   98OSM   H10S 9768   2.144   2.596   9.772 -1.9373  1.0051 -1.2906
   98OSM   H10T 9769   2.305   2.678   9.761  0.0071  0.1858  2.0532
   98OSM   C11S 9770   2.155   2.755   9.623  0.0569 -0.6196 -0.0677
   98OSM   H11S 9771   2.197   2.857   9.621 -3.2957  0.9066  0.6229
   98OSM   H11T 9772   2.044   2.764   9.628  0.0833 -0.9482  1.7268
   98OSM   C12S 9773   2.199   2.670   9.504 -0.2907 -0.0185  0.1168
   98OSM   H12S 9774   2.138   2.580   9.484  1.2760 -1.0693 -0.1326
   98OSM   H12T 9775   2.306   2.639   9.501 -0.0579  0.6335  1.0963
   98OSM   C13S 9776   2.180   2.742   9.370 -0.4115  0.1136 -0.2562
   98OSM   H13S 9777   2.269   2.805   9.346  0.7302 -1.4445 -0.3053
   98OSM   H13T 9778   2.089   2.806   9.372 -0.9578 -0.6577  0.1091
   98OSM   C14S 9779   2.182   2.640   9.255 -0.0975 -0.6927 -0.0312
   98OSM   H14S 9780   2.103   2.566   9.279 -0.3168 -0.2226  0.7153
   98OSM   H14T 9781   2.278   2.586   9.242 -0.0286 -0.6470  0.2854
   98OSM   C15S 9782   2.145   2.701   9.121 -0.0994 -0.3396 -0.2263
   98OSM   H15S 9783   2.225   2.765   9.079 -0.5592 -0.0185 -0.6273
   98OSM   H15T 9784   2.047   2.753   9.130  0.8311  1.1443  2.8215
   98OSM   C16S 9785   2.129   2.604   9.002  0.0961  1.0878  0.2372
   98OSM   H16S 9786   2.044   2.536   9.025 -1.0647  2.5541  0.3987
   98OSM   H16T 9787   2.224   2.550   8.982 -0.2627  0.0796  1.1561
   98OSM   C17S 9788   2.076   2.675   8.883 -0.0510 -0.2397  1.5376
   98OSM   H17S 9789   2.130   2.770   8.861  2.1211 -1.3917  1.6874
   98OSM   H17T 9790   1.974   2.712   8.909  0.7473  3.3552  0.1450
   98OSM   C18S 9791   2.071   2.592   8.756 -0.3400  0.0740 -0.4884
   98OSM   H18S 9792   2.172   2.559   8.725 -0.0959 -1.5311  1.7843
   98OSM   H18T 9793   2.023   2.649   8.673 -0.1021 -0.4501 -0.9932
   98OSM   H18U 9794   2.004   2.504   8.771 -0.5588  0.3106 -0.0758
   98OSM    C1F 9795   2.303   3.318  10.446 -0.9107 -0.2660 -0.1605
   98OSM     OF 9796   2.420   3.321  10.491 -0.0139  0.2027 -0.5477
   98OSM    C2F 9797   2.248   3.433  10.373  0.3428 -0.1373  0.1647
   98OSM    H2F 9798   2.319   3.518  10.371  2.0874 -1.5584 -1.0315
   98OSM    H2G 9799   2.155   3.466  10.425 -0.3795 -1.5060 -0.2094
   98OSM    C3F 9800   2.215   3.400  10.220 -1.0063 -0.2249 -0.1543
   98OSM    H3F 9801   2.104   3.393  10.218 -1.0770  0.8992 -1.5556
   98OSM    H3G 9802   2.256   3.305  10.182  2.0788  0.2472  1.6944
   98OSM    C4F 9803   2.250   3.515  10.124  0.2745  0.3273 -0.8158
   98OSM    H4F 9804   2.360   3.531  10.124  0.1504  1.2327 -0.9565
   98OSM    H4G 9805   2.208   3.610  10.163  0.1766  0.0815 -0.3166
   98OSM    C5F 9806   2.202   3.492   9.979  0.6977  0.2254  0.9419
   98OSM    H5F 9807   2.091   3.505   9.982  0.6169 -0.6084  1.9778
   98OSM    H5G 9808   2.241   3.400   9.932  0.2432  0.3454  0.3128
   98OSM    C6F 9809   2.259   3.607   9.878 -0.7538  0.4523  0.0600
   98OSM    H6F 9810   2.368   3.594   9.860 -0.7488  0.0698  0.3491
   98OSM    H6G 9811   2.232   3.708   9.914 -2.7097 -0.6508  1.9921
   98OSM    C7F 9812   2.190   3.584   9.743 -0.4798  0.4388 -0.3248
   98OSM    H7F 9813   2.084   3.570   9.775  0.0367 -1.8494  0.6033
   98OSM    H7G 9814   2.225   3.485   9.705  0.2631 -0.1610  1.7541
   98OSM    C8F 9815   2.202   3.698   9.641 -0.1407 -0.5764  0.8781
   98OSM    H8F 9816   2.308   3.731   9.641 -0.1832 -0.4248 -0.3564
   98OSM    H8G 9817   2.146   3.788   9.675  0.1321  0.1683 -0.6076
   98OSM    C9F 9818   2.171   3.658   9.498  0.2083 -0.0895 -0.2780
   98OSM    H9F 9819   2.219   3.573   9.449 -0.6425  0.3620 -1.9770
   98OSM   C10F 9820   2.066   3.702   9.423  0.6701  0.2013 -0.1471
   98OSM   H10F 9821   2.052   3.663   9.321 -3.8790  2.9747 -0.8832
   98OSM   C11F 9822   1.958   3.800   9.460  0.6734 -0.1738 -0.2220
   98OSM   H11F 9823   1.947   3.892   9.400 -1.8941 -0.0171  0.4009
   98OSM   H11G 9824   1.983   3.834   9.563  2.4634 -2.8215  0.3328
   98OSM   C12F 9825   1.825   3.722   9.462  0.3089  0.0962  0.9160
   98OSM   H12F 9826   1.753   3.764   9.535 -2.7663 -0.1432 -1.7479
   98OSM   H12G 9827   1.834   3.620   9.503 -1.6671 -0.4083  0.1975
   98OSM   C13F 9828   1.759   3.740   9.325  0.1906  0.6504  0.2369
   98OSM   H13F 9829   1.817   3.679   9.253 -1.5069 -2.3360  1.2077
   98OSM   H13G 9830   1.756   3.845   9.288 -0.4760 -0.2974 -2.7040
   98OSM   C14F 9831   1.611   3.690   9.319 -0.2388 -0.3106 -0.2049
   98OSM   H14F 9832   1.565   3.753   9.398  2.4880 -0.1371  1.3906
   98OSM   H14G 9833   1.613   3.585   9.355 -1.6191 -0.2084  0.2118
   98OSM   C15F 9834   1.557   3.712   9.178  1.1275 -0.7889  0.3533
   98OSM   H15F 9835   1.573   3.819   9.150 -0.9828 -0.3675  0.5182
   98OSM   H15G 9836   1.446   3.715   9.191  1.2550  1.0821  1.4465
   98OSM   C16F 9837   1.599   3.602   9.086  0.2287  0.9436  0.3454
   98OSM   H16F 9838   1.551   3.506   9.115  0.1702  1.0445  0.5816
   98OSM   H16G 9839   1.707   3.581   9.096  0.2810  1.2387  0.4227
   98OSM   C17F 9840   1.569   3.626   8.933  0.4713  0.8303 -0.2325
   98OSM   H17F 9841   1.637   3.573   8.862  1.9028  1.9175  0.2897
   98OSM   H17G 9842   1.572   3.735   8.911 -2.3229  1.0443 -0.0030
   98OSM   C18F 9843   1.419   3.592   8.898 -0.0963  0.0530  0.3810
   98OSM   H18F 9844   1.404   3.610   8.790  0.3024 -0.7070  0.1890
   98OSM   H18G 9845   1.340   3.639   8.959  1.1639 -1.1678  3.1479
   98OSM   H18H 9846   1.400   3.482   8.906  0.4487 -0.1683 -1.0910
   99OSM      N 9847   4.653   3.920  10.938  0.7342  0.1962  0.4138
   99OSM    C15 9848   4.559   3.836  11.021 -0.0055 -0.0315  0.8866
   99OSM   H15A 9849   4.455   3.837  10.990  0.6134 -1.2571 -1.5097
   99OSM   H15B 9850   4.557   3.888  11.115  2.3028  0.6770  0.5951
   99OSM   H15C 9851   4.602   3.737  11.021  2.1249  0.7206 -2.2050
   99OSM    C14 9852   4.791   3.925  10.990  0.5320 -0.1773 -0.7638
   99OSM   H14A 9853   4.788   3.986  11.079  0.2144 -0.5870 -0.4924
   99OSM   H14B 9854   4.864   3.963  10.921  1.4164  1.6100  1.0344
   99OSM   H14C 9855   4.829   3.827  11.013 -2.3270 -1.1876  0.1190
   99OSM    C13 9856   4.679   3.845  10.805 -0.0288  0.1276 -0.6632
   99OSM   H13A 9857   4.589   3.809  10.756 -0.2966  0.8078 -0.6765
   99OSM   H13B 9858   4.722   3.748  10.823 -1.9970 -0.6286  0.3656
   99OSM   H13C 9859   4.728   3.907  10.732 -2.4514 -0.5882 -3.0693
   99OSM    C12 9860   4.588   4.052  10.895 -0.0793  0.0558 -0.6005
   99OSM   H12A 9861   4.492   4.032  10.850  0.4438  1.1959 -2.3268
   99OSM   H12B 9862   4.650   4.095  10.817  2.5846  0.1553  1.4391
   99OSM    C11 9863   4.561   4.163  10.998  0.6096 -0.8640 -0.1195
   99OSM   H11A 9864   4.477   4.132  11.064  0.3422  0.6249  0.2746
   99OSM   H11B 9865   4.515   4.257  10.963 -0.5200 -1.8694 -1.4604
   99OSM      P 9866   4.784   4.293  11.028 -0.1865 -0.6009 -0.2575
   99OSM    O13 9867   4.800   4.411  11.121  0.6310  0.5336  0.3585
   99OSM    O14 9868   4.902   4.207  11.017 -0.0649  0.2760 -0.1880
   99OSM    O11 9869   4.729   4.345  10.890 -0.3026 -0.1282 -0.3580
   99OSM    O12 9870   4.673   4.199  11.075 -0.0572 -0.2468  0.6067
   99OSM    C1S 9871   4.827   4.371  10.783  0.2449 -0.0740 -0.3819
   99OSM    H1S 9872   4.859   4.274  10.739 -2.0602 -1.8535  1.5652
   99OSM    H1T 9873   4.916   4.419  10.828  0.9190 -2.1372  0.6059
   99OSM     NF 9874   4.898   4.475  10.576 -0.0409 -0.0843 -0.0946
   99OSM    HNF 9875   4.928   4.568  10.555  1.6092 -0.7498 -0.8679
   99OSM    C2S 9876   4.785   4.457  10.662  0.2652  0.1135  0.1410
   99OSM    H2S 9877   4.714   4.397  10.602 -1.3012  0.4624  1.5555
   99OSM    C3S 9878   4.721   4.590  10.706  0.3369 -0.3882 -0.9484
   99OSM    H3S 9879   4.790   4.676  10.720  1.1230 -1.3768  1.7723
   99OSM     O3 9880   4.642   4.588  10.827 -0.6407  1.0366  0.0592
   99OSM    HO3 9881   4.668   4.502  10.863  1.9131  1.5597 -0.3263
   99OSM    C4S 9882   4.649   4.647  10.579 -0.7671  0.8667 -0.2390
   99OSM    H4S 9883   4.715   4.718  10.527  0.3232 -1.6102 -2.4643
   99OSM    C5S 9884   4.527   4.635  10.538  0.0555  0.2227 -0.5159
   99OSM    H5S 9885   4.463   4.582  10.611 -0.0164  0.3237 -0.5043
   99OSM    C6S 9886   4.467   4.702  10.417 -0.4686 -0.1604  0.2543
   99OSM    H6S 9887   4.518   4.799  10.398 -2.1826  0.4184 -1.8534
   99OSM    H6T 9888   4.359   4.720  10.437  0.3743  0.8006  5.1747
   99OSM    C7S 9889   4.484   4.611  10.289  0.6192 -0.1321 -0.0158
   99OSM    H7S 9890   4.397   4.624  10.221 -0.0367 -0.1464  0.7938
   99OSM    H7T 9891   4.492   4.502  10.308 -1.9299 -0.1086  1.7455
   99OSM    C8S 9892   4.607   4.659  10.205 -0.5691  0.7918  0.3145
   99OSM    H8S 9893   4.691   4.669  10.277 -0.6700 -3.1074  1.1587
   99OSM    H8T 9894   4.599   4.765  10.172  0.0270  0.5664 -0.6002
   99OSM    C9S 9895   4.652   4.572  10.087  0.5617  0.0283 -0.6591
   99OSM    H9S 9896   4.572   4.582  10.011 -0.0669  0.8512  0.0933
   99OSM    H9T 9897   4.635   4.466  10.115  0.9773 -0.0774 -0.7937
   99OSM   C10S 9898   4.782   4.609  10.013 -0.1942  0.1474 -0.0407
   99OSM   H10S 9899   4.865   4.610  10.086 -0.2512 -1.0626  0.0591
   99OSM   H10T 9900   4.777   4.714   9.975  0.0841  0.3879  0.5643
   99OSM   C11S 9901   4.812   4.512   9.895 -0.5787 -0.0966 -0.3405
   99OSM   H11S 9902   4.729   4.503   9.822  0.1078 -3.0430 -0.8821
   99OSM   H11T 9903   4.827   4.407   9.928  0.9972 -0.2937 -1.5711
   99OSM   C12S 9904   4.935   4.556   9.816  0.4190 -0.0576  0.0835
   99OSM   H12S 9905   4.906   4.647   9.759  0.4172  0.4976  0.9591
   99OSM   H12T 9906   5.023   4.580   9.880  1.5062 -1.0975 -0.9682
   99OSM   C13S 9907   4.975   4.448   9.719  0.8766  0.3639  0.1247
   99OSM   H13S 9908   4.879   4.413   9.675 -0.5255  1.5068  2.0466
   99OSM   H13T 9909   5.026   4.370   9.779  0.8764 -0.0316 -0.3874
   99OSM   C14S 9910   5.061   4.512   9.616  0.6913  0.1713  0.7001
   99OSM   H14S 9911   5.158   4.556   9.649  1.4646  0.2850 -1.5853
   99OSM   H14T 9912   5.000   4.592   9.569  2.0636  0.5454 -0.5154
   99OSM   C15S 9913   5.106   4.401   9.516  0.4617 -0.4377  0.1545
   99OSM   H15S 9914   5.014   4.346   9.487  0.0248  0.3482  0.0304
   99OSM   H15T 9915   5.180   4.343   9.575 -0.2538 -1.3894  0.1320
   99OSM   C16S 9916   5.179   4.464   9.395 -0.6454 -0.0772 -0.4144
   99OSM   H16S 9917   5.265   4.518   9.440 -0.6568 -1.1122  0.8989
   99OSM   H16T 9918   5.125   4.540   9.335  0.1066  1.5764  0.9166
   99OSM   C17S 9919   5.236   4.360   9.295 -0.2561  0.6667  0.1460
   99OSM   H17S 9920   5.157   4.290   9.261 -0.0988 -0.8194  2.6140
   99OSM   H17T 9921   5.303   4.297   9.357 -0.4110 -0.7555 -1.0746
   99OSM   C18S 9922   5.303   4.426   9.180 -0.6043  0.2246  0.6259
   99OSM   H18S 9923   5.392   4.480   9.220  0.2104 -0.4899 -0.1549
   99OSM   H18T 9924   5.233   4.488   9.122 -0.7892 -1.6615 -1.2900
   99OSM   H18U 9925   5.361   4.359   9.112  1.0436  1.2986  0.9083
   99OSM    C1F 9926   4.945   4.376  10.503  0.5156 -0.2280  0.9341
   99OSM     OF 9927   4.882   4.272  10.489 -0.2705 -0.2316 -0.2137
   99OSM    C2F 9928   5.063   4.406  10.419 -0.2724  0.5637 -0.0757
   99OSM    H2F 9929   5.141   4.467  10.470 -1.1708 -1.0671  3.5189
   99OSM    H2G 9930   5.041   4.445  10.317 -0.1630 -0.8164 -0.6449
   99OSM    C3F 9931   5.131   4.272  10.386  0.3936  1.0865  0.4160
   99OSM    H3F 9932   5.182   4.231  10.475  0.5972  1.0114  0.2667
   99OSM    H3G 9933   5.065   4.190  10.349  1.1529 -0.1007  1.6145
   99OSM    C4F 9934   5.231   4.299  10.273 -0.3417  0.3164  0.1101
   99OSM    H4F 9935   5.308   4.376  10.295 -0.8190  0.8636 -0.1297
   99OSM    H4G 9936   5.170   4.341  10.191  1.6798  1.0254 -1.0930
   99OSM    C5F 9937   5.298   4.179  10.210  0.0575  0.1029  0.2986
   99OSM    H5F 9938   5.220   4.110  10.173  0.4557  0.5579 -1.4826
   99OSM    H5G 9939   5.364   4.117  10.275 -0.9522 -2.3785 -0.9241
   99OSM    C6F 9940   5.384   4.221  10.077 -0.1460 -0.1716 -0.3908
   99OSM    H6F 9941   5.447   4.308  10.102 -1.1000  1.0131 -1.9132
   99OSM    H6G 9942   5.300   4.258  10.014 -0.9677 -2.1084 -0.5150
   99OSM    C7F 9943   5.451   4.115   9.997 -0.3991 -0.4163  0.5562
   99OSM    H7F 9944   5.520   4.062  10.067 -0.7959 -0.2262  1.0915
   99OSM    H7G 9945   5.518   4.174   9.931 -1.4402  0.6954  0.4619
   99OSM    C8F 9946   5.365   4.018   9.913  0.2195 -0.6497 -0.2571
   99OSM    H8F 9947   5.294   3.968   9.982  0.3868  0.4749  0.7614
   99OSM    H8G 9948   5.431   3.936   9.877 -0.6483 -1.5021  0.0359
   99OSM    C9F 9949   5.283   4.066   9.805 -0.3589  0.9678 -0.1292
   99OSM    H9F 9950   5.192   4.113   9.845  0.0613 -0.3460  2.5726
   99OSM   C10F 9951   5.319   4.091   9.680  0.7608  0.0752  0.7237
   99OSM   H10F 9952   5.243   4.136   9.615 -0.2767 -1.6575  0.6967
   99OSM   C11F 9953   5.448   4.062   9.607  0.1106  0.0246 -0.4049
   99OSM   H11F 9954   5.500   3.986   9.669 -0.4730 -1.6896 -1.9275
   99OSM   H11G 9955   5.516   4.150   9.620  0.8715 -0.7120  0.8167
   99OSM   C12F 9956   5.443   4.009   9.465  0.1412 -0.2783  0.1397
   99OSM   H12F 9957   5.546   4.012   9.424 -0.4659  2.2653 -1.3760
   99OSM   H12G 9958   5.391   4.081   9.399 -1.1773 -1.1212  0.2217
   99OSM   C13F 9959   5.366   3.872   9.448 -0.1318 -0.3153  0.4748
   99OSM   H13F 9960   5.258   3.897   9.447  0.1183  0.8492  1.3278
   99OSM   H13G 9961   5.389   3.806   9.535 -1.6171 -0.3465  0.8720
   99OSM   C14F 9962   5.394   3.799   9.324 -0.0118 -0.1359  0.0542
   99OSM   H14F 9963   5.347   3.699   9.329 -0.7744  0.2811  2.3329
   99OSM   H14G 9964   5.504   3.785   9.313 -0.1343 -0.5357 -0.7219
   99OSM   C15F 9965   5.355   3.879   9.196  0.5780 -0.2177  0.3492
   99OSM   H15F 9966   5.423   3.966   9.181 -0.3721  0.3148 -1.1780
   99OSM   H15G 9967   5.252   3.918   9.209  1.0179  0.5281  1.8798
   99OSM   C16F 9968   5.357   3.798   9.073  0.0597  0.4505  0.1409
   99OSM   H16F 9969   5.293   3.707   9.080  0.6831  0.0431  0.6658
   99OSM   H16G 9970   5.458   3.754   9.060  0.5689  1.4710  0.4888
   99OSM   C17F 9971   5.330   3.892   8.951 -0.3890  0.0864  0.4818
   99OSM   H17F 9972   5.406   3.973   8.955 -0.2038 -0.0117 -0.6806
   99OSM   H17G 9973   5.223   3.923   8.962 -0.8962 -1.8342  1.4321
   99OSM   C18F 9974   5.346   3.802   8.825 -0.6033 -0.4195 -0.1533
   99OSM   H18F 9975   5.447   3.762   8.804 -1.0003 -1.9870  0.7652
   99OSM   H18G 9976   5.326   3.861   8.733  1.2881 -1.8070 -1.5369
   99OSM   H18H 9977   5.267   3.723   8.832 -1.6494  0.6995  1.2888
  100OSM      N 9978   0.118   6.047  11.134  0.3060 -0.4229  0.4305
  100OSM    C15 9979   0.098   6.030  11.281 -0.3479 -0.1685  0.0271
  100OSM   H15A 9980   0.182   5.970  11.315 -0.7584 -0.3753  0.7049
  100OSM   H15B 9981   0.005   5.978  11.300 -0.7951 -0.0339 -1.6435
  100OSM   H15C 9982   0.089   6.124  11.332 -1.7768 -1.1098  1.6224
  100OSM    C14 9983   0.241   6.128  11.115  0.2781 -0.8968  0.9602
  100OSM   H14A 9984   0.245   6.160  11.011  0.2719 -0.0565  1.2107
  100OSM   H14B 9985   0.335   6.083  11.143  0.3808 -0.8198  0.7433
  100OSM   H14C 9986   0.231   6.213  11.180 -0.0291  0.1912 -0.4446
  100OSM    C13 9987   0.143   5.915  11.070 -0.6045 -0.1125 -0.2100
  100OSM   H13A 9988   0.066   5.841  11.087  0.0142 -0.7789 -0.2573
  100OSM   H13B 9989   0.240   5.875  11.097 -0.1004  0.4296 -1.1707
  100OSM   H13C 9990   0.153   5.929  10.964 -3.0102 -1.1293 -0.6481
  100OSM    C12 9991   0.004   6.122  11.078  0.6083  0.3292 -0.0840
  100OSM   H12A 9992  -0.012   6.210  11.139 -0.4141  0.1815 -0.1295
  100OSM   H12B 9993  -0.087   6.067  11.093  0.6150  0.4511  0.3882
  100OSM    C11 9994   0.007   6.169  10.928 -1.0198 -0.4101 -0.1496
  100OSM   H11A 9995   0.096   6.231  10.906 -0.8843 -0.5484  0.0099
  100OSM   H11B 9996  -0.077   6.241  10.911 -0.0316  0.6176 -0.7847
  100OSM      P 9997  -0.118   5.986  10.792 -0.6102 -0.1941 -0.2510
  100OSM    O13 9998  -0.074   5.854  10.746 -0.5455  0.0961  0.3303
  100OSM    O14 9999  -0.216   5.986  10.903 -0.0386  0.6008  1.0250
  100OSM    O1110000  -0.172   6.078  10.674  0.3122  0.1162 -0.0551
  100OSM    O1210001   0.012   6.057  10.836 -0.5268 -1.0546 -0.0496
  100OSM    C1S10002  -0.095   6.145  10.576  0.2862 -0.0704 -0.2173
  100OSM    H1S10003   0.004   6.171  10.618 -0.6600  0.6880  1.6571
  100OSM    H1T10004  -0.147   6.236  10.538  0.4962 -1.0118 -3.0134
  100OSM     NF10005   0.025   6.132  10.368 -0.6352 -0.2051  0.6188
  100OSM    HNF10006  -0.012   6.200  10.304  1.6675  0.4627 -0.1072
  100OSM    C2S10007  -0.064   6.058  10.450  0.1211 -0.3110 -0.3123
  100OSM    H2S10008  -0.004   5.979  10.500  0.1878 -0.6561 -0.9338
  100OSM    C3S10009  -0.183   5.999  10.376  0.2562 -0.7656 -0.6472
  100OSM    H3S10010  -0.236   6.082  10.324  1.8433 -0.4354 -1.8079
  100OSM     O310011  -0.293   5.936  10.453 -0.5285  0.0648  0.0067
  100OSM    HO310012  -0.271   5.967  10.541 -0.0753 -1.2707  0.3927
  100OSM    C4S10013  -0.130   5.892  10.283  0.7916 -0.0572 -0.7842
  100OSM    H4S10014  -0.071   5.808  10.323 -1.8946 -1.9163 -0.4168
  100OSM    C5S10015  -0.154   5.899  10.145  0.0423  0.0771 -0.0942
  100OSM    H5S10016  -0.208   5.980  10.095  0.3937  0.9010  0.8436
  100OSM    C6S10017  -0.109   5.794  10.051 -0.0135 -0.2401  0.1687
  100OSM    H6S10018  -0.203   5.739  10.027  0.1318 -0.3812 -0.0815
  100OSM    H6T10019  -0.033   5.726  10.095 -0.1427  0.4288  1.4612
  100OSM    C7S10020  -0.046   5.850   9.928 -0.6469 -0.1357  0.3063
  100OSM    H7S10021   0.020   5.770   9.888 -1.3700 -1.2845  1.3271
  100OSM    H7T10022   0.026   5.931   9.949 -1.7584  0.7093  1.0065
  100OSM    C8S10023  -0.138   5.879   9.809  0.2600 -0.7188  0.3660
  100OSM    H8S10024  -0.178   5.981   9.825 -1.4475 -1.3928  0.6890
  100OSM    H8T10025  -0.221   5.805   9.802 -0.6518  0.2987  0.2600
  100OSM    C9S10026  -0.052   5.893   9.674 -0.0276  0.1925 -0.1120
  100OSM    H9S10027   0.013   5.804   9.666  1.8465  1.5735 -0.9501
  100OSM    H9T10028   0.012   5.981   9.695 -1.4645  0.5371  3.7062
  100OSM   C10S10029  -0.144   5.901   9.553  0.2307 -0.0514 -0.1121
  100OSM   H10S10030  -0.188   6.003   9.559  0.0732 -0.1962  2.7376
  100OSM   H10T10031  -0.218   5.818   9.559  0.6018 -0.4451 -0.8591
  100OSM   C11S10032  -0.065   5.896   9.424 -0.1985  0.0000  0.2787
  100OSM   H11S10033  -0.003   5.805   9.417  1.6860  1.3117 -1.3465
  100OSM   H11T10034   0.011   5.977   9.420  2.6084 -2.5159 -1.0025
  100OSM   C12S10035  -0.153   5.920   9.298 -0.6540 -0.5895  0.2842
  100OSM   H12S10036  -0.210   6.014   9.312  0.4557  0.0674  0.4508
  100OSM   H12T10037  -0.229   5.839   9.288 -1.7635 -0.0637  3.3131
  100OSM   C13S10038  -0.068   5.936   9.172 -0.0661 -0.6259  0.5472
  100OSM   H13S10039  -0.018   5.842   9.142  0.6399 -0.2648  0.5773
  100OSM   H13T10040   0.016   6.008   9.183 -0.0570  0.4198 -4.1672
  100OSM   C14S10041  -0.153   5.973   9.050  0.3024  0.1590 -0.8563
  100OSM   H14S10042  -0.199   6.070   9.080  1.5735  0.8849 -1.1493
  100OSM   H14T10043  -0.221   5.889   9.026 -1.0079  1.5729 -2.2945
  100OSM   C15S10044  -0.075   6.010   8.924  0.5392 -0.2014  0.8952
  100OSM   H15S10045   0.008   5.940   8.904 -0.7464 -0.7881 -3.3801
  100OSM   H15T10046  -0.038   6.114   8.938 -0.6521  0.3278  0.3100
  100OSM   C16S10047  -0.167   6.024   8.804  0.1667 -0.3586  0.3583
  100OSM   H16S10048  -0.242   6.105   8.822 -0.4628 -0.3269 -2.0481
  100OSM   H16T10049  -0.220   5.927   8.791  0.4756 -0.5543  0.5570
  100OSM   C17S10050  -0.100   6.019   8.666  0.2865 -0.7739 -0.5246
  100OSM   H17S10051  -0.032   5.932   8.657  0.9448 -0.2569 -0.6715
  100OSM   H17T10052  -0.037   6.108   8.643  0.4923  0.1115  2.9756
  100OSM   C18S10053  -0.207   6.025   8.563  0.4704 -0.1260 -0.0690
  100OSM   H18S10054  -0.163   6.014   8.461 -1.9261 -2.5262 -0.9665
  100OSM   H18T10055  -0.267   6.117   8.581 -0.0949  0.3267 -3.5559
  100OSM   H18U10056  -0.271   5.936   8.579 -1.5831  1.6678  2.5615
  100OSM    C1F10057   0.149   6.166  10.403  0.2118  0.0786  0.9233
  100OSM     OF10058   0.208   6.107  10.490 -0.5873 -0.2890  0.0264
  100OSM    C2F10059   0.210   6.289  10.334  0.0303  0.3493 -0.7209
  100OSM    H2F10060   0.255   6.341  10.422  0.8227 -1.1144 -0.2315
  100OSM    H2G10061   0.133   6.352  10.286 -0.8976  0.3825  0.7416
  100OSM    C3F10062   0.333   6.244  10.253  1.0415 -0.6935 -0.4034
  100OSM    H3F10063   0.388   6.159  10.298  1.4042 -0.7090 -0.8672
  100OSM    H3G10064   0.409   6.324  10.240  3.5459 -2.7769  0.6698
  100OSM    C4F10065   0.279   6.192  10.119  0.7720  0.3552  0.4703
  100OSM    H4F10066   0.193   6.249  10.077  1.1590 -0.7476 -2.0473
  100OSM    H4G10067   0.239   6.092  10.143  1.2754  0.3913  1.4994
  100OSM    C5F10068   0.377   6.173  10.008 -0.0158  0.9448 -0.3777
  100OSM    H5F10069   0.387   6.063  10.000  1.9947  1.0312  0.4272
  100OSM    H5G10070   0.474   6.206  10.050 -0.9627  0.1122  2.7091
  100OSM    C6F10071   0.335   6.210   9.863 -0.0335 -0.0254  0.3765
  100OSM    H6F10072   0.342   6.321   9.863 -1.6206  0.1350 -1.5743
  100OSM    H6G10073   0.228   6.187   9.843  0.2570  0.5299 -2.1538
  100OSM    C7F10074   0.422   6.160   9.742  0.2731 -0.9199  0.7808
  100OSM    H7F10075   0.429   6.049   9.742  4.0452 -0.8104  0.3663
  100OSM    H7G10076   0.524   6.196   9.767  0.0972 -1.1067  1.8229
  100OSM    C8F10077   0.376   6.210   9.603 -0.3170  0.1910 -0.0017
  100OSM    H8F10078   0.470   6.220   9.545  0.3553  0.3337  1.0899
  100OSM    H8G10079   0.325   6.308   9.606 -2.8190 -0.9865 -0.9423
  100OSM    C9F10080   0.283   6.121   9.516 -0.3227 -0.2464 -0.7397
  100OSM    H9F10081   0.210   6.056   9.568  1.1024 -1.0987  0.2958
  100OSM   C10F10082   0.294   6.101   9.388  0.5618 -0.6426  0.0931
  100OSM   H10F10083   0.207   6.054   9.342 -0.2070 -0.1319  0.9906
  100OSM   C11F10084   0.381   6.167   9.288 -0.0273  0.0880  0.0480
  100OSM   H11F10085   0.484   6.129   9.305 -0.8528 -1.1817  2.9100
  100OSM   H11G10086   0.398   6.276   9.297  1.3369 -0.2210  1.7013
  100OSM   C12F10087   0.359   6.152   9.137  0.6350 -1.3255 -0.0678
  100OSM   H12F10088   0.426   6.225   9.087  0.5670 -1.2078  0.0134
  100OSM   H12G10089   0.252   6.178   9.123  0.3867  0.6638  4.0135
  100OSM   C13F10090   0.382   6.013   9.082 -0.5938  0.7817  0.4443
  100OSM   H13F10091   0.326   5.942   9.146  1.1635  0.8096  2.1100
  100OSM   H13G10092   0.490   5.988   9.087 -0.4262  1.4992  0.6001
  100OSM   C14F10093   0.326   6.006   8.938  0.0163 -0.3585 -0.0695
  100OSM   H14F10094   0.363   6.096   8.885 -0.0089 -1.6147 -2.3850
  100OSM   H14G10095   0.217   6.028   8.944 -0.3524 -2.0115 -0.0139
  100OSM   C15F10096   0.364   5.876   8.860 -0.7284  0.4013 -0.3655
  100OSM   H15F10097   0.475   5.874   8.848 -0.8724 -1.2745 -1.8350
  100OSM   H15G10098   0.332   5.885   8.754  0.0839  1.7922 -0.5120
  100OSM   C16F10099   0.326   5.741   8.924 -0.5208 -0.7761 -0.5616
  100OSM   H16F10100   0.215   5.731   8.925 -0.7327  0.6710 -2.6948
  100OSM   H16G10101   0.364   5.742   9.028 -1.7327 -2.9570 -0.0441
  100OSM   C17F10102   0.392   5.629   8.844  0.2604 -0.1479  0.1038
  100OSM   H17F10103   0.498   5.660   8.841 -0.6511  3.5678  0.0757
  100OSM   H17G10104   0.349   5.650   8.744  0.3136  2.1628  0.4915
  100OSM   C18F10105   0.380   5.490   8.903 -0.2550 -0.3668  0.4017
  100OSM   H18F10106   0.272   5.463   8.908 -0.1099 -1.3823 -1.3066
  100OSM   H18G10107   0.416   5.494   9.008  0.6504 -0.3430  0.0971
  100OSM   H18H10108   0.430   5.422   8.831 -0.5552 -0.6406  0.4476
  101OSM      N10109   4.564   6.418  11.109  0.2565 -0.7272  0.1801
  101OSM    C1510110   4.443   6.459  11.180  1.2753 -0.3245 -0.5788
  101OSM   H15A10111   4.362   6.418  11.121  0.3185 -1.9874  1.7398
  101OSM   H15B10112   4.433   6.566  11.181 -1.1911 -0.4718 -2.0029
  101OSM   H15C10113   4.437   6.420  11.280  0.3484  0.2037 -0.4189
  101OSM    C1410114   4.691   6.434  11.186 -0.4361 -0.1376 -0.5766
  101OSM   H14A10115   4.709   6.375  11.274  0.7714  0.6711 -0.2450
  101OSM   H14B10116   4.691   6.531  11.234 -0.0193 -1.8449  3.2069
  101OSM   H14C10117   4.782   6.412  11.132  0.2782  0.3704  0.3705
  101OSM    C1310118   4.543   6.272  11.088  0.3193  0.3314 -0.5820
  101OSM   H13A10119   4.454   6.265  11.027  0.8205 -3.1641 -1.1082
  101OSM   H13B10120   4.554   6.212  11.177 -1.7054 -1.1389 -1.2657
  101OSM   H13C10121   4.630   6.242  11.031  2.0525 -0.8318  2.4020
  101OSM    C1210122   4.578   6.493  10.978 -0.2165 -0.7548 -0.2338
  101OSM   H12A10123   4.667   6.448  10.936 -0.7839 -1.6864 -0.4547
  101OSM   H12B10124   4.607   6.596  10.996 -2.6775  0.0425 -0.4626
  101OSM    C1110125   4.475   6.491  10.860  0.4489  0.1415 -0.0827
  101OSM   H11A10126   4.448   6.390  10.823 -0.2621  0.1317  0.4381
  101OSM   H11B10127   4.516   6.544  10.771 -0.8258  0.9158 -0.2424
  101OSM      P10128   4.330   6.703  10.914  0.3855 -0.2178 -0.2258
  101OSM    O1310129   4.201   6.735  10.987 -0.5929  0.2310  0.2661
  101OSM    O1410130   4.449   6.755  10.982 -0.0523  0.6766  0.4702
  101OSM    O1110131   4.325   6.749  10.764 -0.3450  0.0822  0.0718
  101OSM    O1210132   4.353   6.546  10.902 -0.1852  0.6966 -0.0426
  101OSM    C1S10133   4.276   6.676  10.648 -0.6963 -0.1509 -0.3423
  101OSM    H1S10134   4.165   6.673  10.654 -0.7978  1.1774 -1.0542
  101OSM    H1T10135   4.298   6.568  10.649 -2.2049 -0.4858 -0.1308
  101OSM     NF10136   4.229   6.685  10.410  0.0807 -0.1117 -0.6484
  101OSM    HNF10137   4.285   6.630  10.348 -0.7548 -0.7859 -0.8247
  101OSM    C2S10138   4.310   6.742  10.512 -0.8022 -0.2725 -0.2948
  101OSM    H2S10139   4.284   6.850  10.512 -1.0680 -0.3286  0.6386
  101OSM    C3S10140   4.460   6.725  10.495 -0.3805  0.1086  1.1715
  101OSM    H3S10141   4.487   6.617  10.496  1.9879  0.5780 -0.9963
  101OSM     O310142   4.520   6.785  10.605  0.0877 -0.8272  0.1772
  101OSM    HO310143   4.453   6.809  10.670  0.7479 -0.7260  0.8348
  101OSM    C4S10144   4.515   6.778  10.367  0.2557  0.5318  0.6348
  101OSM    H4S10145   4.485   6.712  10.284 -1.7340  1.4386  0.5683
  101OSM    C5S10146   4.576   6.894  10.346  0.1856  0.6631  0.4010
  101OSM    H5S10147   4.593   6.966  10.428  0.9577  2.7877 -1.5354
  101OSM    C6S10148   4.622   6.959  10.218  0.1728  0.1648 -0.1880
  101OSM    H6S10149   4.729   6.931  10.218 -0.1293 -1.4058  2.7575
  101OSM    H6T10150   4.596   7.066  10.222  0.7299  0.2707  2.3323
  101OSM    C7S10151   4.559   6.879  10.104 -0.3352  0.1362 -0.1769
  101OSM    H7S10152   4.448   6.879  10.103 -0.3456 -0.7488 -1.2788
  101OSM    H7T10153   4.590   6.772  10.111 -2.0321 -0.4666 -1.1650
  101OSM    C8S10154   4.610   6.931   9.965  0.3707 -0.1872  0.5698
  101OSM    H8S10155   4.721   6.925   9.968  0.4048 -0.8567 -1.0195
  101OSM    H8T10156   4.593   7.040   9.960  1.1462 -0.1132 -2.4755
  101OSM    C9S10157   4.562   6.843   9.849  0.1414  0.4679  0.3999
  101OSM    H9S10158   4.454   6.822   9.862  0.3983 -0.2989  1.4716
  101OSM    H9T10159   4.623   6.751   9.860 -0.2952  0.0942 -0.2952
  101OSM   C10S10160   4.599   6.907   9.715  0.5978 -0.3698 -0.8027
  101OSM   H10S10161   4.700   6.953   9.723  0.2651  0.0773  3.6380
  101OSM   H10T10162   4.533   6.994   9.696  1.0954  0.2401  0.1744
  101OSM   C11S10163   4.574   6.816   9.596  0.3701  0.7037 -0.4716
  101OSM   H11S10164   4.561   6.874   9.502  1.1981 -0.5423 -1.4042
  101OSM   H11T10165   4.472   6.776   9.616 -0.1432  0.6405 -2.8577
  101OSM   C12S10166   4.668   6.691   9.582  0.0985  0.5699  0.0115
  101OSM   H12S10167   4.639   6.626   9.667 -1.3739  0.0271 -0.8656
  101OSM   H12T10168   4.776   6.715   9.594  0.2514 -0.1185  0.0363
  101OSM   C13S10169   4.636   6.603   9.453 -0.6230 -0.1455  0.3067
  101OSM   H13S10170   4.527   6.585   9.441 -1.0885  2.0734  0.7650
  101OSM   H13T10171   4.689   6.506   9.460  0.9451  0.7830  2.6072
  101OSM   C14S10172   4.687   6.670   9.326  0.7138  0.8774 -0.4672
  101OSM   H14S10173   4.792   6.672   9.362 -0.5607 -1.5216  4.2203
  101OSM   H14T10174   4.652   6.776   9.319  0.0337  0.5437 -3.2902
  101OSM   C15S10175   4.656   6.592   9.198  0.7078  0.0153 -0.2639
  101OSM   H15S10176   4.547   6.589   9.177  0.5709  0.7645  0.3356
  101OSM   H15T10177   4.683   6.485   9.207  0.2005 -0.4428 -3.0745
  101OSM   C16S10178   4.731   6.653   9.076  0.1085  0.0859  0.4346
  101OSM   H16S10179   4.683   6.745   9.038  0.4265 -0.0104 -0.2151
  101OSM   H16T10180   4.724   6.587   8.987  1.7667  0.8840 -0.3160
  101OSM   C17S10181   4.882   6.672   9.102 -0.3068 -0.1083  0.5985
  101OSM   H17S10182   4.928   6.577   9.136 -1.1555 -1.2942 -1.3905
  101OSM   H17T10183   4.885   6.744   9.186  2.7528 -1.1470  1.5099
  101OSM   C18S10184   4.952   6.741   8.984 -0.3545  0.0221 -0.6894
  101OSM   H18S10185   5.050   6.791   9.002 -0.4524  0.8795 -2.3020
  101OSM   H18T10186   4.893   6.834   8.964  1.1552  0.9938 -0.8448
  101OSM   H18U10187   4.967   6.673   8.897 -0.4360 -0.2439 -0.4956
  101OSM    C1F10188   4.102   6.724  10.388 -0.2676  0.2868 -0.2185
  101OSM     OF10189   4.040   6.796  10.464  0.1192 -0.3138 -0.1804
  101OSM    C2F10190   4.041   6.697  10.254 -0.0226 -0.3394 -0.0526
  101OSM    H2F10191   4.059   6.594  10.214 -2.2327 -1.2665  1.1658
  101OSM    H2G10192   4.098   6.761  10.184 -0.0750 -0.2706 -0.0317
  101OSM    C3F10193   3.883   6.719  10.246 -0.3139 -0.4753 -0.4257
  101OSM    H3F10194   3.848   6.816  10.287 -1.5614 -1.3472  0.6620
  101OSM    H3G10195   3.832   6.640  10.305 -0.9306 -0.4818 -0.9606
  101OSM    C4F10196   3.841   6.727  10.096  0.5006  0.3783  0.1375
  101OSM    H4F10197   3.897   6.805  10.040 -2.6006  3.4131  0.9281
  101OSM    H4G10198   3.739   6.771  10.090  0.5046  0.2851 -0.7197
  101OSM    C5F10199   3.860   6.585  10.038 -0.9448 -0.0908 -0.3953
  101OSM    H5F10200   3.822   6.524  10.123 -3.0452  2.5800  0.7451
  101OSM    H5G10201   3.965   6.565  10.011 -0.2869  1.1075  1.1544
  101OSM    C6F10202   3.773   6.556   9.911 -0.6518 -0.4213 -0.2546
  101OSM    H6F10203   3.751   6.448   9.898 -0.5539 -0.3488 -1.0854
  101OSM    H6G10204   3.682   6.616   9.930  0.0253  1.2288 -1.9153
  101OSM    C7F10205   3.834   6.622   9.781  0.3789 -0.3197 -0.1940
  101OSM    H7F10206   3.942   6.599   9.771 -0.0255 -2.3136 -0.4063
  101OSM    H7G10207   3.822   6.731   9.800  0.9636 -0.2306 -0.3266
  101OSM    C8F10208   3.756   6.566   9.659  0.1930  0.1095  0.4214
  101OSM    H8F10209   3.648   6.587   9.675  0.0267 -1.5482  1.6579
  101OSM    H8G10210   3.766   6.456   9.654 -1.2488 -0.0036 -0.8576
  101OSM    C9F10211   3.787   6.623   9.519  0.4250 -0.2380 -0.2801
  101OSM    H9F10212   3.851   6.712   9.516  2.7908 -1.8762 -1.5266
  101OSM   C10F10213   3.730   6.589   9.405  0.2589 -0.2233 -0.1541
  101OSM   H10F10214   3.752   6.641   9.310 -0.2405  0.7186  0.2445
  101OSM   C11F10215   3.629   6.483   9.387  0.2042  0.4770 -0.3542
  101OSM   H11F10216   3.537   6.527   9.344 -0.7916  0.0356  1.2233
  101OSM   H11G10217   3.604   6.443   9.487  0.8892 -0.8629 -0.6965
  101OSM   C12F10218   3.677   6.358   9.306  0.7296 -0.1412  0.1432
  101OSM   H12F10219   3.592   6.287   9.316  0.7670 -0.2541 -0.3027
  101OSM   H12G10220   3.764   6.317   9.361  0.3422  1.4869  2.0636
  101OSM   C13F10221   3.713   6.387   9.157 -0.1632 -0.7029 -0.1867
  101OSM   H13F10222   3.789   6.467   9.170 -0.3009 -0.7490  1.0207
  101OSM   H13G10223   3.625   6.426   9.102  1.6925  1.4444 -1.8213
  101OSM   C14F10224   3.761   6.254   9.092 -0.3838  0.4042  0.7332
  101OSM   H14F10225   3.689   6.171   9.108 -0.0282  0.2403  1.5351
  101OSM   H14G10226   3.862   6.224   9.126  0.7222  2.7912 -0.2104
  101OSM   C15F10227   3.789   6.262   8.943 -0.1235  0.1741 -0.4385
  101OSM   H15F10228   3.856   6.349   8.928  1.5860 -0.9754  0.2527
  101OSM   H15G10229   3.693   6.293   8.895 -0.5980 -1.0561 -0.3217
  101OSM   C16F10230   3.862   6.133   8.899 -0.0900 -0.4760  0.2298
  101OSM   H16F10231   3.793   6.046   8.901 -0.8726  0.0626 -1.3770
  101OSM   H16G10232   3.942   6.123   8.975  0.0651  1.1375  0.3313
  101OSM   C17F10233   3.933   6.143   8.762 -0.2306  0.1391  0.5925
  101OSM   H17F10234   3.999   6.059   8.736 -0.4616  0.3528 -0.7255
  101OSM   H17G10235   3.991   6.237   8.773  1.6046 -0.8721 -0.0591
  101OSM   C18F10236   3.839   6.165   8.641  0.3612  0.1345  0.2491
  101OSM   H18F10237   3.784   6.260   8.661  1.3819  0.5363  1.2402
  101OSM   H18G10238   3.764   6.085   8.622 -1.0785  1.7540 -1.2963
  101OSM   H18H10239   3.895   6.185   8.548 -0.3033  1.2761  0.0751
  102OSM      N10240   4.671   2.235  10.802  0.1164 -0.5607 -0.5131
  102OSM    C1510241   4.543   2.312  10.820  1.0277 -0.1719  0.1099
  102OSM   H15A10242   4.459   2.249  10.847 -1.1117  1.7534 -1.6329
  102OSM   H15B10243   4.517   2.363  10.728  1.5749  1.9917  1.1077
  102OSM   H15C10244   4.546   2.390  10.894 -0.1309 -0.7410  0.7798
  102OSM    C1410245   4.766   2.338  10.746  0.7749  0.1440  0.5980
  102OSM   H14A10246   4.866   2.297  10.748 -0.2482 -2.6073  2.6072
  102OSM   H14B10247   4.775   2.421  10.815  0.6028 -1.3124  2.4566
  102OSM   H14C10248   4.747   2.361  10.642 -0.5161 -0.1292  0.7565
  102OSM    C1310249   4.734   2.204  10.935  0.5456 -0.7572 -0.9908
  102OSM   H13A10250   4.836   2.172  10.921  0.3387 -0.9671 -2.1726
  102OSM   H13B10251   4.681   2.126  10.988 -0.5630  0.5040 -0.2000
  102OSM   H13C10252   4.737   2.291  10.999 -0.0104 -2.7256  1.8942
  102OSM    C1210253   4.649   2.121  10.713 -0.1659 -0.1654  0.0851
  102OSM   H12A10254   4.599   2.150  10.622  0.4355  0.2135 -0.1281
  102OSM   H12B10255   4.585   2.052  10.767  2.0094 -1.1322  1.5987
  102OSM    C1110256   4.777   2.048  10.673 -0.5369 -0.1078  0.4461
  102OSM   H11A10257   4.845   2.117  10.619 -1.4348  0.0308 -0.5464
  102OSM   H11B10258   4.740   1.976  10.597 -0.8443  0.4987  0.0143
  102OSM      P10259   4.968   1.882  10.763  0.2744 -0.2411  0.1475
  102OSM    O1310260   5.094   1.943  10.808 -0.1973 -0.4162 -0.0689
  102OSM    O1410261   4.921   1.761  10.829 -0.0550  0.3305  0.3690
  102OSM    O1110262   4.969   1.864  10.608 -0.8613  0.2171  0.1009
  102OSM    O1210263   4.843   1.984  10.785 -0.4546  0.1290  0.0969
  102OSM    C1S10264   4.896   1.766  10.538  0.2142  0.0755 -0.9829
  102OSM    H1S10265   4.790   1.758  10.569  0.3301  0.1606 -0.5562
  102OSM    H1T10266   4.943   1.669  10.564 -1.2938 -0.1517  1.1549
  102OSM     NF10267   4.837   1.668  10.319 -0.2535  0.1868  0.3411
  102OSM    HNF10268   4.896   1.605  10.269  0.8096  0.9658  0.5591
  102OSM    C2S10269   4.905   1.779  10.387  0.0444 -0.7313 -0.3598
  102OSM    H2S10270   4.864   1.875  10.349  0.7429  0.3516  1.5074
  102OSM    C3S10271   5.053   1.797  10.335  0.5506  0.4268  0.3541
  102OSM    H3S10272   5.096   1.696  10.351  2.1932  1.3668  2.3421
  102OSM     O310273   5.129   1.896  10.409 -0.6959  0.4544 -0.3028
  102OSM    HO310274   5.077   1.889  10.490 -0.2758 -1.7941 -0.1692
  102OSM    C4S10275   5.056   1.833  10.188 -0.2178 -0.2916  0.0719
  102OSM    H4S10276   4.963   1.880  10.152 -0.5093 -0.8732  0.0526
  102OSM    C5S10277   5.163   1.825  10.107 -0.0868  0.0662 -0.1237
  102OSM    H5S10278   5.260   1.784  10.139  0.7018  0.4000 -1.9562
  102OSM    C6S10279   5.161   1.863   9.964 -0.0270 -0.4649 -0.5303
  102OSM    H6S10280   5.204   1.775   9.911 -0.3893 -1.7733  1.2186
  102OSM    H6T10281   5.228   1.951   9.968  1.9898 -1.9253 -0.4872
  102OSM    C7S10282   5.030   1.914   9.901 -0.3901  0.3000  0.3378
  102OSM    H7S10283   5.027   2.009   9.959  0.3264  1.0342 -0.7969
  102OSM    H7T10284   4.948   1.840   9.912 -0.8199  0.9287  1.6349
  102OSM    C8S10285   5.043   1.948   9.758  0.8118 -0.2821  0.6749
  102OSM    H8S10286   5.130   2.017   9.749  2.5384 -2.0857  2.4507
  102OSM    H8T10287   4.959   2.013   9.725  2.6350  1.2349 -1.2583
  102OSM    C9S10288   5.050   1.828   9.664 -0.0679  0.6393 -0.5560
  102OSM    H9S10289   4.965   1.766   9.700  1.1632 -0.5966  0.2727
  102OSM    H9T10290   5.143   1.769   9.674  1.3070  2.7892  0.0529
  102OSM   C10S10291   5.036   1.856   9.516  0.2639 -0.4603 -0.7262
  102OSM   H10S10292   5.128   1.897   9.469  2.0861 -0.9134  2.1739
  102OSM   H10T10293   4.968   1.944   9.515  0.1284 -0.5265  0.8617
  102OSM   C11S10294   4.986   1.751   9.430  0.1361 -0.2197  0.1774
  102OSM   H11S10295   4.884   1.718   9.460 -0.4021  0.3547 -0.9539
  102OSM   H11T10296   5.040   1.655   9.443  0.1026 -0.4591 -1.2545
  102OSM   C12S10297   4.981   1.803   9.282 -0.2927  0.1695 -0.8235
  102OSM   H12S10298   5.082   1.839   9.253  0.7399  0.3159  2.4884
  102OSM   H12T10299   4.918   1.894   9.284  1.8989  1.7579 -0.3923
  102OSM   C13S10300   4.929   1.694   9.181 -0.1096 -0.2403  0.3447
  102OSM   H13S10301   4.836   1.651   9.224 -1.0347  0.7310 -0.6262
  102OSM   H13T10302   5.012   1.623   9.162 -0.2255 -0.3966  0.4175
  102OSM   C14S10303   4.888   1.766   9.053 -0.2735 -0.3678  0.1764
  102OSM   H14S10304   4.970   1.840   9.040  0.8716 -1.8078 -1.2108
  102OSM   H14T10305   4.789   1.810   9.078  0.3453  1.3016 -0.1694
  102OSM   C15S10306   4.865   1.667   8.933 -0.4621  0.3916  0.1091
  102OSM   H15S10307   4.773   1.611   8.960 -0.4326  0.7562  0.9885
  102OSM   H15T10308   4.958   1.608   8.946 -1.5317 -0.6237  4.4866
  102OSM   C16S10309   4.851   1.731   8.795  0.0105 -0.8324  0.8078
  102OSM   H16S10310   4.853   1.649   8.720 -0.9909 -0.2488  0.1103
  102OSM   H16T10311   4.944   1.792   8.791  0.1826 -1.0504  1.4881
  102OSM   C17S10312   4.733   1.835   8.783 -0.4378  0.3239 -0.1658
  102OSM   H17S10313   4.739   1.892   8.878  0.0024  0.6046 -0.3600
  102OSM   H17T10314   4.637   1.778   8.779 -0.9406  1.2200 -1.6485
  102OSM   C18S10315   4.746   1.936   8.664 -0.1921  0.1633  0.1903
  102OSM   H18S10316   4.666   2.013   8.663  0.2527  0.7843 -3.9215
  102OSM   H18T10317   4.747   1.886   8.565  1.3453 -0.3838  0.4482
  102OSM   H18U10318   4.847   1.984   8.666 -0.6166  1.1105  2.5733
  102OSM    C1F10319   4.702   1.648  10.330 -0.2054 -0.1790 -0.1313
  102OSM     OF10320   4.624   1.741  10.358 -0.1620  0.1676 -0.4899
  102OSM    C2F10321   4.661   1.505  10.320 -0.3474 -0.5013  0.3828
  102OSM    H2F10322   4.649   1.469  10.424 -0.5920 -2.9247 -0.4115
  102OSM    H2G10323   4.740   1.441  10.275  0.2207 -0.0464  0.7295
  102OSM    C3F10324   4.526   1.489  10.244 -0.9392 -0.3344 -0.2743
  102OSM    H3F10325   4.448   1.547  10.298  0.5868  1.0179  0.6072
  102OSM    H3G10326   4.482   1.387  10.245  1.4321 -1.4244 -0.2106
  102OSM    C4F10327   4.537   1.538  10.095  0.4673  0.7530 -0.3827
  102OSM    H4F10328   4.608   1.619  10.069  2.3025 -0.9263 -0.8375
  102OSM    H4G10329   4.439   1.582  10.066 -1.0570 -2.1737 -0.0341
  102OSM    C5F10330   4.542   1.420   9.999 -0.9153 -0.3905  0.4542
  102OSM    H5F10331   4.449   1.365  10.026 -0.6627 -0.1078  2.0345
  102OSM    H5G10332   4.634   1.364  10.028  0.7030  1.8031 -0.1038
  102OSM    C6F10333   4.560   1.452   9.853  0.4554  0.4205  0.0148
  102OSM    H6F10334   4.655   1.509   9.850  0.9188 -0.3270  0.2310
  102OSM    H6G10335   4.481   1.516   9.807 -0.7941 -1.5959 -0.7603
  102OSM    C7F10336   4.566   1.330   9.753  0.9510  0.0607  0.3039
  102OSM    H7F10337   4.474   1.267   9.754 -0.3061  1.8005 -1.1247
  102OSM    H7G10338   4.635   1.263   9.810  2.4686  0.2394 -1.2299
  102OSM    C8F10339   4.620   1.344   9.614  0.0153 -0.1499  1.0572
  102OSM    H8F10340   4.577   1.262   9.553 -0.8677 -0.4172  2.0082
  102OSM    H8G10341   4.728   1.319   9.622 -0.2303 -1.3631  0.8093
  102OSM    C9F10342   4.607   1.479   9.548  0.5905  0.4612 -0.4570
  102OSM    H9F10343   4.577   1.562   9.612 -0.9956  0.3890 -1.0497
  102OSM   C10F10344   4.630   1.506   9.416  0.0437 -0.0609  0.4962
  102OSM   H10F10345   4.603   1.610   9.397 -0.4631 -0.2358  0.2386
  102OSM   C11F10346   4.681   1.410   9.306 -0.1876  0.0990  0.1279
  102OSM   H11F10347   4.694   1.302   9.328  0.9504  0.3204  0.6059
  102OSM   H11G10348   4.775   1.451   9.263 -0.1364  0.6301  0.7347
  102OSM   C12F10349   4.580   1.417   9.179 -0.1874 -0.0229  0.0860
  102OSM   H12F10350   4.570   1.523   9.146  2.5041 -0.2971 -1.9870
  102OSM   H12G10351   4.478   1.381   9.200 -0.6876  0.8734 -0.7276
  102OSM   C13F10352   4.611   1.313   9.070 -0.5239 -0.9989 -0.5773
  102OSM   H13F10353   4.657   1.227   9.123  2.4780  0.8458  0.0315
  102OSM   H13G10354   4.700   1.350   9.016 -0.0301 -1.7032 -0.2668
  102OSM   C14F10355   4.492   1.273   8.982 -0.7295 -0.5832 -0.0288
  102OSM   H14F10356   4.451   1.372   8.951 -1.1790 -0.1788  1.7456
  102OSM   H14G10357   4.413   1.221   9.040  1.3560 -2.9791  0.8463
  102OSM   C15F10358   4.538   1.208   8.854  0.7783 -0.3568  0.2703
  102OSM   H15F10359   4.575   1.106   8.877  0.8022 -1.0665 -2.5101
  102OSM   H15G10360   4.608   1.263   8.787  0.2304 -1.3929 -1.2033
  102OSM   C16F10361   4.410   1.176   8.768 -0.2032 -0.0209  0.1710
  102OSM   H16F10362   4.365   1.277   8.754  1.2431  0.5830 -0.2807
  102OSM   H16G10363   4.336   1.114   8.823 -0.0720 -0.3458 -0.0159
  102OSM   C17F10364   4.448   1.127   8.620  0.5090  0.6608 -0.0517
  102OSM   H17F10365   4.496   1.028   8.632 -1.3582 -0.1709  1.2197
  102OSM   H17G10366   4.512   1.199   8.565 -0.6914  1.0665 -0.9643
  102OSM   C18F10367   4.329   1.100   8.522  0.3664  0.1037  0.1571
  102OSM   H18F10368   4.280   1.195   8.490 -0.8874 -0.6457 -0.1863
  102OSM   H18G10369   4.247   1.048   8.575 -0.6954  0.4881 -1.0543
  102OSM   H18H10370   4.355   1.044   8.430 -1.6709  1.6264 -1.4698
  103OSM      N10371   3.100   3.767  10.673  0.1516  0.0957 -0.1072
  103OSM    C1510372   3.074   3.874  10.780  0.1133  0.4489  0.2633
  103OSM   H15A10373   3.169   3.909  10.817 -0.5737  1.3758  1.2345
  103OSM   H15B10374   3.012   3.833  10.859  2.0978 -1.7422  0.7856
  103OSM   H15C10375   3.026   3.966  10.748 -0.0538 -0.3676 -2.0222
  103OSM    C1410376   3.106   3.625  10.716 -0.1578  0.6937 -0.7824
  103OSM   H14A10377   3.161   3.622  10.809  1.3640 -0.3299 -1.6583
  103OSM   H14B10378   3.164   3.568  10.644 -1.1399 -1.1672 -0.1738
  103OSM   H14C10379   3.011   3.575  10.729 -0.3105  1.2658  0.3545
  103OSM    C1310380   2.988   3.774  10.577 -0.5920  0.3838  0.3732
  103OSM   H13A10381   2.980   3.876  10.543  1.6823 -0.0224 -1.6427
  103OSM   H13B10382   2.897   3.728  10.614 -1.6226  1.5700 -0.5919
  103OSM   H13C10383   3.012   3.724  10.485  2.6759  3.3594 -0.6352
  103OSM    C1210384   3.229   3.810  10.604  0.3745 -0.6370  0.1023
  103OSM   H12A10385   3.309   3.828  10.673  0.1770 -1.6423  0.6002
  103OSM   H12B10386   3.198   3.910  10.573 -1.9301 -0.9194  1.2717
  103OSM    C1110387   3.280   3.732  10.487 -0.8344 -0.1743  0.6358
  103OSM   H11A10388   3.357   3.794  10.436 -2.5296  2.5399  1.1874
  103OSM   H11B10389   3.200   3.714  10.412  0.1394 -0.9333 -0.2607
  103OSM      P10390   3.486   3.597  10.596 -0.3209 -0.3870 -0.5555
  103OSM    O1310391   3.499   3.669  10.723 -0.3653 -0.3106  0.2284
  103OSM    O1410392   3.524   3.451  10.597  0.8280 -0.3955  0.1937
  103OSM    O1110393   3.558   3.670  10.479  0.0073 -0.0808  0.1928
  103OSM    O1210394   3.342   3.611  10.547 -0.3365 -0.3971 -0.6130
  103OSM    C1S10395   3.701   3.667  10.476  0.2476  0.2366  0.3320
  103OSM    H1S10396   3.742   3.576  10.526  0.2651 -0.4414 -0.8924
  103OSM    H1T10397   3.748   3.763  10.507 -1.4045  1.5926 -1.1344
  103OSM     NF10398   3.898   3.624  10.327  0.0954 -0.2953  0.5173
  103OSM    HNF10399   3.943   3.706  10.295 -1.2249  0.4735  0.5638
  103OSM    C2S10400   3.751   3.628  10.327 -0.2424  0.2236  0.3976
  103OSM    H2S10401   3.712   3.526  10.305  0.0681 -0.3278  2.2831
  103OSM    C3S10402   3.699   3.729  10.227 -0.6548 -0.0756 -0.1855
  103OSM    H3S10403   3.728   3.829  10.268  1.6879 -1.0288  0.6327
  103OSM     O310404   3.556   3.727  10.210 -0.1257 -0.2455 -0.0879
  103OSM    HO310405   3.516   3.699  10.293  0.9152 -2.9500 -0.3768
  103OSM    C4S10406   3.762   3.697  10.093  1.2597  0.2163  0.5566
  103OSM    H4S10407   3.724   3.605  10.047 -1.6130  1.6838 -0.1983
  103OSM    C5S10408   3.842   3.777  10.017  0.3656 -0.4833  0.7584
  103OSM    H5S10409   3.856   3.880  10.054 -1.1858  0.7259 -1.7678
  103OSM    C6S10410   3.880   3.751   9.874  0.2010 -0.1043  0.6221
  103OSM    H6S10411   3.943   3.659   9.865 -0.8241 -0.7838  0.1881
  103OSM    H6T10412   3.946   3.833   9.838 -1.0526  0.4409 -0.5160
  103OSM    C7S10413   3.751   3.739   9.789 -0.2606  0.0898 -0.2433
  103OSM    H7S10414   3.701   3.836   9.804  2.4960  1.5632  0.1252
  103OSM    H7T10415   3.684   3.658   9.826 -1.3711  1.9777  2.0566
  103OSM    C8S10416   3.776   3.701   9.644 -0.0170 -0.1543 -0.1520
  103OSM    H8S10417   3.830   3.605   9.637 -1.6030 -1.2590  1.6745
  103OSM    H8T10418   3.834   3.786   9.603 -1.1775  2.0730  2.4285
  103OSM    C9S10419   3.643   3.698   9.562 -0.3515 -0.1263 -0.5632
  103OSM    H9S10420   3.608   3.803   9.549 -1.5413 -0.2897  1.0390
  103OSM    H9T10421   3.559   3.641   9.606  0.2954  0.6004  1.7598
  103OSM   C10S10422   3.655   3.631   9.426 -0.3555  0.7080 -0.0143
  103OSM   H10S10423   3.552   3.628   9.383 -0.5742 -1.1171  0.5774
  103OSM   H10T10424   3.683   3.524   9.428 -1.3390  0.4445  0.0902
  103OSM   C11S10425   3.742   3.718   9.331 -0.5480  0.4242  0.1141
  103OSM   H11S10426   3.850   3.715   9.357 -0.3866  1.2832 -0.4234
  103OSM   H11T10427   3.707   3.823   9.335 -2.1272 -0.0273 -0.9458
  103OSM   C12S10428   3.717   3.665   9.187 -0.3660  0.7711  0.5076
  103OSM   H12S10429   3.619   3.706   9.157 -0.4248 -0.9607 -1.9376
  103OSM   H12T10430   3.705   3.555   9.180  1.8032  0.5772 -1.5072
  103OSM   C13S10431   3.834   3.702   9.093 -0.1513  0.1896  0.2097
  103OSM   H13S10432   3.926   3.666   9.144  0.3300 -0.5252 -1.1131
  103OSM   H13T10433   3.837   3.809   9.066 -2.3390  0.0585 -0.7923
  103OSM   C14S10434   3.816   3.634   8.952 -0.7239 -0.1491 -0.8325
  103OSM   H14S10435   3.719   3.671   8.912 -0.8543  0.4823  0.0376
  103OSM   H14T10436   3.801   3.525   8.963 -0.0435 -0.1321  0.6163
  103OSM   C15S10437   3.925   3.675   8.855 -0.2266  0.1982  0.0939
  103OSM   H15S10438   4.026   3.634   8.878  0.4276  1.0592 -1.1823
  103OSM   H15T10439   3.947   3.783   8.862 -1.2205  0.3165  2.6524
  103OSM   C16S10440   3.903   3.643   8.709 -0.0481  0.4086  0.2810
  103OSM   H16S10441   3.994   3.659   8.648 -1.9408 -0.8451 -3.2065
  103OSM   H16T10442   3.820   3.704   8.666 -0.6445 -0.4795  0.1342
  103OSM   C17S10443   3.862   3.504   8.684 -0.1624  0.2692 -0.4186
  103OSM   H17S10444   3.769   3.485   8.742 -0.8240 -0.1534 -1.5827
  103OSM   H17T10445   3.935   3.423   8.703 -1.5516 -1.3803 -1.6850
  103OSM   C18S10446   3.812   3.485   8.542  0.2101  0.5751  0.4399
  103OSM   H18S10447   3.791   3.376   8.531 -1.4883  1.0631 -1.6861
  103OSM   H18T10448   3.893   3.507   8.470 -1.0668  0.0759 -1.2019
  103OSM   H18U10449   3.716   3.528   8.510 -0.0349 -0.3704 -0.1447
  103OSM    C1F10450   3.971   3.529  10.383 -0.6449  0.5362 -0.1890
  103OSM     OF10451   3.919   3.430  10.436  0.5929  0.3431  0.1274
  103OSM    C2F10452   4.115   3.558  10.381  0.8154  0.4018  0.4384
  103OSM    H2F10453   4.172   3.550  10.476  2.5636 -2.6625 -0.7241
  103OSM    H2G10454   4.133   3.659  10.340 -0.8135  1.3338  1.8817
  103OSM    C3F10455   4.177   3.454  10.283  0.0053 -0.5161  0.2776
  103OSM    H3F10456   4.133   3.352  10.294 -0.5500 -0.4844 -1.3639
  103OSM    H3G10457   4.285   3.434  10.299  0.2425  0.0178 -0.6154
  103OSM    C4F10458   4.143   3.492  10.134 -0.7794 -0.0253 -0.7154
  103OSM    H4F10459   4.161   3.600  10.115 -1.5158  0.0959 -0.7710
  103OSM    H4G10460   4.034   3.481  10.115 -1.1685  1.4167  0.4945
  103OSM    C5F10461   4.215   3.394  10.037  0.4903  0.9786  0.8928
  103OSM    H5F10462   4.189   3.289  10.062  4.2491 -0.4300 -0.3883
  103OSM    H5G10463   4.324   3.399  10.062  1.2229 -1.8377 -1.2607
  103OSM    C6F10464   4.200   3.435   9.882  0.5622 -0.0028 -0.1596
  103OSM    H6F10465   4.230   3.542   9.874  1.4380 -0.1757  0.5885
  103OSM    H6G10466   4.097   3.440   9.841  1.3956 -0.7719 -2.4850
  103OSM    C7F10467   4.274   3.333   9.795  0.3928  0.0559 -0.3762
  103OSM    H7F10468   4.211   3.242   9.789 -0.3147  0.4530  0.7526
  103OSM    H7G10469   4.376   3.321   9.837  0.0445  0.5983  0.6535
  103OSM    C8F10470   4.267   3.381   9.658 -0.2104 -0.6602 -0.8695
  103OSM    H8F10471   4.170   3.430   9.636 -0.6159 -1.6862 -1.4585
  103OSM    H8G10472   4.269   3.294   9.588 -0.4744 -0.0863 -1.5998
  103OSM    C9F10473   4.377   3.479   9.635 -0.8566 -0.0003  1.1813
  103OSM    H9F10474   4.392   3.555   9.713  0.5975  1.8556 -0.7834
  103OSM   C10F10475   4.454   3.487   9.525  0.3724  0.3852 -0.1248
  103OSM   H10F10476   4.538   3.558   9.520  0.7644 -0.0823 -0.3018
  103OSM   C11F10477   4.448   3.393   9.411 -0.4456 -0.5733  0.1565
  103OSM   H11F10478   4.348   3.390   9.363  0.2637  1.2630 -1.5647
  103OSM   H11G10479   4.476   3.293   9.450  1.1835  0.4867  1.8482
  103OSM   C12F10480   4.537   3.441   9.295 -0.5938  0.5046  0.2747
  103OSM   H12F10481   4.637   3.468   9.333 -0.7322  0.4230  0.6975
  103OSM   H12G10482   4.501   3.534   9.247  2.2880  0.7296 -1.6993
  103OSM   C13F10483   4.570   3.331   9.194 -0.6629  0.1281  0.5219
  103OSM   H13F10484   4.474   3.276   9.182  1.1318 -3.1705 -0.0379
  103OSM   H13G10485   4.635   3.255   9.243  0.8871 -0.6054 -2.4108
  103OSM   C14F10486   4.638   3.379   9.068 -0.5294 -0.1174  0.6528
  103OSM   H14F10487   4.744   3.395   9.098 -0.8221  0.3578  1.4690
  103OSM   H14G10488   4.604   3.476   9.027  0.1030 -1.1047 -2.4838
  103OSM   C15F10489   4.635   3.283   8.949  0.0379  0.7909 -0.1206
  103OSM   H15F10490   4.532   3.249   8.925  0.9184 -1.2471 -1.2750
  103OSM   H15G10491   4.697   3.198   8.985 -2.8197 -0.1114  3.1999
  103OSM   C16F10492   4.718   3.338   8.836  0.5473  0.3526  0.4724
  103OSM   H16F10493   4.819   3.371   8.869  0.0592  0.8413  1.5143
  103OSM   H16G10494   4.662   3.430   8.807 -0.4553 -0.8246 -1.5701
  103OSM   C17F10495   4.746   3.239   8.717  0.7758  0.0168 -0.4067
  103OSM   H17F10496   4.644   3.203   8.688 -0.5622  0.6674  3.0876
  103OSM   H17G10497   4.804   3.149   8.748  0.0366 -0.4793 -0.4278
  103OSM   C18F10498   4.822   3.302   8.598 -0.4010 -0.2626 -0.5153
  103OSM   H18F10499   4.848   3.224   8.524  2.1514 -0.4993  0.5202
  103OSM   H18G10500   4.912   3.350   8.643  0.1278 -2.1804  0.6002
  103OSM   H18H10501   4.756   3.383   8.560  0.5570  1.0892  0.5517
  104OSM      N10502   3.784   3.500  11.007  0.3639  0.4192  0.5645
  104OSM    C1510503   3.827   3.382  11.098  0.0829  0.5811  0.0588
  104OSM   H15A10504   3.814   3.289  11.045 -0.6043  0.2361  0.8219
  104OSM   H15B10505   3.774   3.383  11.192  0.7159  1.6296  0.4298
  104OSM   H15C10506   3.933   3.395  11.119  0.0239 -0.4170  1.1069
  104OSM    C1410507   3.642   3.481  10.981 -0.2011 -0.1693  0.5129
  104OSM   H14A10508   3.591   3.550  10.916 -1.4937 -0.1117  1.5233
  104OSM   H14B10509   3.584   3.493  11.072 -1.9455 -0.9338 -0.4559
  104OSM   H14C10510   3.625   3.380  10.948  0.9451  0.7116 -3.2275
  104OSM    C1310511   3.799   3.629  11.087 -0.5542 -0.2613 -0.8856
  104OSM   H13A10512   3.728   3.629  11.169  0.2387 -1.0484 -0.1739
  104OSM   H13B10513   3.781   3.716  11.026 -0.5560  0.5297  0.2119
  104OSM   H13C10514   3.896   3.648  11.131 -1.5299 -0.3163  1.4639
  104OSM    C1210515   3.875   3.506  10.875 -0.4841 -0.1762 -0.0266
  104OSM   H12A10516   3.848   3.415  10.824  1.5305  0.0527 -1.6345
  104OSM   H12B10517   3.981   3.499  10.893 -0.0726  0.0441 -2.1239
  104OSM    C1110518   3.854   3.629  10.783  0.4252 -0.5992  0.4505
  104OSM   H11A10519   3.749   3.625  10.747 -0.8504  0.1176  3.7546
  104OSM   H11B10520   3.921   3.611  10.696  0.5415  0.1253  0.3863
  104OSM      P10521   4.015   3.834  10.846 -0.1477 -0.4362 -0.3764
  104OSM    O1310522   4.027   3.910  10.971 -0.0566 -0.9069 -0.1237
  104OSM    O1410523   4.126   3.742  10.826 -0.3747  0.3011  0.8766
  104OSM    O1110524   3.987   3.934  10.729  0.1480 -0.3452 -0.0853
  104OSM    O1210525   3.888   3.752  10.852  0.3425  0.3296 -0.1008
  104OSM    C1S10526   4.078   3.951  10.622 -0.4424  0.2106  0.2715
  104OSM    H1S10527   4.075   3.860  10.559 -0.6997  0.7507 -0.5107
  104OSM    H1T10528   4.175   3.972  10.672 -0.3256 -2.0317  1.1103
  104OSM     NF10529   4.150   4.065  10.423  0.0936  0.1276 -0.4563
  104OSM    HNF10530   4.238   4.104  10.448  1.3078 -2.9363  0.5022
  104OSM    C2S10531   4.056   4.073  10.529  0.1642 -0.4474  0.1337
  104OSM    H2S10532   3.953   4.062  10.489 -0.1097  1.9466  0.0170
  104OSM    C3S10533   4.074   4.202  10.609 -0.6811  0.3711 -0.8524
  104OSM    H3S10534   4.181   4.207  10.640 -0.2828 -1.1155 -1.8771
  104OSM     O310535   4.003   4.200  10.731 -0.6202 -0.2048  0.0819
  104OSM    HO310536   3.963   4.113  10.735 -0.6323 -0.2168 -0.2639
  104OSM    C4S10537   4.041   4.322  10.524  0.3470  0.1915 -0.0611
  104OSM    H4S10538   3.934   4.340  10.508  0.3494 -0.5765 -1.0342
  104OSM    C5S10539   4.127   4.412  10.476  0.3580  0.0465 -0.1022
  104OSM    H5S10540   4.229   4.396  10.514 -0.4353 -0.9433  1.7239
  104OSM    C6S10541   4.095   4.539  10.404 -0.3830 -0.2291 -0.5193
  104OSM    H6S10542   4.187   4.580  10.356 -0.0151  1.1569  1.2689
  104OSM    H6T10543   4.069   4.618  10.478 -0.2192  0.0105 -0.7170
  104OSM    C7S10544   3.988   4.530  10.295 -0.4024 -0.3524 -0.2646
  104OSM    H7S10545   3.944   4.621  10.247  0.0657 -0.5931 -1.1676
  104OSM    H7T10546   3.901   4.487  10.349 -0.5023  1.3627  1.0226
  104OSM    C8S10547   4.029   4.432  10.186 -0.4528 -0.7087 -0.3017
  104OSM    H8S10548   3.943   4.407  10.120 -1.3644 -2.9460  1.5837
  104OSM    H8T10549   4.063   4.333  10.222  3.5797  0.8067  0.5303
  104OSM    C9S10550   4.140   4.485  10.089  0.0111 -0.2370 -0.0655
  104OSM    H9S10551   4.232   4.498  10.149  0.7681 -0.5729 -1.1342
  104OSM    H9T10552   4.113   4.588  10.058  0.1760  0.5984  2.3209
  104OSM   C10S10553   4.163   4.389   9.976  0.0433  0.8869 -0.1895
  104OSM   H10S10554   4.077   4.397   9.906 -1.7954 -0.9915  1.6861
  104OSM   H10T10555   4.168   4.287  10.020  1.1389  1.4659  1.0966
  104OSM   C11S10556   4.288   4.417   9.896 -0.1705 -0.0939  0.0689
  104OSM   H11S10557   4.380   4.411   9.958  0.5685  2.6875 -0.6173
  104OSM   H11T10558   4.291   4.520   9.854  2.4457 -0.0375  0.2222
  104OSM   C12S10559   4.294   4.325   9.776 -0.1209 -0.3450 -0.6484
  104OSM   H12S10560   4.217   4.244   9.777  1.9239 -2.3941 -1.1913
  104OSM   H12T10561   4.385   4.263   9.789  0.4531  0.5532 -0.3428
  104OSM   C13S10562   4.289   4.395   9.642 -0.1737  0.4615  0.2253
  104OSM   H13S10563   4.364   4.476   9.627 -0.8837  0.6701 -2.9798
  104OSM   H13T10564   4.188   4.440   9.632 -0.2853 -0.0408 -1.0951
  104OSM   C14S10565   4.302   4.291   9.534  0.7050  0.6702  0.5740
  104OSM   H14S10566   4.217   4.221   9.546  0.9631 -0.0449 -1.3539
  104OSM   H14T10567   4.398   4.236   9.550  0.9053  0.8173 -0.0734
  104OSM   C15S10568   4.313   4.337   9.391 -0.5669  0.2723 -0.1284
  104OSM   H15S10569   4.414   4.376   9.369 -0.9220  1.0743 -0.3765
  104OSM   H15T10570   4.240   4.419   9.373  0.4270  0.9937 -0.9498
  104OSM   C16S10571   4.282   4.234   9.283 -0.4920  1.0519 -0.2865
  104OSM   H16S10572   4.182   4.184   9.280 -0.0659 -0.1514  2.2961
  104OSM   H16T10573   4.365   4.162   9.303 -0.3073  1.3227 -0.0766
  104OSM   C17S10574   4.310   4.290   9.137 -0.1250 -0.3124  0.6106
  104OSM   H17S10575   4.417   4.321   9.129  1.0531 -3.2286  2.9955
  104OSM   H17T10576   4.237   4.372   9.123  0.9337  0.7920  1.3841
  104OSM   C18S10577   4.284   4.201   9.022  0.5968  0.4170  0.4617
  104OSM   H18S10578   4.306   4.247   8.924 -0.0328 -0.1518  0.0414
  104OSM   H18T10579   4.174   4.182   9.032  0.7541  0.2241  2.1873
  104OSM   H18U10580   4.336   4.103   9.026 -0.7565 -0.2824  2.1677
  104OSM    C1F10581   4.143   3.989  10.315 -0.5225 -0.3020 -0.9595
  104OSM     OF10582   4.052   3.907  10.288  0.3822 -0.1926  0.8884
  104OSM    C2F10583   4.249   4.015  10.208  0.1665 -0.0828  0.3777
  104OSM    H2F10584   4.349   4.019  10.256  0.5369 -0.0012 -0.3807
  104OSM    H2G10585   4.235   4.120  10.173 -0.7221  0.2137  1.5405
  104OSM    C3F10586   4.237   3.913  10.093 -0.5630  0.0266  0.5032
  104OSM    H3F10587   4.130   3.901  10.065 -0.0926 -2.0544 -0.5918
  104OSM    H3G10588   4.265   3.810  10.122  2.4610  0.7460  0.5045
  104OSM    C4F10589   4.311   3.957   9.968  0.2443 -0.0179 -0.0589
  104OSM    H4F10590   4.421   3.956   9.981  0.3550 -0.7997 -0.9278
  104OSM    H4G10591   4.291   4.065   9.950  0.3751  0.3030  1.5778
  104OSM    C5F10592   4.268   3.893   9.838  0.1199  0.1534 -0.3401
  104OSM    H5F10593   4.158   3.905   9.828 -0.0003  0.8227  1.4126
  104OSM    H5G10594   4.293   3.785   9.853  0.2076 -0.0394 -1.7499
  104OSM    C6F10595   4.341   3.938   9.716 -0.4186  0.4502  0.7064
  104OSM    H6F10596   4.449   3.936   9.740 -0.1727 -1.7229 -0.2736
  104OSM    H6G10597   4.303   4.038   9.686  2.3460  2.1029  2.2882
  104OSM    C7F10598   4.327   3.831   9.610  0.4913  0.5857  0.8522
  104OSM    H7F10599   4.332   3.731   9.657 -2.2371 -1.1428 -2.0772
  104OSM    H7G10600   4.406   3.841   9.532 -2.2491  2.1834 -1.9479
  104OSM    C8F10601   4.189   3.853   9.547 -0.4693 -0.1121  0.3351
  104OSM    H8F10602   4.179   3.955   9.504 -3.8278 -1.1555 -1.7679
  104OSM    H8G10603   4.109   3.848   9.624 -0.1959  1.1927  0.7310
  104OSM    C9F10604   4.162   3.744   9.448  0.2589 -0.2488  0.4959
  104OSM    H9F10605   4.118   3.657   9.500  0.7036 -1.3034 -0.8353
  104OSM   C10F10606   4.185   3.733   9.317  0.0457 -0.1179  0.1098
  104OSM   H10F10607   4.151   3.647   9.258 -0.4138 -0.7686  1.2826
  104OSM   C11F10608   4.264   3.834   9.235 -0.2063 -0.1005  0.3627
  104OSM   H11F10609   4.333   3.893   9.298  0.3099 -0.7602  0.4275
  104OSM   H11G10610   4.193   3.902   9.184  1.4459  0.7294 -0.9489
  104OSM   C12F10611   4.359   3.794   9.124 -0.3308  0.3010 -0.3457
  104OSM   H12F10612   4.451   3.738   9.153 -1.6561 -0.5527  2.6661
  104OSM   H12G10613   4.407   3.885   9.083 -0.1087  0.1205 -0.4942
  104OSM   C13F10614   4.292   3.707   9.022  0.1323 -0.0399 -0.1761
  104OSM   H13F10615   4.190   3.748   9.006 -0.2967 -0.3624  1.4738
  104OSM   H13G10616   4.263   3.606   9.058  0.4392  0.0303  0.2754
  104OSM   C14F10617   4.370   3.690   8.890  0.3100  0.2817  0.0735
  104OSM   H14F10618   4.472   3.659   8.922  0.0257 -0.2556  0.4829
  104OSM   H14G10619   4.387   3.793   8.854  1.7989 -0.5862 -1.9471
  104OSM   C15F10620   4.290   3.594   8.786 -0.9802 -0.2811 -0.7603
  104OSM   H15F10621   4.352   3.599   8.694 -1.3927  3.1141 -0.9801
  104OSM   H15G10622   4.191   3.638   8.761  0.1377  1.6357 -2.0847
  104OSM   C16F10623   4.270   3.450   8.832 -0.1101 -0.4561  0.6422
  104OSM   H16F10624   4.191   3.440   8.909 -0.2431  0.9186  0.6939
  104OSM   H16G10625   4.369   3.415   8.870  0.0899 -2.1689 -1.3007
  104OSM   C17F10626   4.230   3.354   8.717  0.0798  0.1357  0.6573
  104OSM   H17F10627   4.141   3.400   8.668  1.3357  1.2300 -0.6607
  104OSM   H17G10628   4.199   3.255   8.758 -2.4921  0.3942 -0.4368
  104OSM   C18F10629   4.346   3.332   8.623  0.4371  0.6074 -0.3362
  104OSM   H18F10630   4.390   3.430   8.594  2.3579  0.1599  0.8711
  104OSM   H18G10631   4.322   3.272   8.533  2.6907  1.0522 -1.3037
  104OSM   H18H10632   4.433   3.276   8.664 -0.8924 -2.3802 -1.3067
  105OSM      N10633   1.759   4.733  10.969 -0.0882 -0.3048 -0.3470
  105OSM    C1510634   1.782   4.685  11.104 -0.0174  0.6984  0.6343
  105OSM   H15A10635   1.701   4.703  11.174 -0.9950 -1.2979  0.0865
  105OSM   H15B10636   1.867   4.742  11.138  0.9573  0.0924 -0.7144
  105OSM   H15C10637   1.794   4.578  11.107 -0.8266  0.5608 -0.2392
  105OSM    C1410638   1.878   4.712  10.881 -0.0006 -0.0957  0.0020
  105OSM   H14A10639   1.870   4.763  10.786 -4.2037  0.1079  0.3102
  105OSM   H14B10640   1.887   4.609  10.850 -0.1732  0.7356 -3.2316
  105OSM   H14C10641   1.965   4.745  10.936 -0.6487  0.7743  0.5181
  105OSM    C1310642   1.637   4.661  10.916 -0.0629  0.0049  0.3604
  105OSM   H13A10643   1.602   4.700  10.821  1.7313  2.1767  0.5326
  105OSM   H13B10644   1.547   4.675  10.974 -0.4466  0.8827 -0.4176
  105OSM   H13C10645   1.655   4.558  10.888 -1.1098 -0.2110  0.4476
  105OSM    C1210646   1.728   4.879  10.984 -0.3944 -0.5531  0.0313
  105OSM   H12A10647   1.816   4.908  11.040 -1.6770 -1.3402  2.5898
  105OSM   H12B10648   1.642   4.902  11.045  1.3759  0.7068  2.1999
  105OSM    C1110649   1.713   4.967  10.857 -0.1642 -0.9361 -0.2836
  105OSM   H11A10650   1.815   4.972  10.813 -0.0589  0.4725  0.0624
  105OSM   H11B10651   1.697   5.076  10.876  2.4631 -0.9034  2.5559
  105OSM      P10652   1.465   4.943  10.793 -0.0581 -0.2828  0.0584
  105OSM    O1310653   1.388   4.841  10.719  0.2730  0.1330  0.0256
  105OSM    O1410654   1.438   4.962  10.938  0.8673  0.1287 -0.1109
  105OSM    O1110655   1.432   5.065  10.712  0.6777  0.5253 -0.3852
  105OSM    O1210656   1.617   4.914  10.770  0.0472 -0.0974  0.6387
  105OSM    C1S10657   1.498   5.084  10.582  0.6797 -0.0120  0.0785
  105OSM    H1S10658   1.435   5.051  10.497 -1.4907  3.2119  0.2448
  105OSM    H1T10659   1.600   5.040  10.579  0.4895 -0.4055 -2.7033
  105OSM     NF10660   1.575   5.232  10.400 -0.5303  0.4611 -0.5039
  105OSM    HNF10661   1.673   5.247  10.388 -0.5256  3.0951  1.7138
  105OSM    C2S10662   1.521   5.234  10.538 -0.4472  0.3670 -0.3978
  105OSM    H2S10663   1.425   5.289  10.541 -0.4556  0.3289  0.4450
  105OSM    C3S10664   1.622   5.303  10.642  0.2295 -0.0703  0.9192
  105OSM    H3S10665   1.714   5.241  10.645 -0.8541 -1.7642  0.4473
  105OSM     O310666   1.572   5.295  10.774  0.3525  0.7353  0.5069
  105OSM    HO310667   1.515   5.219  10.758  1.4854 -0.3408  1.3665
  105OSM    C4S10668   1.636   5.441  10.594  0.3770  0.0827  0.4185
  105OSM    H4S10669   1.547   5.506  10.592  1.1505  1.1580 -1.2879
  105OSM    C5S10670   1.751   5.487  10.542  0.0310 -0.3361  0.3074
  105OSM    H5S10671   1.835   5.415  10.544  0.6685  0.3583  3.0499
  105OSM    C6S10672   1.781   5.624  10.477  0.2597 -0.6411  0.2671
  105OSM    H6S10673   1.884   5.656  10.505  0.4995  0.1152 -1.3583
  105OSM    H6T10674   1.715   5.692  10.535  1.6777  0.0438  1.1385
  105OSM    C7S10675   1.754   5.619  10.326 -0.0278  0.1351 -0.5394
  105OSM    H7S10676   1.749   5.724  10.292 -0.6420 -0.3735 -2.1647
  105OSM    H7T10677   1.658   5.565  10.311  0.7002 -0.9891 -1.3668
  105OSM    C8S10678   1.853   5.530  10.254  0.2119 -0.2391 -0.2088
  105OSM    H8S10679   1.841   5.428  10.297 -1.0624  0.0676  0.2214
  105OSM    H8T10680   1.957   5.559  10.279  0.0603 -0.6411  0.9576
  105OSM    C9S10681   1.824   5.537  10.104 -0.4018  0.6982  0.3841
  105OSM    H9S10682   1.845   5.639  10.064  0.4405  0.3905  0.0094
  105OSM    H9T10683   1.717   5.518  10.083  0.3159 -0.2199 -2.9916
  105OSM   C10S10684   1.911   5.421  10.035 -0.2331  0.3750 -0.5968
  105OSM   H10S10685   1.864   5.324  10.064 -0.5651  0.2047 -1.6404
  105OSM   H10T10686   2.012   5.424  10.079  0.6979 -1.8498 -2.3868
  105OSM   C11S10687   1.922   5.431   9.883 -0.0841  0.2711  0.5327
  105OSM   H11S10688   1.987   5.520   9.862  1.2329 -0.3453  1.7874
  105OSM   H11T10689   1.824   5.460   9.841  0.6859  2.1251 -0.1225
  105OSM   C12S10690   1.969   5.301   9.809 -0.2827  1.2538  0.0502
  105OSM   H12S10691   1.895   5.219   9.804 -0.2436  1.2387 -0.2809
  105OSM   H12T10692   2.067   5.267   9.848 -0.7982 -2.2218 -1.3546
  105OSM   C13S10693   1.984   5.333   9.659  0.5703  0.1249  0.0856
  105OSM   H13S10694   2.016   5.438   9.646 -0.9577  0.6402  0.2294
  105OSM   H13T10695   1.881   5.322   9.617  0.9065  3.1617 -1.8030
  105OSM   C14S10696   2.077   5.234   9.590  0.0736 -0.3320 -0.7431
  105OSM   H14S10697   2.038   5.130   9.589 -1.3927  0.1824 -2.1882
  105OSM   H14T10698   2.175   5.229   9.642  0.2719 -0.4444 -1.1256
  105OSM   C15S10699   2.107   5.276   9.448 -0.1483  0.2890 -0.1197
  105OSM   H15S10700   2.191   5.209   9.421  1.0724  2.1324 -1.1392
  105OSM   H15T10701   2.136   5.383   9.441  3.8769 -0.5426  1.3616
  105OSM   C16S10702   1.990   5.260   9.350  0.2453  0.3902 -0.7224
  105OSM   H16S10703   1.927   5.350   9.364 -1.3696 -0.7895 -0.0348
  105OSM   H16T10704   1.932   5.167   9.371 -0.5617  1.3409  1.5307
  105OSM   C17S10705   2.028   5.253   9.199  0.2636 -0.0491 -0.2303
  105OSM   H17S10706   2.088   5.160   9.188  0.3374 -0.2942  1.9146
  105OSM   H17T10707   2.089   5.344   9.181  0.0947  0.0244 -0.4421
  105OSM   C18S10708   1.913   5.254   9.096  0.5903 -0.0593 -0.3385
  105OSM   H18S10709   1.942   5.305   9.002  0.3141  2.2417  0.7582
  105OSM   H18T10710   1.828   5.312   9.138  0.5696  0.9153 -1.6550
  105OSM   H18U10711   1.886   5.149   9.073  1.1106  0.1690 -2.1252
  105OSM    C1F10712   1.499   5.207  10.296 -0.0589 -0.2152  0.0735
  105OSM     OF10713   1.378   5.175  10.312 -0.9135 -0.4838 -0.1437
  105OSM    C2F10714   1.571   5.210  10.167  0.2645  0.1503  0.3238
  105OSM    H2F10715   1.608   5.109  10.139 -0.4905  0.1364 -0.6895
  105OSM    H2G10716   1.658   5.278  10.170  1.9464 -1.6951 -2.3929
  105OSM    C3F10717   1.473   5.234  10.049  0.4740 -0.0725  0.6310
  105OSM    H3F10718   1.414   5.328  10.050 -0.1410 -0.4555  0.4689
  105OSM    H3G10719   1.403   5.149  10.044  2.1219 -1.3988 -2.1536
  105OSM    C4F10720   1.553   5.256   9.917 -0.3593  0.2361  0.0357
  105OSM    H4F10721   1.610   5.163   9.897  0.0185 -0.1228  2.4488
  105OSM    H4G10722   1.620   5.342   9.938  0.7512 -0.3533 -0.9715
  105OSM    C5F10723   1.454   5.300   9.808  0.0445  0.0768  0.2800
  105OSM    H5F10724   1.428   5.406   9.831  2.3783  0.6408  0.5252
  105OSM    H5G10725   1.363   5.237   9.794 -1.4217  1.9573  0.8668
  105OSM    C6F10726   1.517   5.317   9.667 -0.2523  1.0031 -0.6958
  105OSM    H6F10727   1.563   5.220   9.641  1.6142  1.7983 -0.4996
  105OSM    H6G10728   1.598   5.393   9.666 -1.6522  2.5966  0.3419
  105OSM    C7F10729   1.418   5.357   9.557 -0.4436  1.0621  0.8160
  105OSM    H7F10730   1.357   5.444   9.589  1.0902  2.4684  0.0490
  105OSM    H7G10731   1.350   5.269   9.547 -0.2736  0.8447  1.4948
  105OSM    C8F10732   1.490   5.396   9.423  0.1956 -0.0280 -0.3844
  105OSM    H8F10733   1.525   5.298   9.384 -1.7409 -0.1941 -1.8543
  105OSM    H8G10734   1.572   5.465   9.454  0.4420 -0.1543 -0.7487
  105OSM    C9F10735   1.398   5.447   9.318  0.6888 -0.2932 -0.8776
  105OSM    H9F10736   1.290   5.435   9.337  0.6406 -0.0907 -1.0291
  105OSM   C10F10737   1.436   5.514   9.206  0.8527  0.3771  0.2158
  105OSM   H10F10738   1.356   5.573   9.159 -0.6203  0.0817  2.2061
  105OSM   C11F10739   1.576   5.547   9.168  0.0550  0.3053 -0.2995
  105OSM   H11F10740   1.649   5.485   9.224  0.3515  0.5440 -0.4172
  105OSM   H11G10741   1.603   5.653   9.186  0.0225  0.6432 -2.0869
  105OSM   C12F10742   1.596   5.529   9.021 -0.3215 -0.6964 -0.3904
  105OSM   H12F10743   1.534   5.588   8.950  0.1399 -0.5742 -0.6966
  105OSM   H12G10744   1.570   5.422   9.006 -2.0031 -0.7207  2.1472
  105OSM   C13F10745   1.743   5.565   8.981  0.1015 -0.0945  0.1698
  105OSM   H13F10746   1.815   5.486   9.011 -0.5358 -0.8866 -0.3578
  105OSM   H13G10747   1.780   5.651   9.042  0.7948  0.0431 -0.4336
  105OSM   C14F10748   1.779   5.572   8.829  0.1891  0.3384 -0.1806
  105OSM   H14F10749   1.871   5.623   8.793  0.6946 -0.3254  0.1432
  105OSM   H14G10750   1.700   5.635   8.784  1.5077  1.7022 -0.6824
  105OSM   C15F10751   1.760   5.430   8.762  0.2046 -0.8352 -0.0653
  105OSM   H15F10752   1.655   5.431   8.726 -0.1493  1.7512  0.7863
  105OSM   H15G10753   1.762   5.356   8.845 -2.4045  1.3087  2.0746
  105OSM   C16F10754   1.865   5.406   8.660  0.1023  0.6143 -0.3699
  105OSM   H16F10755   1.877   5.485   8.582  0.6628  0.6500 -0.2539
  105OSM   H16G10756   1.843   5.306   8.617 -1.6310 -0.6909  3.2071
  105OSM   C17F10757   2.000   5.379   8.733  0.2785  0.4546  0.7870
  105OSM   H17F10758   1.981   5.292   8.800 -0.4494  0.0783  0.1201
  105OSM   H17G10759   2.022   5.460   8.805 -2.6769  1.6294  0.5032
  105OSM   C18F10760   2.117   5.364   8.636  0.1275 -0.1147 -0.4517
  105OSM   H18F10761   2.157   5.263   8.661 -1.4291 -0.8050 -0.6138
  105OSM   H18G10762   2.185   5.450   8.652 -3.4294  2.6387  1.2698
  105OSM   H18H10763   2.084   5.364   8.530  0.6412  0.2198 -0.6138
  106OSM      N10764   1.889   5.670  10.948 -0.0141  0.7195 -0.3600
  106OSM    C1510765   1.887   5.801  10.888 -0.0498  0.7661  0.4504
  106OSM   H15A10766   1.968   5.861  10.928  1.7993 -1.1112 -0.3167
  106OSM   H15B10767   1.793   5.855  10.884 -0.8139 -0.5813 -0.2399
  106OSM   H15C10768   1.911   5.797  10.783  4.6395  3.2506  1.1518
  106OSM    C1410769   1.875   5.685  11.095  0.4619 -0.8439 -0.0214
  106OSM   H14A10770   1.954   5.740  11.146 -0.1299  1.2980 -1.2644
  106OSM   H14B10771   1.876   5.588  11.142 -2.1824 -0.9371 -0.0091
  106OSM   H14C10772   1.786   5.743  11.113 -2.0616 -3.1635 -3.7473
  106OSM    C1310773   1.778   5.578  10.906  0.0468  0.3407  0.2438
  106OSM   H13A10774   1.682   5.628  10.898 -0.2255 -0.3105 -0.8829
  106OSM   H13B10775   1.756   5.493  10.968 -0.3813 -0.2784 -0.7323
  106OSM   H13C10776   1.793   5.548  10.803 -1.3127  3.3506 -0.9818
  106OSM    C1210777   2.030   5.609  10.921 -0.2629 -0.9001  0.9196
  106OSM   H12A10778   2.031   5.513  10.971 -1.0813 -0.7698  1.2100
  106OSM   H12B10779   2.113   5.668  10.957 -1.2122  0.1278  1.4664
  106OSM    C1110780   2.061   5.587  10.769  1.1144 -0.6101 -0.7227
  106OSM   H11A10781   2.172   5.596  10.762  1.0747  0.5068 -0.1395
  106OSM   H11B10782   2.029   5.674  10.707 -1.1189 -1.1723 -0.4443
  106OSM      P10783   2.077   5.335  10.737 -0.5409 -0.1347 -0.0004
  106OSM    O1310784   2.121   5.317  10.872  0.2128 -0.3869 -0.0613
  106OSM    O1410785   2.000   5.225  10.678 -0.2115  0.3618  0.1751
  106OSM    O1110786   2.207   5.359  10.648 -0.0305  0.0421 -0.2407
  106OSM    O1210787   2.003   5.470  10.723  0.8382  0.0130 -0.3659
  106OSM    C1S10788   2.200   5.369  10.505  0.3050 -0.2922  0.1764
  106OSM    H1S10789   2.165   5.469  10.474 -0.7521 -1.2685 -1.9884
  106OSM    H1T10790   2.127   5.298  10.460  2.4560 -3.6272  1.5096
  106OSM     NF10791   2.346   5.344  10.301 -0.1683  0.0989  0.0051
  106OSM    HNF10792   2.338   5.248  10.278 -3.7341 -0.7483  3.6496
  106OSM    C2S10793   2.347   5.345  10.444  0.6814 -0.1874  0.0778
  106OSM    H2S10794   2.408   5.433  10.471  2.2484 -0.6317 -1.7875
  106OSM    C3S10795   2.414   5.218  10.507  0.7350  0.4856 -0.4623
  106OSM    H3S10796   2.345   5.133  10.489 -0.7167  1.2268  1.3122
  106OSM     O310797   2.420   5.220  10.648 -0.6950 -0.3657 -0.0856
  106OSM    HO310798   2.348   5.278  10.674 -2.4691 -2.1606 -0.6880
  106OSM    C4S10799   2.544   5.191  10.446  0.2442  0.1451  0.1224
  106OSM    H4S10800   2.533   5.119  10.363 -1.6900  0.3240  0.1635
  106OSM    C5S10801   2.659   5.261  10.466  0.0658  0.5881  0.3325
  106OSM    H5S10802   2.661   5.347  10.535  3.1601  1.6440 -0.9393
  106OSM    C6S10803   2.783   5.222  10.380  0.1366  1.1339 -0.2248
  106OSM    H6S10804   2.766   5.125  10.329  0.1659  0.4040  1.1081
  106OSM    H6T10805   2.866   5.198  10.450  0.3059  1.8055 -0.1880
  106OSM    C7S10806   2.827   5.311  10.263 -0.5070 -0.7613 -0.0628
  106OSM    H7S10807   2.922   5.275  10.219  0.4937 -1.7637  2.6658
  106OSM    H7T10808   2.842   5.407  10.318 -1.0971 -1.1736  0.8630
  106OSM    C8S10809   2.710   5.330  10.162  0.1453  0.0328  0.3511
  106OSM    H8S10810   2.619   5.379  10.204  0.1546  2.2410 -1.9562
  106OSM    H8T10811   2.680   5.229  10.127  0.6633  0.4659 -1.4379
  106OSM    C9S10812   2.744   5.409  10.039  0.0648  0.0663 -0.6898
  106OSM    H9S10813   2.802   5.497  10.077  0.7324 -0.1390 -1.2085
  106OSM    H9T10814   2.648   5.444   9.995 -1.0147 -1.7150  0.1360
  106OSM   C10S10815   2.821   5.335   9.927 -0.9248  0.2972  0.4952
  106OSM   H10S10816   2.770   5.247   9.882  0.1995 -0.1544  0.0770
  106OSM   H10T10817   2.918   5.300   9.969  0.1835  0.1928 -1.9740
  106OSM   C11S10818   2.835   5.412   9.801 -0.2481 -0.3301  0.4938
  106OSM   H11S10819   2.898   5.504   9.804 -0.2252 -0.1411 -2.3485
  106OSM   H11T10820   2.748   5.460   9.752 -0.3895 -1.5797 -0.5512
  106OSM   C12S10821   2.906   5.330   9.701 -0.5611 -0.0235 -0.5234
  106OSM   H12S10822   2.847   5.240   9.671  0.4523 -0.6385 -0.7211
  106OSM   H12T10823   3.012   5.310   9.728  0.0058  1.6479 -1.4060
  106OSM   C13S10824   2.907   5.403   9.568  0.1930  0.1723 -0.1370
  106OSM   H13S10825   2.944   5.506   9.584  0.7816  0.2168 -1.6693
  106OSM   H13T10826   2.803   5.404   9.528  0.0275  0.4537  0.2889
  106OSM   C14S10827   2.997   5.329   9.463 -0.4199 -0.2062 -0.1465
  106OSM   H14S10828   2.977   5.220   9.455  0.0157 -0.2430 -0.8565
  106OSM   H14T10829   3.104   5.344   9.489 -0.8510 -1.4853  2.7325
  106OSM   C15S10830   2.978   5.383   9.320 -1.0981 -0.0132  0.1561
  106OSM   H15S10831   3.001   5.492   9.326 -1.7486  0.1099  0.4154
  106OSM   H15T10832   2.873   5.361   9.291 -0.9385 -0.5099 -0.0627
  106OSM   C16S10833   3.083   5.313   9.215  0.6185 -0.9019  0.4285
  106OSM   H16S10834   3.077   5.204   9.235  2.7531 -1.3786 -1.2687
  106OSM   H16T10835   3.182   5.360   9.236  0.0572  0.5925 -0.0968
  106OSM   C17S10836   3.051   5.361   9.071 -0.2838  0.8225  0.6219
  106OSM   H17S10837   3.032   5.470   9.074  0.0686  1.0008 -1.7579
  106OSM   H17T10838   2.961   5.309   9.033 -1.6509  2.3972  1.5566
  106OSM   C18S10839   3.170   5.337   8.969  0.5279 -0.8354 -0.2954
  106OSM   H18S10840   3.207   5.233   8.979 -2.2849 -1.7199  2.7123
  106OSM   H18T10841   3.255   5.401   9.000  0.9047 -2.0212  1.2193
  106OSM   H18U10842   3.143   5.365   8.865 -1.8244  2.2709  1.0078
  106OSM    C1F10843   2.330   5.455  10.228  0.2541  0.5604 -0.3347
  106OSM     OF10844   2.341   5.567  10.274 -0.6402  0.1386  0.2641
  106OSM    C2F10845   2.304   5.438  10.077  0.5634  0.2935 -0.4069
  106OSM    H2F10846   2.207   5.385  10.071 -0.8132  2.7024 -0.8402
  106OSM    H2G10847   2.390   5.379  10.037  0.8257  0.3982 -0.0052
  106OSM    C3F10848   2.286   5.568   9.999  0.1267  0.3922 -0.0059
  106OSM    H3F10849   2.357   5.651  10.021 -1.4000  1.5076  0.8889
  106OSM    H3G10850   2.180   5.599  10.010 -0.3620 -1.0978 -0.3269
  106OSM    C4F10851   2.279   5.559   9.845  0.3232 -0.7647 -0.6772
  106OSM    H4F10852   2.232   5.654   9.811  2.7908  0.9203  0.2921
  106OSM    H4G10853   2.216   5.474   9.812 -0.0198 -1.1598  0.8950
  106OSM    C5F10854   2.412   5.564   9.772 -0.1269 -0.3736 -0.2777
  106OSM    H5F10855   2.484   5.492   9.817  2.4622  1.8599 -0.5445
  106OSM    H5G10856   2.465   5.661   9.785  2.5487 -1.3291 -2.8159
  106OSM    C6F10857   2.380   5.537   9.623 -0.0361  0.5977 -0.3071
  106OSM    H6F10858   2.294   5.602   9.596  0.0274  2.0732  2.6811
  106OSM    H6G10859   2.365   5.431   9.596 -0.1949  0.9883 -1.8866
  106OSM    C7F10860   2.501   5.565   9.536  0.1939 -0.1253 -0.1772
  106OSM    H7F10861   2.586   5.506   9.576  1.4235  1.8528  0.2908
  106OSM    H7G10862   2.528   5.672   9.550 -0.9070 -0.0604  1.7867
  106OSM    C8F10863   2.472   5.549   9.380 -0.9295  0.0490 -0.3277
  106OSM    H8F10864   2.402   5.625   9.342 -1.2437 -0.0045  0.1270
  106OSM    H8G10865   2.438   5.444   9.368  1.7362 -0.8681 -0.6064
  106OSM    C9F10866   2.605   5.559   9.315 -0.1178 -0.1594 -0.6027
  106OSM    H9F10867   2.654   5.462   9.296 -0.6882 -0.7532  0.8469
  106OSM   C10F10868   2.659   5.676   9.275  0.6574  0.4893  0.4470
  106OSM   H10F10869   2.752   5.671   9.217  1.8582 -2.4187  2.3548
  106OSM   C11F10870   2.600   5.815   9.281 -0.5599 -0.0449  0.3489
  106OSM   H11F10871   2.667   5.874   9.347 -0.7846  2.0074 -1.1595
  106OSM   H11G10872   2.497   5.827   9.321 -0.5143  2.7077 -0.1699
  106OSM   C12F10873   2.608   5.874   9.135  0.3926  0.1294  0.6975
  106OSM   H12F10874   2.712   5.860   9.099 -0.1291 -0.1591 -0.7903
  106OSM   H12G10875   2.598   5.984   9.145  1.5974  0.1625  1.6916
  106OSM   C13F10876   2.515   5.837   9.017  0.8885 -0.3116  0.2318
  106OSM   H13F10877   2.409   5.845   9.048  0.2800  0.8352 -1.9859
  106OSM   H13G10878   2.529   5.730   8.989 -1.4151 -0.7488  0.4992
  106OSM   C14F10879   2.537   5.934   8.890 -0.0780  0.2100 -0.0934
  106OSM   H14F10880   2.646   5.950   8.872  0.1401 -1.9800 -1.0365
  106OSM   H14G10881   2.491   6.030   8.924 -2.4511 -1.5061  1.8752
  106OSM   C15F10882   2.475   5.875   8.761  0.4774  0.0635 -0.0508
  106OSM   H15F10883   2.541   5.798   8.716 -0.0551  0.1571 -1.0145
  106OSM   H15G10884   2.463   5.949   8.680 -3.6073 -2.8088 -2.4870
  106OSM   C16F10885   2.340   5.798   8.771 -0.7699  0.7788  0.0668
  106OSM   H16F10886   2.267   5.864   8.822 -0.4114  1.5191 -0.3630
  106OSM   H16G10887   2.361   5.701   8.822  0.2001  0.8606 -0.1468
  106OSM   C17F10888   2.272   5.771   8.639  0.0403  0.4172  0.5065
  106OSM   H17F10889   2.307   5.677   8.590  0.0213  0.0245  1.2321
  106OSM   H17G10890   2.285   5.858   8.572 -0.8490 -0.1216 -0.3961
  106OSM   C18F10891   2.113   5.769   8.653 -0.1583  0.2404 -0.9970
  106OSM   H18F10892   2.100   5.866   8.706  4.2446  1.9121 -2.5418
  106OSM   H18G10893   2.079   5.680   8.710 -0.8240  0.1998 -1.4509
  106OSM   H18H10894   2.086   5.769   8.545  2.1033 -0.0411 -1.6250
  107OSM      N10895   3.210   4.275  11.296  0.6517 -0.0548  0.1727
  107OSM    C1510896   3.072   4.224  11.240  0.0097 -1.3492  0.1063
  107OSM   H15A10897   3.029   4.133  11.277  1.3346 -2.2822 -0.5640
  107OSM   H15B10898   3.085   4.209  11.134 -1.6988 -3.2703  0.1110
  107OSM   H15C10899   2.995   4.299  11.249 -0.3619 -1.3149 -2.5170
  107OSM    C1410900   3.182   4.352  11.417  0.6963  0.1574  0.2798
  107OSM   H14A10901   3.119   4.301  11.489  0.0912  0.4905 -0.0115
  107OSM   H14B10902   3.136   4.447  11.395 -2.1701 -1.1534  0.2417
  107OSM   H14C10903   3.280   4.366  11.461  0.0890 -1.2909  2.2730
  107OSM    C1310904   3.297   4.159  11.335  0.3962 -0.0583  0.0886
  107OSM   H13A10905   3.391   4.181  11.383  1.5223 -2.3645 -0.8705
  107OSM   H13B10906   3.323   4.103  11.246  1.4796 -0.3292  0.5663
  107OSM   H13C10907   3.234   4.099  11.400 -1.8506  0.0644 -1.8400
  107OSM    C1210908   3.293   4.356  11.193 -0.1235  0.3453 -0.1526
  107OSM   H12A10909   3.375   4.398  11.250 -0.2481 -1.2163  1.2522
  107OSM   H12B10910   3.235   4.444  11.168 -2.2922 -1.6184 -2.4943
  107OSM    C1110911   3.340   4.294  11.062  0.0269  0.3891  0.2962
  107OSM   H11A10912   3.394   4.199  11.080  0.2207  0.2461 -0.9654
  107OSM   H11B10913   3.420   4.353  11.012  0.9190 -0.6769  0.4502
  107OSM      P10914   3.133   4.361  10.906  0.2303 -0.0252 -0.2417
  107OSM    O1310915   3.006   4.281  10.894  0.8124  0.0747 -0.2894
  107OSM    O1410916   3.118   4.487  10.975 -0.0258 -0.6454 -0.4180
  107OSM    O1110917   3.186   4.393  10.767 -0.2058 -0.6435  0.3761
  107OSM    O1210918   3.236   4.261  10.969  0.2002 -0.5411 -0.0443
  107OSM    C1S10919   3.281   4.306  10.711 -0.0110  0.4456 -0.3888
  107OSM    H1S10920   3.237   4.204  10.701  3.0435 -1.2109  1.6253
  107OSM    H1T10921   3.375   4.308  10.770 -0.3697 -2.3616  0.4267
  107OSM     NF10922   3.460   4.283  10.541  0.1285 -0.0811  0.2435
  107OSM    HNF10923   3.527   4.332  10.485  1.5692 -2.1263  0.0572
  107OSM    C2S10924   3.322   4.335  10.563  0.2983 -0.4773  0.0957
  107OSM    H2S10925   3.242   4.286  10.504 -0.3238  1.0380 -0.3741
  107OSM    C3S10926   3.301   4.488  10.528 -0.5804 -0.3778 -0.0966
  107OSM    H3S10927   3.364   4.554  10.592  1.1125 -1.1558 -0.8899
  107OSM     O310928   3.166   4.539  10.540  0.1349 -0.2004  0.1981
  107OSM    HO310929   3.113   4.471  10.582  1.7272 -2.4091 -1.1579
  107OSM    C4S10930   3.349   4.509  10.386  1.2766 -0.2205 -0.2784
  107OSM    H4S10931   3.284   4.465  10.309  2.1782 -2.5980  0.2605
  107OSM    C5S10932   3.444   4.593  10.348  0.0346 -0.3558  0.2693
  107OSM    H5S10933   3.490   4.666  10.417  1.3522  0.5264 -1.4598
  107OSM    C6S10934   3.478   4.613  10.205  0.2722 -0.8258  0.5501
  107OSM    H6S10935   3.588   4.601  10.192  0.1841 -1.5540  0.4620
  107OSM    H6T10936   3.454   4.718  10.176 -0.8565 -0.6611  1.9584
  107OSM    C7S10937   3.411   4.524  10.093 -0.4443 -0.8617  0.4584
  107OSM    H7S10938   3.303   4.549  10.088 -0.4585 -0.6228  1.7054
  107OSM    H7T10939   3.426   4.415  10.107  0.6363 -1.2960 -3.0601
  107OSM    C8S10940   3.466   4.540   9.939  0.1726  0.5225 -0.1646
  107OSM    H8S10941   3.573   4.541   9.967 -0.2256  0.1440  1.5026
  107OSM    H8T10942   3.428   4.638   9.902 -1.8165 -0.5527 -1.1552
  107OSM    C9S10943   3.433   4.431   9.845 -0.4757  0.1502 -0.5283
  107OSM    H9S10944   3.323   4.416   9.845 -0.1984 -2.5248 -2.0481
  107OSM    H9T10945   3.469   4.333   9.883 -3.3121 -0.9806 -0.5117
  107OSM   C10S10946   3.491   4.451   9.708  0.1359  0.4080 -0.1456
  107OSM   H10S10947   3.511   4.350   9.668 -1.1719  0.4507 -0.9407
  107OSM   H10T10948   3.588   4.503   9.725  0.3272 -0.4857  1.7952
  107OSM   C11S10949   3.393   4.526   9.614 -0.1631 -0.2366 -0.4730
  107OSM   H11S10950   3.335   4.597   9.678 -1.5129 -0.7239 -1.1027
  107OSM   H11T10951   3.317   4.452   9.581 -0.3756  0.7092 -2.1976
  107OSM   C12S10952   3.460   4.596   9.495  0.3432  0.2401  0.3794
  107OSM   H12S10953   3.510   4.680   9.548 -1.5343 -0.2245  3.0761
  107OSM   H12T10954   3.390   4.653   9.431 -0.0660  0.7189  1.2270
  107OSM   C13S10955   3.557   4.503   9.427  0.3080 -0.2553 -0.0785
  107OSM   H13S10956   3.500   4.414   9.396  0.9848 -1.2092  1.2940
  107OSM   H13T10957   3.646   4.480   9.489  0.0345 -0.6532  0.1706
  107OSM   C14S10958   3.623   4.555   9.303 -0.5166 -0.6626  0.4965
  107OSM   H14S10959   3.709   4.491   9.273  0.6030  0.9225  0.2151
  107OSM   H14T10960   3.665   4.656   9.321 -0.1212 -0.5990 -0.6681
  107OSM   C15S10961   3.529   4.568   9.184  0.0029 -0.8166  0.0712
  107OSM   H15S10962   3.588   4.615   9.103  0.5460 -2.9178 -0.8410
  107OSM   H15T10963   3.446   4.640   9.197 -0.6205 -0.9988 -2.4308
  107OSM   C16S10964   3.464   4.446   9.117 -0.3714 -0.0382 -0.2536
  107OSM   H16S10965   3.407   4.394   9.197 -1.0057 -0.7298 -1.1245
  107OSM   H16T10966   3.543   4.369   9.106  2.4504  2.8859 -1.8057
  107OSM   C17S10967   3.379   4.467   8.991 -0.6143  0.3392  0.4617
  107OSM   H17S10968   3.277   4.501   9.019 -0.5767  0.1850  0.7912
  107OSM   H17T10969   3.357   4.372   8.936 -2.7320  2.0853 -1.9643
  107OSM   C18S10970   3.426   4.571   8.893 -0.0961 -0.0174  0.8074
  107OSM   H18S10971   3.510   4.520   8.842 -1.9373 -1.3351 -1.0988
  107OSM   H18T10972   3.453   4.670   8.936 -0.6620  0.2847  0.4892
  107OSM   H18U10973   3.343   4.589   8.821 -0.3033 -0.9854  0.7840
  107OSM    C1F10974   3.481   4.152  10.541  0.3961  0.7741  0.2324
  107OSM     OF10975   3.387   4.071  10.544 -0.6036 -0.0909 -0.3018
  107OSM    C2F10976   3.619   4.092  10.543  0.2166 -0.1936 -0.1500
  107OSM    H2F10977   3.624   4.011  10.618  3.1834 -0.5912 -0.6428
  107OSM    H2G10978   3.685   4.180  10.563 -0.9187  0.4277  1.0284
  107OSM    C3F10979   3.640   4.036  10.391 -0.0660 -0.2398  0.0754
  107OSM    H3F10980   3.574   3.948  10.373  0.2741 -0.2509 -1.2073
  107OSM    H3G10981   3.748   4.010  10.395  0.0171  0.1191  0.2318
  107OSM    C4F10982   3.637   4.146  10.278  0.4692 -0.2883 -0.5206
  107OSM    H4F10983   3.679   4.237  10.325  2.0262 -2.0273  1.6528
  107OSM    H4G10984   3.534   4.172  10.246  0.8721 -2.2861 -3.8853
  107OSM    C5F10985   3.708   4.102  10.148 -0.4113 -0.7232 -0.3065
  107OSM    H5F10986   3.684   3.997  10.125  2.8727 -1.4792 -0.8286
  107OSM    H5G10987   3.817   4.094  10.168 -0.6201  0.2552  1.4540
  107OSM    C6F10988   3.696   4.200  10.027 -0.4306  0.2241  0.0013
  107OSM    H6F10989   3.703   4.308  10.049 -3.0679  0.0903  1.9554
  107OSM    H6G10990   3.602   4.180   9.971  0.1839 -1.6931 -0.4417
  107OSM    C7F10991   3.805   4.175   9.931 -0.3199  0.5395 -0.2244
  107OSM    H7F10992   3.796   4.067   9.908 -0.4050  0.8987 -2.0013
  107OSM    H7G10993   3.904   4.197   9.977  0.5245 -0.8134 -1.3442
  107OSM    C8F10994   3.794   4.260   9.800  0.3330  0.5444  0.1191
  107OSM    H8F10995   3.789   4.364   9.838  1.3127  0.8237 -0.4839
  107OSM    H8G10996   3.700   4.230   9.749  0.5213  0.7271 -0.3398
  107OSM    C9F10997   3.909   4.251   9.702  0.7526  0.2628  0.0380
  107OSM    H9F10998   4.005   4.277   9.751  1.1875 -0.0981 -0.6101
  107OSM   C10F10999   3.918   4.198   9.578 -0.2041 -0.0721 -0.6273
  107OSM   H10F11000   4.010   4.198   9.517 -1.6348  0.0506 -2.9205
  107OSM   C11F11001   3.802   4.112   9.524  0.4969  0.6191  0.1708
  107OSM   H11F11002   3.716   4.095   9.592  0.0721  0.4060 -0.4173
  107OSM   H11G11003   3.844   4.011   9.507 -0.9505  0.1588 -0.8747
  107OSM   C12F11004   3.751   4.180   9.396 -0.0493 -0.6215  0.1990
  107OSM   H12F11005   3.722   4.287   9.403  1.0493 -0.3804  1.6260
  107OSM   H12G11006   3.656   4.125   9.384 -1.3477  1.2627  1.3093
  107OSM   C13F11007   3.853   4.164   9.283  0.1821  0.2209  0.6708
  107OSM   H13F11008   3.886   4.058   9.288 -1.4475 -0.2509  3.7600
  107OSM   H13G11009   3.942   4.231   9.289  0.6102 -0.2260 -0.4128
  107OSM   C14F11010   3.794   4.190   9.142 -0.3867  0.2579 -0.4604
  107OSM   H14F11011   3.866   4.151   9.067 -2.3492 -0.1395 -2.2477
  107OSM   H14G11012   3.776   4.298   9.123 -1.7142  0.1094 -0.1503
  107OSM   C15F11013   3.666   4.103   9.111 -0.0725  0.6635  0.9915
  107OSM   H15F11014   3.574   4.128   9.169 -1.2596 -1.4532  0.1075
  107OSM   H15G11015   3.696   4.004   9.148  1.4258  0.7815  0.1499
  107OSM   C16F11016   3.654   4.111   8.953  0.1861 -0.0942  0.0717
  107OSM   H16F11017   3.745   4.063   8.911  0.9562  1.0536  0.3830
  107OSM   H16G11018   3.655   4.221   8.933 -2.1656  0.0991  0.7054
  107OSM   C17F11019   3.529   4.046   8.899 -0.0530 -0.6570 -0.2841
  107OSM   H17F11020   3.541   4.070   8.791  2.3401 -3.2728 -0.7206
  107OSM   H17G11021   3.441   4.098   8.942  0.9332 -0.3394  1.4084
  107OSM   C18F11022   3.516   3.895   8.924 -0.2919 -0.3213 -0.7013
  107OSM   H18F11023   3.427   3.855   8.871 -0.5649  0.9933 -1.2599
  107OSM   H18G11024   3.513   3.869   9.032  0.8467 -0.7868 -0.7559
  107OSM   H18H11025   3.615   3.862   8.885 -0.0227 -0.1282 -0.1776
  108OSM      N11026   2.356   3.843  11.164  0.5123 -0.1103 -0.6753
  108OSM    C1511027   2.479   3.916  11.206 -0.0534 -0.1291 -0.0534
  108OSM   H15A11028   2.498   3.997  11.137 -0.6000 -0.2716 -0.3751
  108OSM   H15B11029   2.572   3.860  11.202  0.4841  0.7407  0.1359
  108OSM   H15C11030   2.464   3.962  11.302  2.8602 -1.3389  1.0975
  108OSM    C1411031   2.333   3.722  11.246 -0.5619  0.0490 -0.4164
  108OSM   H14A11032   2.427   3.672  11.264 -0.9620  0.4932  3.8407
  108OSM   H14B11033   2.263   3.650  11.209  0.1450 -2.0185  2.0021
  108OSM   H14C11034   2.312   3.755  11.347  0.4270  2.5867 -0.9609
  108OSM    C1311035   2.239   3.931  11.183  1.3343  0.8652 -0.7373
  108OSM   H13A11036   2.245   4.026  11.132 -2.0083  1.5618 -0.0454
  108OSM   H13B11037   2.221   3.955  11.287  1.8278 -1.9392  0.0811
  108OSM   H13C11038   2.150   3.885  11.143  0.4466  0.5163  1.4985
  108OSM    C1211039   2.366   3.800  11.017  0.0688 -0.5150 -0.0771
  108OSM   H12A11040   2.281   3.742  10.985  0.8234 -1.0703 -1.1674
  108OSM   H12B11041   2.457   3.741  11.009 -0.9593 -2.2601  0.5599
  108OSM    C1111042   2.371   3.913  10.919  0.0587 -0.2617 -0.0577
  108OSM   H11A11043   2.312   4.000  10.954  0.3074 -0.4174  0.7847
  108OSM   H11B11044   2.323   3.880  10.824 -1.3888  0.5783  0.3503
  108OSM      P11045   2.603   3.903  10.801 -0.3844  0.1896  0.3583
  108OSM    O1311046   2.702   4.008  10.777 -0.3537  0.1964  0.2638
  108OSM    O1411047   2.656   3.776  10.849 -0.3174  0.1392  0.4460
  108OSM    O1111048   2.520   3.877  10.671  0.0008  0.8008 -0.0723
  108OSM    O1211049   2.502   3.967  10.905  0.2575  0.2134  0.8133
  108OSM    C1S11050   2.442   3.986  10.611  0.6640 -0.2125  0.0343
  108OSM    H1S11051   2.460   4.079  10.669 -1.5375 -1.0852  2.3349
  108OSM    H1T11052   2.331   3.981  10.618  0.5913  2.4437  3.6369
  108OSM     NF11053   2.409   4.138  10.423  0.2892  0.0840 -0.7768
  108OSM    HNF11054   2.331   4.117  10.364 -0.0864 -1.6694  0.2674
  108OSM    C2S11055   2.480   4.013  10.467 -0.0109  0.2399 -0.4426
  108OSM    H2S11056   2.590   4.026  10.473  0.1195 -1.4029  1.7515
  108OSM    C3S11057   2.461   3.889  10.372  0.1336  0.3838 -0.7702
  108OSM    H3S11058   2.353   3.869  10.353  0.2037  2.1806 -3.5974
  108OSM     O311059   2.524   3.770  10.419 -0.6544  0.0870 -0.3092
  108OSM    HO311060   2.564   3.805  10.498  0.6403  0.8209 -1.2420
  108OSM    C4S11061   2.511   3.917  10.231 -0.5727  0.1641  0.2530
  108OSM    H4S11062   2.599   3.978  10.207 -1.9496  0.8664 -3.9418
  108OSM    C5S11063   2.435   3.904  10.125 -0.3853 -0.2316  0.2801
  108OSM    H5S11064   2.334   3.860  10.127  0.7953 -3.2181 -0.1800
  108OSM    C6S11065   2.477   3.939   9.988 -0.6685 -0.5522  0.1073
  108OSM    H6S11066   2.421   3.877   9.914  0.1204  0.0783 -1.0504
  108OSM    H6T11067   2.584   3.911   9.977 -0.0999  1.7371 -0.6810
  108OSM    C7S11068   2.459   4.090   9.941  0.3972 -0.3987 -0.1114
  108OSM    H7S11069   2.523   4.146  10.012 -0.8622 -0.1274  0.8439
  108OSM    H7T11070   2.351   4.111   9.954  0.3406 -0.7023 -0.0934
  108OSM    C8S11071   2.487   4.117   9.793 -0.4750 -0.2845 -0.0990
  108OSM    H8S11072   2.580   4.060   9.771  1.6217  3.1051 -0.6093
  108OSM    H8T11073   2.513   4.223   9.773 -2.5646  0.0778 -1.1442
  108OSM    C9S11074   2.375   4.070   9.714 -0.2206  0.4180  0.4028
  108OSM    H9S11075   2.284   4.130   9.737 -0.8006 -0.0345 -0.6438
  108OSM    H9T11076   2.359   3.961   9.729 -3.1614  0.2528 -2.7367
  108OSM   C10S11077   2.401   4.088   9.563 -0.0287 -0.5897 -0.2984
  108OSM   H10S11078   2.496   4.044   9.527  1.2122  2.7816 -1.5655
  108OSM   H10T11079   2.410   4.199   9.562 -1.5397 -0.1736  4.6794
  108OSM   C11S11080   2.289   4.064   9.461 -0.0867  0.5360 -0.3269
  108OSM   H11S11081   2.192   4.112   9.483 -0.2649 -0.1243  0.3841
  108OSM   H11T11082   2.285   3.953   9.457  1.1719  0.5015 -1.4570
  108OSM   C12S11083   2.326   4.111   9.319  0.2507 -0.1497  0.7760
  108OSM   H12S11084   2.426   4.071   9.292  1.3834  2.6326  0.5303
  108OSM   H12T11085   2.342   4.220   9.326 -1.2918  0.1476  0.1025
  108OSM   C13S11086   2.220   4.080   9.218  0.0064  0.9862 -0.4138
  108OSM   H13S11087   2.126   4.135   9.240  0.2448  1.1738  0.1475
  108OSM   H13T11088   2.181   3.977   9.235 -2.3863  1.8267 -0.5482
  108OSM   C14S11089   2.265   4.104   9.077 -0.4824 -0.0273  0.0909
  108OSM   H14S11090   2.181   4.091   9.005 -0.4880  3.4221 -0.7143
  108OSM   H14T11091   2.345   4.034   9.048 -0.1267  1.0370 -1.6477
  108OSM   C15S11092   2.306   4.252   9.040  0.0767  0.8544 -0.0396
  108OSM   H15S11093   2.397   4.288   9.092 -0.4006  1.8488  0.1472
  108OSM   H15T11094   2.225   4.319   9.077  0.3558  0.7462  0.7817
  108OSM   C16S11095   2.323   4.267   8.887 -0.7679 -0.5632 -0.3974
  108OSM   H16S11096   2.229   4.241   8.833  0.0441 -1.1143 -1.5711
  108OSM   H16T11097   2.408   4.209   8.845  0.0926  0.5046 -0.1838
  108OSM   C17S11098   2.348   4.418   8.847 -0.2484  0.0108 -0.6339
  108OSM   H17S11099   2.441   4.450   8.898 -0.9359  0.2967  0.4897
  108OSM   H17T11100   2.268   4.477   8.897  0.7910 -1.3774  2.9420
  108OSM   C18S11101   2.357   4.457   8.700  0.2188  0.7027  0.5665
  108OSM   H18S11102   2.348   4.565   8.677  2.4475  0.8277  0.0647
  108OSM   H18T11103   2.280   4.391   8.655 -0.5489 -1.2167  4.2801
  108OSM   H18U11104   2.453   4.428   8.653 -0.6419  0.8350 -1.3635
  108OSM    C1F11105   2.426   4.262  10.471 -0.0725  0.2898  0.2630
  108OSM     OF11106   2.519   4.287  10.543  0.4250 -0.1796 -0.1178
  108OSM    C2F11107   2.322   4.361  10.432  0.1263 -0.0630 -0.2090
  108OSM    H2F11108   2.338   4.449  10.497  1.4875 -0.5356  0.1428
  108OSM    H2G11109   2.217   4.327  10.435  0.9543 -2.9227 -0.6270
  108OSM    C3F11110   2.356   4.407  10.291 -0.5665  0.1226  0.5028
  108OSM    H3F11111   2.358   4.322  10.219  0.4079  0.1595  0.4713
  108OSM    H3G11112   2.453   4.460  10.287 -1.1386  1.1123 -2.8284
  108OSM    C4F11113   2.250   4.512  10.252  0.7320  0.7439 -0.1177
  108OSM    H4F11114   2.235   4.583  10.337 -0.8876  0.2680  0.0364
  108OSM    H4G11115   2.154   4.457  10.238 -0.2892  2.3088  0.4344
  108OSM    C5F11116   2.266   4.596  10.121  0.1798  0.2141  0.1196
  108OSM    H5F11117   2.343   4.674  10.139  2.6639 -1.9687 -0.4781
  108OSM    H5G11118   2.167   4.641  10.095 -1.2344 -0.5241  3.6504
  108OSM    C6F11119   2.306   4.523   9.991 -0.1970 -0.0147  0.7733
  108OSM    H6F11120   2.227   4.444   9.984  0.2003 -0.5688  2.2837
  108OSM    H6G11121   2.399   4.462   9.991 -0.6530 -0.9324 -2.3214
  108OSM    C7F11122   2.321   4.614   9.866 -0.0975 -0.0146  0.4963
  108OSM    H7F11123   2.377   4.707   9.890  0.1351  0.2065 -0.8398
  108OSM    H7G11124   2.222   4.651   9.833 -0.1677 -1.9717 -1.8030
  108OSM    C8F11125   2.394   4.543   9.744 -0.0733 -0.1197  0.1823
  108OSM    H8F11126   2.484   4.488   9.779  0.9765  0.4689 -1.4660
  108OSM    H8G11127   2.424   4.611   9.661  0.5842 -0.7211 -0.0765
  108OSM    C9F11128   2.302   4.438   9.705 -0.2068  0.3192 -0.6705
  108OSM    H9F11129   2.327   4.337   9.743 -3.8427  0.0001  1.4070
  108OSM   C10F11130   2.219   4.442   9.596 -0.9073 -0.3300  0.3020
  108OSM   H10F11131   2.153   4.357   9.575 -1.5904  0.1149  0.6041
  108OSM   C11F11132   2.201   4.564   9.512 -0.5031 -0.4043  0.0041
  108OSM   H11F11133   2.235   4.658   9.559 -0.1221  0.2950 -1.6129
  108OSM   H11G11134   2.093   4.583   9.493 -0.5299 -0.2661  0.2853
  108OSM   C12F11135   2.270   4.552   9.377  0.1652 -0.0049  0.0168
  108OSM   H12F11136   2.250   4.454   9.327 -1.9940  0.4611 -0.1249
  108OSM   H12G11137   2.380   4.549   9.390  0.3611  1.1629 -1.1633
  108OSM   C13F11138   2.222   4.667   9.283  0.2424 -0.1059  0.2398
  108OSM   H13F11139   2.213   4.762   9.340 -2.2392  0.6395 -1.2671
  108OSM   H13G11140   2.117   4.647   9.254  0.7492 -1.1129 -1.0333
  108OSM   C14F11141   2.311   4.691   9.159 -0.0866  0.4165 -0.0727
  108OSM   H14F11142   2.338   4.587   9.130 -0.0397 -0.2044  2.0127
  108OSM   H14G11143   2.401   4.753   9.180  0.5261 -0.8540  1.2286
  108OSM   C15F11144   2.228   4.748   9.046 -0.4209  0.6533  0.2158
  108OSM   H15F11145   2.129   4.699   9.043 -0.0037 -0.1537 -0.6834
  108OSM   H15G11146   2.275   4.723   8.949 -0.9793 -0.2731  0.1727
  108OSM   C16F11147   2.198   4.900   9.060  0.1092  0.3937  0.6340
  108OSM   H16F11148   2.286   4.954   9.101  0.7262 -0.8365  1.0046
  108OSM   H16G11149   2.128   4.917   9.145 -0.5629 -0.8014  0.3420
  108OSM   C17F11150   2.143   4.959   8.935 -0.2576 -0.3962  1.7119
  108OSM   H17F11151   2.222   4.977   8.860 -1.8252  1.4997  0.3973
  108OSM   H17G11152   2.127   5.067   8.955  1.2703 -0.0536  1.1750
  108OSM   C18F11153   2.009   4.906   8.886 -0.1342 -0.3776  0.1698
  108OSM   H18F11154   1.929   4.915   8.962 -1.0033 -1.4113 -0.5802
  108OSM   H18G11155   2.020   4.805   8.839  0.8528 -0.0126 -0.4286
  108OSM   H18H11156   1.969   4.975   8.809 -1.5486  1.9533  2.8194
  109OSM      N11157   2.765   3.098  11.009 -0.1380 -1.0780  0.0100
  109OSM    C1511158   2.621   3.099  10.980  0.9083  0.6456  0.4774
  109OSM   H15A11159   2.600   3.157  10.891 -0.9689  1.0051  1.1116
  109OSM   H15B11160   2.554   3.154  11.044  0.8779 -0.1270  1.1196
  109OSM   H15C11161   2.583   2.999  10.973 -0.4361  1.1256  0.5598
  109OSM    C1411162   2.807   3.243  11.023  0.5725  0.3435 -0.4369
  109OSM   H14A11163   2.780   3.309  10.942 -1.2378  0.6200  0.3427
  109OSM   H14B11164   2.914   3.233  11.032  0.5078  0.2498  0.2567
  109OSM   H14C11165   2.766   3.282  11.115 -1.1669 -0.4728 -0.8256
  109OSM    C1311166   2.782   3.025  11.138  0.5033  0.5808 -0.1835
  109OSM   H13A11167   2.876   3.027  11.192  0.0533 -0.3512  0.6596
  109OSM   H13B11168   2.753   2.921  11.133 -0.8688  0.9462 -0.0143
  109OSM   H13C11169   2.706   3.060  11.206 -0.6693 -3.7250  1.0176
  109OSM    C1211170   2.842   3.038  10.892 -0.1190  0.4862  0.3590
  109OSM   H12A11171   2.950   3.033  10.903 -0.1735 -2.6213  0.2982
  109OSM   H12B11172   2.834   3.108  10.810 -1.6932  0.2130  0.2608
  109OSM    C1111173   2.787   2.894  10.839 -0.1352 -0.5022  0.1142
  109OSM   H11A11174   2.816   2.879  10.732 -2.1724 -0.8693 -0.4231
  109OSM   H11B11175   2.678   2.909  10.831  0.0703  1.6906  0.9184
  109OSM      P11176   2.972   2.741  10.932  0.0162  0.3455 -0.6521
  109OSM    O1311177   3.054   2.836  11.012 -0.2808  0.5235  0.3692
  109OSM    O1411178   2.971   2.602  10.972 -0.0952 -0.0214 -0.1058
  109OSM    O1111179   3.010   2.747  10.776  0.2119  0.0846  0.2934
  109OSM    O1211180   2.820   2.788  10.931 -0.0377  0.0037 -0.0306
  109OSM    C1S11181   3.141   2.702  10.734  0.2825  0.3905 -0.2447
  109OSM    H1S11182   3.180   2.618  10.795  0.0911 -0.3752 -1.1474
  109OSM    H1T11183   3.211   2.787  10.749  0.6411  0.4318 -1.9675
  109OSM     NF11184   3.260   2.591  10.539 -0.3250 -0.2467 -0.9262
  109OSM    HNF11185   3.324   2.636  10.478 -1.2155  0.0493 -1.6554
  109OSM    C2S11186   3.141   2.659  10.577  0.2370 -0.3287 -0.8625
  109OSM    H2S11187   3.052   2.598  10.552 -0.7032  0.7203 -0.1970
  109OSM    C3S11188   3.123   2.792  10.497  0.6915  0.4932  0.2900
  109OSM    H3S11189   3.220   2.840  10.519  0.9448 -1.4271  4.5535
  109OSM     O311190   3.014   2.872  10.548  0.4453 -0.0834  0.2693
  109OSM    HO311191   3.011   2.856  10.643  1.9375  0.6461  0.4802
  109OSM    C4S11192   3.116   2.776  10.346  0.3416  0.8461  0.6487
  109OSM    H4S11193   3.060   2.690  10.307  1.2507  1.2984 -1.8330
  109OSM    C5S11194   3.183   2.852  10.249  0.1093  1.0195 -0.2132
  109OSM    H5S11195   3.267   2.909  10.292 -1.3163 -0.1274  4.7207
  109OSM    C6S11196   3.195   2.829  10.101 -0.9412 -0.6057  0.2763
  109OSM    H6S11197   3.301   2.842  10.070 -0.4388  2.0007  2.6796
  109OSM    H6T11198   3.141   2.907  10.043 -1.5633 -2.5457 -1.8758
  109OSM    C7S11199   3.137   2.697  10.055  0.4787 -0.0419 -0.0174
  109OSM    H7S11200   3.027   2.712  10.067  0.1608 -2.5453  0.7916
  109OSM    H7T11201   3.173   2.617  10.123  1.5778  1.1600  0.8738
  109OSM    C8S11202   3.162   2.663   9.911 -0.0133  0.7625  0.5853
  109OSM    H8S11203   3.148   2.553   9.901  3.8246  0.1809 -0.0385
  109OSM    H8T11204   3.273   2.671   9.899 -0.0675 -0.0609 -0.6755
  109OSM    C9S11205   3.086   2.741   9.802 -0.1867  0.8022  0.1069
  109OSM    H9S11206   3.085   2.848   9.831  0.0569  0.7297  0.3993
  109OSM    H9T11207   2.978   2.713   9.805 -0.3741  1.5626  1.2572
  109OSM   C10S11208   3.146   2.715   9.663  0.9055  0.5740  0.0822
  109OSM   H10S11209   3.171   2.607   9.651  0.5989  0.4500  0.5283
  109OSM   H10T11210   3.243   2.767   9.655 -0.3280  2.8764 -0.6958
  109OSM   C11S11211   3.048   2.760   9.546 -0.4236  0.5841 -0.0214
  109OSM   H11S11212   2.998   2.850   9.587  0.2800  1.1929 -0.4914
  109OSM   H11T11213   2.966   2.684   9.545  1.5927 -1.7300  0.4773
  109OSM   C12S11214   3.120   2.781   9.417 -0.7678 -0.0367 -0.2292
  109OSM   H12S11215   3.207   2.847   9.440  0.4187 -2.2238  2.1158
  109OSM   H12T11216   3.050   2.824   9.342  1.2860  0.0239 -2.2141
  109OSM   C13S11217   3.192   2.660   9.336  0.8762 -0.5952 -0.4056
  109OSM   H13S11218   3.113   2.583   9.327 -0.1938  0.4007  0.2533
  109OSM   H13T11219   3.274   2.626   9.403  2.1065  0.3276 -1.3982
  109OSM   C14S11220   3.256   2.679   9.197  0.2902 -0.6622 -0.9536
  109OSM   H14S11221   3.290   2.584   9.149 -0.8620 -1.5226 -0.1487
  109OSM   H14T11222   3.345   2.745   9.202  0.7739 -1.3602  0.2671
  109OSM   C15S11223   3.160   2.741   9.100  0.6740  0.6523  0.1050
  109OSM   H15S11224   3.120   2.827   9.159 -2.1204 -1.9293  2.3024
  109OSM   H15T11225   3.078   2.674   9.067  0.7677  0.4586  0.2649
  109OSM   C16S11226   3.223   2.796   8.976  0.0951  0.5416  0.5943
  109OSM   H16S11227   3.276   2.711   8.928 -0.6319  0.5803 -0.2955
  109OSM   H16T11228   3.296   2.878   8.991  1.4677 -0.7085  1.0635
  109OSM   C17S11229   3.115   2.836   8.870  0.3327  0.4879 -0.4196
  109OSM   H17S11230   3.052   2.913   8.920  0.4802  1.1265 -1.1955
  109OSM   H17T11231   3.050   2.746   8.859 -1.1389  0.9407  3.0635
  109OSM   C18S11232   3.168   2.884   8.737  0.2795  0.3168 -0.1458
  109OSM   H18S11233   3.212   2.986   8.745  1.5684 -0.3480  1.8928
  109OSM   H18T11234   3.083   2.872   8.666  1.1862 -0.3921 -1.1400
  109OSM   H18U11235   3.244   2.816   8.695 -0.0214 -1.6311  2.2659
  109OSM    C1F11236   3.271   2.461  10.573 -0.0091  0.1887 -0.4054
  109OSM     OF11237   3.194   2.413  10.654 -0.1526 -0.2987 -0.2933
  109OSM    C2F11238   3.390   2.378  10.523  0.0281  0.4786  0.2333
  109OSM    H2F11239   3.441   2.327  10.607 -0.3329 -0.1994  0.0452
  109OSM    H2G11240   3.464   2.446  10.476  2.1896 -1.9229 -0.0616
  109OSM    C3F11241   3.337   2.265  10.440  0.0871  1.2409  0.6521
  109OSM    H3F11242   3.264   2.204  10.498 -0.1270  1.8209  1.0035
  109OSM    H3G11243   3.423   2.199  10.416  0.1682  1.2124  1.0176
  109OSM    C4F11244   3.267   2.304  10.304  0.5065  0.5226 -0.1014
  109OSM    H4F11245   3.338   2.343  10.228  0.5583 -1.1995 -0.9905
  109OSM    H4G11246   3.194   2.385  10.325 -0.3888 -0.5596  1.1559
  109OSM    C5F11247   3.200   2.194  10.219 -0.0638  0.0482 -0.3084
  109OSM    H5F11248   3.126   2.129  10.271  1.0468 -1.7294 -0.8476
  109OSM    H5G11249   3.280   2.127  10.181 -0.8087 -0.5415 -0.8803
  109OSM    C6F11250   3.117   2.270  10.109 -0.2566  0.0011  1.1974
  109OSM    H6F11251   3.179   2.353  10.068 -2.2901  0.3074 -1.5646
  109OSM    H6G11252   3.031   2.318  10.162 -0.2424  0.8642  0.4539
  109OSM    C7F11253   3.068   2.177   9.995  0.5384 -0.4037  0.4073
  109OSM    H7F11254   3.015   2.103  10.058 -2.0880  1.8162  1.0207
  109OSM    H7G11255   3.148   2.130   9.934 -0.4442 -1.2007 -0.3089
  109OSM    C8F11256   2.974   2.262   9.905 -0.5208 -0.2063  0.1761
  109OSM    H8F11257   3.040   2.324   9.841  0.1945  2.1491  2.9586
  109OSM    H8G11258   2.930   2.332   9.980 -3.1626  0.9641 -2.2685
  109OSM    C9F11259   2.873   2.178   9.837 -0.3643 -0.7344  0.3756
  109OSM    H9F11260   2.817   2.103   9.894  1.5500 -0.8740  2.1917
  109OSM   C10F11261   2.856   2.163   9.702 -0.0213 -0.1531  0.2674
  109OSM   H10F11262   2.777   2.096   9.664 -0.0455 -1.3583  2.3352
  109OSM   C11F11263   2.938   2.228   9.596 -0.1567 -0.3931 -0.0240
  109OSM   H11F11264   3.046   2.202   9.597  0.2117  0.9794 -1.3483
  109OSM   H11G11265   2.933   2.338   9.613  0.6859 -0.0035 -2.0272
  109OSM   C12F11266   2.881   2.203   9.456 -0.2004  0.1200 -0.2665
  109OSM   H12F11267   2.772   2.222   9.452 -0.0778  0.6435 -1.3017
  109OSM   H12G11268   2.881   2.094   9.436  0.0159  0.0244  0.2422
  109OSM   C13F11269   2.953   2.287   9.353  0.0199  0.2884  0.1790
  109OSM   H13F11270   3.060   2.257   9.353 -0.3855 -1.2699  0.6099
  109OSM   H13G11271   2.942   2.391   9.391  0.2571  0.7177 -0.8867
  109OSM   C14F11272   2.894   2.288   9.211  0.2104 -0.4394  0.8827
  109OSM   H14F11273   2.800   2.346   9.200  0.9615  0.8567  1.1507
  109OSM   H14G11274   2.875   2.185   9.172 -1.7008 -0.0612  0.7526
  109OSM   C15F11275   2.984   2.362   9.107 -0.1750  0.1244  0.2087
  109OSM   H15F11276   3.086   2.322   9.123 -0.8703 -1.0270  2.1167
  109OSM   H15G11277   2.981   2.470   9.130 -0.2847 -0.0281  0.9567
  109OSM   C16F11278   2.958   2.346   8.961 -0.4820  0.1095  0.7543
  109OSM   H16F11279   3.038   2.410   8.917 -0.9833  0.9288  1.0143
  109OSM   H16G11280   2.856   2.388   8.945 -1.5913 -1.9622  1.9776
  109OSM   C17F11281   2.972   2.205   8.922 -0.4383  1.3000 -0.3193
  109OSM   H17F11282   2.875   2.159   8.948 -0.0878  0.5204 -0.3545
  109OSM   H17G11283   3.054   2.156   8.978 -0.4143  1.2818 -0.3699
  109OSM   C18F11284   2.978   2.177   8.769  0.0556  0.0533 -0.5992
  109OSM   H18F11285   2.888   2.211   8.714 -0.1101 -1.4504 -1.3147
  109OSM   H18G11286   2.987   2.069   8.743  1.3864 -0.3944  1.4668
  109OSM   H18H11287   3.065   2.226   8.720 -0.8715  3.0437  0.5671
  110OSM      N11288   5.940   2.291  10.823 -0.2579 -0.1830 -0.3593
  110OSM    C1511289   6.018   2.235  10.938 -0.3048  0.5039  0.9103
  110OSM   H15A11290   5.955   2.198  11.018  0.7174 -1.2304  0.9521
  110OSM   H15B11291   6.080   2.312  10.982  0.2278  0.2484  0.6159
  110OSM   H15C11292   6.090   2.159  10.916 -1.4790  0.1277 -2.1271
  110OSM    C1411293   5.858   2.401  10.872  0.5024  0.9945  0.3555
  110OSM   H14A11294   5.794   2.378  10.956 -0.4002 -0.4540 -0.6675
  110OSM   H14B11295   5.790   2.440  10.797 -0.7051  0.0646  0.9258
  110OSM   H14C11296   5.921   2.485  10.895  0.4059  1.2239 -0.2003
  110OSM    C1311297   6.025   2.329  10.707  0.0935  0.3388  0.4756
  110OSM   H13A11298   6.060   2.243  10.652 -0.0566  1.1446 -0.9214
  110OSM   H13B11299   6.106   2.383  10.753 -0.3680  1.0441  0.4783
  110OSM   H13C11300   5.973   2.407  10.653  1.3011  1.4274  0.8258
  110OSM    C1211301   5.849   2.178  10.778 -0.0107 -0.7592 -0.4285
  110OSM   H12A11302   5.817   2.118  10.862  0.3807  0.8557  0.9263
  110OSM   H12B11303   5.910   2.111  10.720  1.3186  0.4389 -0.4492
  110OSM    C1111304   5.727   2.204  10.686  0.0263 -0.2317  0.3359
  110OSM   H11A11305   5.702   2.111  10.630 -2.3193  1.4194 -1.5622
  110OSM   H11B11306   5.751   2.285  10.615 -2.7896 -0.1101 -0.6045
  110OSM      P11307   5.526   2.160  10.856 -0.1371  0.0925 -0.0458
  110OSM    O1311308   5.607   2.083  10.946 -0.0146  0.5611 -0.3358
  110OSM    O1411309   5.416   2.236  10.920  0.8163  0.2366  0.0830
  110OSM    O1111310   5.460   2.067  10.751 -0.0336 -0.5475  0.0797
  110OSM    O1211311   5.618   2.255  10.765 -0.2710  0.4983 -0.4214
  110OSM    C1S11312   5.372   2.085  10.641  0.1141  0.0319 -0.3702
  110OSM    H1S11313   5.339   2.191  10.634 -1.1754 -0.4558 -3.3578
  110OSM    H1T11314   5.281   2.024  10.660 -0.0295  0.3636  0.0213
  110OSM     NF11315   5.345   2.082  10.397 -0.1181 -0.2035  0.3146
  110OSM    HNF11316   5.279   2.022  10.353  0.0492 -0.2223  0.0871
  110OSM    C2S11317   5.433   2.043  10.502 -0.0713 -0.2128  0.8352
  110OSM    H2S11318   5.521   2.108  10.479  0.0690 -0.9122 -0.7453
  110OSM    C3S11319   5.471   1.891  10.484  0.7748  0.0348  0.0944
  110OSM    H3S11320   5.382   1.826  10.501 -0.2052  1.2915 -0.0950
  110OSM     O311321   5.560   1.854  10.589 -0.9116 -0.1061  0.0052
  110OSM    HO311322   5.548   1.922  10.656  2.8005  0.5311  0.2032
  110OSM    C4S11323   5.552   1.862  10.355 -0.0755  0.0011  0.2971
  110OSM    H4S11324   5.643   1.919  10.336 -0.7050  1.3486  1.1849
  110OSM    C5S11325   5.512   1.770  10.260  0.1307  0.4617  0.6759
  110OSM    H5S11326   5.422   1.708  10.271  0.0182  0.6205  0.6513
  110OSM    C6S11327   5.596   1.741  10.138  0.5601  0.3014 -0.0685
  110OSM    H6S11328   5.665   1.655  10.156  1.8886  0.8627 -2.1381
  110OSM    H6T11329   5.659   1.831  10.126 -0.1971  0.9101  0.4519
  110OSM    C7S11330   5.512   1.705  10.017  0.0343 -0.1922 -0.4175
  110OSM    H7S11331   5.453   1.793   9.985  0.7304  0.3013 -0.3568
  110OSM    H7T11332   5.444   1.618  10.029 -2.7123  1.6104 -1.8275
  110OSM    C8S11333   5.597   1.679   9.891  0.7301  0.1360 -0.4276
  110OSM    H8S11334   5.651   1.583   9.905 -0.7185 -0.5160  0.8729
  110OSM    H8T11335   5.671   1.763   9.887 -2.1372  2.9834  1.6411
  110OSM    C9S11336   5.519   1.678   9.762  0.2137  0.4354  0.4211
  110OSM    H9S11337   5.433   1.748   9.767 -0.4209 -0.3174  0.3155
  110OSM    H9T11338   5.475   1.577   9.747  2.3461 -0.2587 -1.6682
  110OSM   C10S11339   5.613   1.706   9.646 -0.1578  0.3571  0.0428
  110OSM   H10S11340   5.705   1.646   9.664  0.8167  2.0229  0.8554
  110OSM   H10T11341   5.648   1.811   9.651 -2.0477  1.1590 -2.1499
  110OSM   C11S11342   5.550   1.677   9.502 -0.3186  0.2764  0.0086
  110OSM   H11S11343   5.535   1.566   9.504  0.5799  0.1371 -0.4445
  110OSM   H11T11344   5.618   1.696   9.417 -0.2478  1.3901  0.3063
  110OSM   C12S11345   5.428   1.762   9.462  0.0701 -0.1651  0.3675
  110OSM   H12S11346   5.362   1.783   9.549 -0.6608 -0.5014 -0.0969
  110OSM   H12T11347   5.369   1.691   9.401 -1.2339  0.9082  0.3207
  110OSM   C13S11348   5.466   1.890   9.392  0.5507 -0.1980 -0.4317
  110OSM   H13S11349   5.504   1.860   9.292 -0.8251 -4.5906  0.1542
  110OSM   H13T11350   5.553   1.939   9.440  1.1698 -0.6928 -1.0177
  110OSM   C14S11351   5.358   2.001   9.362  0.7249  0.4308 -0.1491
  110OSM   H14S11352   5.319   2.031   9.462  2.4383  0.6437  0.4859
  110OSM   H14T11353   5.271   1.967   9.302 -0.0427  0.8836  0.6744
  110OSM   C15S11354   5.417   2.123   9.289  0.3737  0.3054 -0.8334
  110OSM   H15S11355   5.514   2.160   9.327 -0.0749  2.7325 -1.8961
  110OSM   H15T11356   5.345   2.206   9.305  0.4995  0.4868 -1.2057
  110OSM   C16S11357   5.427   2.098   9.140  0.1241  0.5939  0.1015
  110OSM   H16S11358   5.328   2.073   9.097  0.0894  1.0530 -0.0842
  110OSM   H16T11359   5.491   2.009   9.119 -0.4794  0.2581 -0.3369
  110OSM   C17S11360   5.488   2.206   9.054 -0.0543 -0.6198  0.5403
  110OSM   H17S11361   5.589   2.245   9.081  0.1402 -0.4711 -0.3666
  110OSM   H17T11362   5.423   2.296   9.051  0.1990 -0.4631 -1.0483
  110OSM   C18S11363   5.494   2.165   8.906 -0.0194  0.0987 -0.7252
  110OSM   H18S11364   5.532   2.061   8.896  1.8475  0.7575 -0.8297
  110OSM   H18T11365   5.570   2.226   8.853 -0.0118  1.7267  1.0275
  110OSM   H18U11366   5.401   2.185   8.849 -0.8194  1.6082  0.9788
  110OSM    C1F11367   5.335   2.205  10.347  0.5954 -0.4041 -0.3751
  110OSM     OF11368   5.393   2.300  10.400 -0.5266 -0.0202 -0.5068
  110OSM    C2F11369   5.246   2.223  10.225  0.3705 -0.4696 -0.2320
  110OSM    H2F11370   5.173   2.139  10.229  0.3236 -0.4243 -0.1382
  110OSM    H2G11371   5.304   2.217  10.130 -2.6544 -1.1572 -2.1725
  110OSM    C3F11372   5.154   2.350  10.234  0.6730 -0.2231 -0.8236
  110OSM    H3F11373   5.209   2.447  10.232  1.2166 -0.4143  1.4150
  110OSM    H3G11374   5.108   2.350  10.336  0.5080  1.4165 -0.8736
  110OSM    C4F11375   5.052   2.346  10.118 -1.2500 -0.3455  0.6397
  110OSM    H4F11376   4.964   2.394  10.166 -2.5117 -2.6670  0.7708
  110OSM    H4G11377   5.030   2.241  10.092 -1.0321 -0.2418  0.0260
  110OSM    C5F11378   5.108   2.426   9.999 -0.1910  0.3580  0.6851
  110OSM    H5F11379   5.203   2.379   9.967 -0.9290  1.1498 -3.1905
  110OSM    H5G11380   5.126   2.533  10.023 -2.2895  0.9343 -0.0923
  110OSM    C6F11381   5.010   2.442   9.884  0.1749  0.7184 -0.8080
  110OSM    H6F11382   5.066   2.493   9.803  0.9943  0.3056 -0.5035
  110OSM    H6G11383   4.913   2.490   9.908  0.7771  2.1425 -1.1497
  110OSM    C7F11384   4.979   2.310   9.813  0.2638  0.0185 -0.1503
  110OSM    H7F11385   4.949   2.233   9.888 -1.7667 -0.1582 -1.0928
  110OSM    H7G11386   5.080   2.288   9.771  0.5433  1.4252 -0.2616
  110OSM    C8F11387   4.884   2.310   9.702  0.4467  0.0643 -0.1676
  110OSM    H8F11388   4.782   2.323   9.745  1.1107 -1.8924  2.2319
  110OSM    H8G11389   4.883   2.202   9.678  0.7848 -1.1326  4.2028
  110OSM    C9F11390   4.899   2.412   9.590  0.5068  0.1480 -0.6061
  110OSM    H9F11391   4.877   2.513   9.628 -0.3071 -0.6508  1.1230
  110OSM   C10F11392   4.978   2.390   9.483  0.0055  0.1182  0.6000
  110OSM   H10F11393   4.974   2.466   9.403  0.1376 -1.6581 -1.1802
  110OSM   C11F11394   5.055   2.264   9.448 -0.2645 -0.3711  0.1121
  110OSM   H11F11395   5.059   2.190   9.531  2.3905 -0.8092 -0.3374
  110OSM   H11G11396   5.161   2.294   9.433 -1.1771  2.2533 -1.8397
  110OSM   C12F11397   4.989   2.195   9.325 -0.4347  0.0910 -0.0490
  110OSM   H12F11398   4.880   2.188   9.344  0.1822 -0.4955  4.3362
  110OSM   H12G11399   5.018   2.088   9.330  0.6582  0.2535 -1.9075
  110OSM   C13F11400   5.027   2.255   9.197 -0.1882  0.1253  0.7437
  110OSM   H13F11401   5.136   2.247   9.180 -0.2132 -1.2697  1.1512
  110OSM   H13G11402   5.013   2.365   9.206 -0.7189  0.0163  1.3002
  110OSM   C14F11403   4.938   2.216   9.075  0.2352  0.5375 -0.2124
  110OSM   H14F11404   4.838   2.220   9.123  0.8286  1.6740  0.9891
  110OSM   H14G11405   4.953   2.112   9.041 -1.5179  1.1025 -3.0485
  110OSM   C15F11406   4.942   2.312   8.959 -0.3998  0.1971 -0.2208
  110OSM   H15F11407   4.917   2.408   9.008 -0.0375  0.3032 -0.2379
  110OSM   H15G11408   4.858   2.294   8.889 -0.3636  0.2233 -0.2707
  110OSM   C16F11409   5.074   2.295   8.889  0.3788 -0.1208 -0.4555
  110OSM   H16F11410   5.071   2.202   8.830  1.7226  0.4563 -1.5091
  110OSM   H16G11411   5.156   2.304   8.964  1.0470  1.4662 -1.3151
  110OSM   C17F11412   5.087   2.412   8.792  0.1186 -1.3440  0.2890
  110OSM   H17F11413   5.105   2.505   8.849 -1.7993 -0.1510 -0.9477
  110OSM   H17G11414   4.984   2.433   8.756 -0.6525 -2.0987  1.9409
  110OSM   C18F11415   5.188   2.395   8.682 -0.0194 -0.3856  0.2457
  110OSM   H18F11416   5.152   2.338   8.594 -1.9248 -1.3669  1.6071
  110OSM   H18G11417   5.281   2.356   8.728  0.7134  1.0148  0.0374
  110OSM   H18H11418   5.222   2.490   8.634 -3.3356 -0.2872 -2.2536
  111OSM      N11419   1.069   5.089  11.053  0.2203  0.2136  0.1503
  111OSM    C1511420   1.160   5.125  11.166 -0.5958 -0.0945  0.4284
  111OSM   H15A11421   1.179   5.231  11.164  0.7485 -0.3225  0.4096
  111OSM   H15B11422   1.252   5.070  11.165  0.1352  1.0769  0.8045
  111OSM   H15C11423   1.112   5.110  11.262  0.0541  3.5116  1.4822
  111OSM    C1411424   0.965   5.194  11.039  0.8002 -0.3071  0.9575
  111OSM   H14A11425   1.002   5.294  11.021 -0.6083 -0.1841 -1.7768
  111OSM   H14B11426   0.917   5.192  11.136 -1.9159  0.4156 -0.2762
  111OSM   H14C11427   0.891   5.177  10.963 -0.3365  3.8893  0.9093
  111OSM    C1311428   1.157   5.099  10.929 -0.1284 -0.9023 -0.4629
  111OSM   H13A11429   1.224   5.183  10.938 -1.6262  0.1761  1.0587
  111OSM   H13B11430   1.103   5.100  10.836  1.5325  0.1896 -1.4662
  111OSM   H13C11431   1.222   5.012  10.932  0.0897 -0.7202  0.5725
  111OSM    C1211432   1.012   4.946  11.071  0.2683  0.0111 -0.2503
  111OSM   H12A11433   0.982   4.939  11.175  1.6144 -0.5428  0.1339
  111OSM   H12B11434   1.091   4.872  11.070 -0.4062 -0.7959  1.2222
  111OSM    C1111435   0.909   4.899  10.970  0.5367 -0.5802 -0.2032
  111OSM   H11A11436   0.824   4.968  10.988  1.2285  0.0975  0.5361
  111OSM   H11B11437   0.871   4.803  11.012 -1.0026 -0.8214 -2.0227
  111OSM      P11438   0.861   4.937  10.719  0.2529 -0.3876 -0.1870
  111OSM    O1311439   0.811   4.828  10.635  0.0305 -0.5268  0.1206
  111OSM    O1411440   0.758   5.036  10.774  0.4842  0.9131 -0.3246
  111OSM    O1111441   0.959   5.024  10.639  0.0364 -0.1690 -0.3125
  111OSM    O1211442   0.949   4.884  10.834  0.5313 -0.0743  0.1776
  111OSM    C1S11443   1.080   4.990  10.584 -0.3570  0.0527  0.8663
  111OSM    H1S11444   1.106   4.883  10.602  0.5576  0.2547  0.7950
  111OSM    H1T11445   1.167   5.044  10.627  1.4763 -2.7282  0.9448
  111OSM     NF11446   1.204   4.972  10.355  0.0627  0.5617 -0.4863
  111OSM    HNF11447   1.260   5.044  10.315  0.5633  0.8574  0.7012
  111OSM    C2S11448   1.093   5.015  10.430  0.4435  0.4348  0.8763
  111OSM    H2S11449   1.002   4.968  10.387 -0.1572  1.0152  1.4955
  111OSM    C3S11450   1.066   5.167  10.402 -0.2562  0.1020 -0.0737
  111OSM    H3S11451   1.150   5.229  10.440 -0.3488 -0.0573  0.4025
  111OSM     O311452   0.951   5.227  10.472 -0.2218 -0.5063  0.0884
  111OSM    HO311453   0.926   5.151  10.526 -1.7635  0.1201  0.3349
  111OSM    C4S11454   1.043   5.206  10.251  0.2406 -0.3633 -0.7646
  111OSM    H4S11455   1.135   5.227  10.195  0.5947 -1.9532 -0.8204
  111OSM    C5S11456   0.920   5.206  10.197  0.5677 -0.4158  0.3389
  111OSM    H5S11457   0.833   5.181  10.259  0.6854  3.5859  2.4966
  111OSM    C6S11458   0.895   5.248  10.053 -0.1356  0.2027 -0.2510
  111OSM    H6S11459   0.880   5.358  10.044 -1.1321 -0.0322 -1.7467
  111OSM    H6T11460   0.797   5.199  10.034  0.3702 -0.5520 -0.9650
  111OSM    C7S11461   0.981   5.203   9.925 -0.3808  0.2096  0.2326
  111OSM    H7S11462   0.986   5.092   9.917 -1.4282  0.1140  0.8245
  111OSM    H7T11463   1.086   5.235   9.942  0.5731 -2.8755  0.6724
  111OSM    C8S11464   0.914   5.260   9.799 -0.4699  0.2192 -0.1202
  111OSM    H8S11465   0.904   5.371   9.792 -2.8607  0.0609 -0.1002
  111OSM    H8T11466   0.810   5.226   9.778 -1.5365  2.4759  1.1455
  111OSM    C9S11467   0.998   5.233   9.668 -0.0409  0.3054 -0.2770
  111OSM    H9S11468   1.011   5.126   9.642  1.9168  0.2879  0.5593
  111OSM    H9T11469   1.106   5.256   9.680  1.2704 -4.4189 -1.0672
  111OSM   C10S11470   0.933   5.300   9.546 -0.4450 -0.4304  0.1451
  111OSM   H10S11471   0.918   5.406   9.578  2.5068  0.1272 -0.0166
  111OSM   H10T11472   0.830   5.259   9.537 -0.1666 -1.3705  1.0333
  111OSM   C11S11473   1.013   5.298   9.417  1.2716  1.3766 -0.0937
  111OSM   H11S11474   1.021   5.189   9.398  0.2280  1.2921 -0.0798
  111OSM   H11T11475   1.110   5.349   9.433  2.9381 -1.6725  0.3742
  111OSM   C12S11476   0.954   5.368   9.293 -0.0235 -1.0375  0.5607
  111OSM   H12S11477   0.933   5.472   9.324 -0.3810  0.2088 -3.3352
  111OSM   H12T11478   0.862   5.314   9.260  0.0299 -0.6809 -0.1896
  111OSM   C13S11479   1.050   5.389   9.178 -0.4950 -0.4922 -0.1285
  111OSM   H13S11480   1.137   5.451   9.209  0.2660 -1.5204 -0.1359
  111OSM   H13T11481   1.011   5.456   9.099  1.4739 -2.2958 -2.8247
  111OSM   C14S11482   1.091   5.263   9.109 -0.1085  0.5902 -0.1726
  111OSM   H14S11483   1.008   5.190   9.111 -0.2430  0.5289  4.9132
  111OSM   H14T11484   1.175   5.214   9.165 -0.8942 -0.5723  0.0344
  111OSM   C15S11485   1.137   5.290   8.962  0.4197 -0.0858  1.0983
  111OSM   H15S11486   1.218   5.223   8.925  0.3470 -0.2108  1.1637
  111OSM   H15T11487   1.189   5.387   8.972 -0.6268  0.5029  0.9298
  111OSM   C16S11488   1.026   5.305   8.855 -0.1615 -0.0294 -0.2165
  111OSM   H16S11489   1.057   5.316   8.749 -0.9889  1.1985 -0.3633
  111OSM   H16T11490   0.962   5.391   8.887 -1.3508 -1.3755  1.1451
  111OSM   C17S11491   0.927   5.190   8.853 -0.0832 -0.4064 -0.0516
  111OSM   H17S11492   0.880   5.184   8.953 -1.3917  2.5732 -0.3832
  111OSM   H17T11493   0.985   5.097   8.831 -3.0338 -2.1309 -1.2138
  111OSM   C18S11494   0.809   5.212   8.755  0.1422 -0.4689  0.1606
  111OSM   H18S11495   0.730   5.275   8.802  0.0711 -0.2669 -0.2272
  111OSM   H18T11496   0.759   5.114   8.741  1.5327 -1.4695  1.7294
  111OSM   H18U11497   0.834   5.249   8.654 -0.8915  0.1710  0.1293
  111OSM    C1F11498   1.228   4.839  10.342  0.0648 -0.6281 -0.0566
  111OSM     OF11499   1.152   4.764  10.402  0.0159  0.1106  0.3934
  111OSM    C2F11500   1.362   4.796  10.283  0.6251  0.2090 -0.2252
  111OSM    H2F11501   1.435   4.792  10.367  0.4211  1.0357  0.0019
  111OSM    H2G11502   1.407   4.879  10.224  0.6146  0.7402  0.5013
  111OSM    C3F11503   1.361   4.652  10.221 -0.1372  0.1605  0.0297
  111OSM    H3F11504   1.328   4.577  10.295  2.0738  1.8795  2.9840
  111OSM    H3G11505   1.464   4.630  10.186 -0.8007 -0.6432 -1.5026
  111OSM    C4F11506   1.269   4.650  10.090 -0.2283  0.0836 -0.4207
  111OSM    H4F11507   1.163   4.659  10.122 -0.8000 -2.3282 -1.4176
  111OSM    H4G11508   1.276   4.549  10.043 -0.1887 -0.3267  0.4371
  111OSM    C5F11509   1.301   4.754   9.984  0.6556  0.6328  0.2571
  111OSM    H5F11510   1.386   4.716   9.923 -0.4477 -3.4194  0.9544
  111OSM    H5G11511   1.330   4.841  10.047 -0.9855 -0.1803  2.2439
  111OSM    C6F11512   1.164   4.797   9.908 -0.4429  0.6966 -0.0157
  111OSM    H6F11513   1.104   4.843   9.990 -3.1753 -0.8709 -1.0064
  111OSM    H6G11514   1.113   4.702   9.881  0.4357 -0.6791  2.7414
  111OSM    C7F11515   1.162   4.892   9.794  0.2860  0.3203  0.2194
  111OSM    H7F11516   1.164   4.998   9.828 -2.2778  0.4995  0.0053
  111OSM    H7G11517   1.060   4.878   9.752 -0.3045 -0.8029  1.9687
  111OSM    C8F11518   1.254   4.864   9.672 -0.3206  0.3322 -0.3255
  111OSM    H8F11519   1.211   4.778   9.616  0.9238  0.8009 -2.0910
  111OSM    H8G11520   1.347   4.822   9.717  0.0080  0.5300 -0.8192
  111OSM    C9F11521   1.282   4.975   9.581 -0.2638  0.2816 -0.1831
  111OSM    H9F11522   1.315   5.055   9.650 -3.2392  1.9579 -0.5426
  111OSM   C10F11523   1.255   4.989   9.450 -0.1593  0.4425  0.2787
  111OSM   H10F11524   1.294   5.081   9.404  0.3534 -0.2602 -0.7067
  111OSM   C11F11525   1.193   4.884   9.365  0.7578  0.2065 -0.3458
  111OSM   H11F11526   1.250   4.790   9.381 -0.4619 -0.4191  0.5391
  111OSM   H11G11527   1.195   4.910   9.257 -0.2268 -0.4683 -0.5461
  111OSM   C12F11528   1.045   4.880   9.396  0.0330 -0.5550  0.3709
  111OSM   H12F11529   0.995   4.979   9.401  1.1406 -0.0060  0.8855
  111OSM   H12G11530   1.034   4.838   9.499 -0.0715 -0.4981  0.3826
  111OSM   C13F11531   0.970   4.787   9.291 -0.2130  0.0478 -0.3344
  111OSM   H13F11532   0.869   4.786   9.339  0.6584 -1.2568  1.6059
  111OSM   H13G11533   1.011   4.685   9.279 -0.9359 -0.5255  1.6729
  111OSM   C14F11534   0.956   4.847   9.148 -0.6449  0.1779  0.4664
  111OSM   H14F11535   1.057   4.839   9.102 -0.9504 -1.6949  0.0569
  111OSM   H14G11536   0.927   4.954   9.154  1.3773  0.7601  0.6034
  111OSM   C15F11537   0.849   4.767   9.063  0.2677  0.3932 -0.3313
  111OSM   H15F11538   0.764   4.792   9.129  0.6253 -1.3724  0.8657
  111OSM   H15G11539   0.864   4.657   9.071 -1.6159  0.0266 -1.3113
  111OSM   C16F11540   0.848   4.825   8.921 -0.2465 -0.5654 -0.1157
  111OSM   H16F11541   0.831   4.934   8.927 -0.9611 -0.6062 -1.2576
  111OSM   H16G11542   0.763   4.784   8.862 -0.0496 -1.8236  0.4198
  111OSM   C17F11543   0.977   4.788   8.838 -0.1503  0.2064  0.9882
  111OSM   H17F11544   0.997   4.681   8.861  1.6572 -0.3531 -2.5029
  111OSM   H17G11545   1.071   4.839   8.865 -0.4438  1.0124  0.5226
  111OSM   C18F11546   0.958   4.811   8.686 -1.0323  0.4149  0.2893
  111OSM   H18F11547   0.931   4.915   8.657  0.4853  0.8032  0.1614
  111OSM   H18G11548   0.888   4.737   8.644  1.8697 -0.8210 -2.8181
  111OSM   H18H11549   1.049   4.790   8.626 -0.7461  2.4103 -0.0692
  112OSM      N11550   0.707   1.094  11.059  0.2356  0.1475  0.4502
  112OSM    C1511551   0.832   1.023  11.031  0.3724 -0.2243 -0.8824
  112OSM   H15A11552   0.917   1.088  11.017 -0.9187  2.0604  1.2397
  112OSM   H15B11553   0.821   0.953  10.948 -1.4977 -0.1066 -0.7806
  112OSM   H15C11554   0.852   0.956  11.113  0.0288  1.5797  0.7286
  112OSM    C1411555   0.601   0.983  11.079  0.3880  0.2852  0.3328
  112OSM   H14A11556   0.637   0.915  11.155 -2.5311  0.2865  1.8536
  112OSM   H14B11557   0.575   0.935  10.987 -3.1336  0.8960  0.8688
  112OSM   H14C11558   0.509   1.024  11.118  0.1206  1.5735 -1.5295
  112OSM    C1311559   0.722   1.170  11.197  0.0244  0.6302 -0.5095
  112OSM   H13A11560   0.630   1.216  11.232 -0.3701 -0.0950 -0.5750
  112OSM   H13B11561   0.805   1.238  11.187 -0.2980  1.2773  1.0019
  112OSM   H13C11562   0.745   1.102  11.277 -2.0081 -2.2964 -2.2370
  112OSM    C1211563   0.664   1.187  10.956  0.0798 -0.2020  0.0497
  112OSM   H12A11564   0.577   1.238  10.995  1.0296  1.4188  0.1134
  112OSM   H12B11565   0.633   1.123  10.875  1.4592 -2.1456  0.9650
  112OSM    C1111566   0.770   1.274  10.897  0.4864 -0.6623  0.0411
  112OSM   H11A11567   0.726   1.304  10.799  0.9850  0.3523  0.1077
  112OSM   H11B11568   0.861   1.220  10.864  0.1892 -0.5757 -0.9562
  112OSM      P11569   0.724   1.497  11.024  0.0159 -0.2446  0.3363
  112OSM    O1311570   0.603   1.449  11.096 -0.1149  0.3822 -0.2333
  112OSM    O1411571   0.809   1.606  11.090  0.5854  0.0998  0.5942
  112OSM    O1111572   0.673   1.547  10.880  0.1643  0.2635  0.3428
  112OSM    O1211573   0.821   1.379  10.983 -0.5000  0.1429 -0.0619
  112OSM    C1S11574   0.777   1.576  10.783  0.1221  0.6052  1.0253
  112OSM    H1S11575   0.856   1.498  10.776  0.6560  1.2704 -1.2914
  112OSM    H1T11576   0.826   1.669  10.816  0.3536  0.1469  2.0039
  112OSM     NF11577   0.824   1.605  10.535 -0.0490  0.1162  0.2414
  112OSM    HNF11578   0.850   1.691  10.492  1.5461 -0.3258  0.2454
  112OSM    C2S11579   0.720   1.597  10.636  0.2288  0.4611 -0.5378
  112OSM    H2S11580   0.667   1.504  10.603  1.2578  0.0721 -1.1589
  112OSM    C3S11581   0.618   1.712  10.631  0.1722  0.3258  0.7316
  112OSM    H3S11582   0.664   1.795  10.689  0.6600 -0.9637  2.2583
  112OSM     O311583   0.497   1.682  10.700 -0.4981  0.0787 -0.0095
  112OSM    HO311584   0.527   1.607  10.752  1.3230 -0.8743 -2.2740
  112OSM    C4S11585   0.583   1.753  10.488  0.3960  0.2421 -0.0892
  112OSM    H4S11586   0.547   1.668  10.428 -1.4122  0.4373  0.6456
  112OSM    C5S11587   0.568   1.872  10.433  0.4044  0.4942  0.5274
  112OSM    H5S11588   0.584   1.959  10.498  0.6643  1.3395 -0.6551
  112OSM    C6S11589   0.523   1.903  10.294 -0.0914  0.6142 -0.1203
  112OSM    H6S11590   0.449   1.987  10.288 -1.4824 -0.5553  0.0847
  112OSM    H6T11591   0.489   1.809  10.246  1.2329  0.4491 -0.7684
  112OSM    C7S11592   0.645   1.948  10.210  0.6893  0.2283 -0.0141
  112OSM    H7S11593   0.723   1.870  10.221  2.0350  1.8158  2.8328
  112OSM    H7T11594   0.694   2.038  10.255  2.2772 -1.1363  1.1372
  112OSM    C8S11595   0.590   1.978  10.069  0.1898 -0.5115  0.3384
  112OSM    H8S11596   0.490   2.025  10.077 -0.5996 -1.9202 -0.7048
  112OSM    H8T11597   0.561   1.878  10.031  0.1336 -0.5620  0.5104
  112OSM    C9S11598   0.695   2.051   9.984  0.4561 -0.6784 -0.1746
  112OSM    H9S11599   0.798   2.018  10.009 -0.3085 -1.1820  2.7546
  112OSM    H9T11600   0.697   2.152  10.032 -0.6088 -1.1277  0.8883
  112OSM   C10S11601   0.670   2.076   9.832 -0.1405  0.3743 -0.0367
  112OSM   H10S11602   0.764   2.048   9.780  0.1373  1.7161 -0.2963
  112OSM   H10T11603   0.656   2.184   9.813  0.6894  0.2411 -1.5916
  112OSM   C11S11604   0.566   1.979   9.770  0.5921 -0.5057  0.7814
  112OSM   H11S11605   0.464   2.003   9.807  0.5096 -1.5719  1.2708
  112OSM   H11T11606   0.588   1.878   9.810  2.3807 -0.9928 -1.2615
  112OSM   C12S11607   0.559   1.970   9.618  0.0034 -0.2252  0.2416
  112OSM   H12S11608   0.539   1.865   9.590  1.0805 -0.7738  1.4108
  112OSM   H12T11609   0.664   1.991   9.587  0.2297 -0.8037  0.6064
  112OSM   C13S11610   0.470   2.071   9.555  0.3958  0.0527 -0.1907
  112OSM   H13S11611   0.482   2.169   9.607  0.9058  0.7827 -1.6174
  112OSM   H13T11612   0.365   2.049   9.582  0.5244  0.1140  0.3756
  112OSM   C14S11613   0.490   2.090   9.402  0.1958 -0.3999 -0.2631
  112OSM   H14S11614   0.590   2.136   9.384  0.2645 -0.2973  0.3373
  112OSM   H14T11615   0.421   2.165   9.357  0.9238 -0.5222 -1.6440
  112OSM   C15S11616   0.474   1.963   9.325  0.4132 -0.4310 -0.4640
  112OSM   H15S11617   0.398   1.909   9.386 -2.7414  2.8644 -1.1783
  112OSM   H15T11618   0.563   1.897   9.333  2.0770  1.7602  0.0584
  112OSM   C16S11619   0.423   1.987   9.185 -0.3336  0.3269 -0.1631
  112OSM   H16S11620   0.493   2.047   9.123  1.2899 -1.6037 -0.2977
  112OSM   H16T11621   0.328   2.043   9.200 -0.2012  0.8234 -1.0832
  112OSM   C17S11622   0.386   1.853   9.113  0.4865 -0.5591 -0.0990
  112OSM   H17S11623   0.343   1.788   9.192  1.6057 -1.4240 -0.1758
  112OSM   H17T11624   0.479   1.796   9.091  0.3996 -0.7606  0.0632
  112OSM   C18S11625   0.293   1.875   8.991  0.7038 -0.1072  0.1955
  112OSM   H18S11626   0.253   1.776   8.960 -3.5193  0.7522  2.2190
  112OSM   H18T11627   0.356   1.920   8.912 -0.3177  0.0067 -0.5592
  112OSM   H18U11628   0.216   1.951   9.013  1.0505 -0.7722  4.7635
  112OSM    C1F11629   0.892   1.492  10.512 -0.1516  0.3108  0.7969
  112OSM     OF11630   0.843   1.382  10.535  0.4635 -0.5483 -0.5805
  112OSM    C2F11631   1.025   1.507  10.437  0.0957  0.3305  0.3291
  112OSM    H2F11632   1.102   1.523  10.515 -0.4781  1.8146  0.6301
  112OSM    H2G11633   1.002   1.595  10.374 -2.2823  0.3994  1.1745
  112OSM    C3F11634   1.056   1.379  10.361 -0.3137 -0.2988  0.7552
  112OSM    H3F11635   0.972   1.360  10.290  1.0709  1.7262 -1.5937
  112OSM    H3G11636   1.077   1.297  10.432  2.0022 -1.2695 -0.9397
  112OSM    C4F11637   1.171   1.396  10.263  0.3616 -0.0968  0.2279
  112OSM    H4F11638   1.126   1.463  10.187  0.9989  0.0197 -0.0573
  112OSM    H4G11639   1.190   1.305  10.202 -2.1535  0.3360 -1.3320
  112OSM    C5F11640   1.303   1.430  10.332  0.7975 -0.6564 -0.2676
  112OSM    H5F11641   1.323   1.344  10.400  0.6072 -0.7499 -0.3279
  112OSM    H5G11642   1.306   1.519  10.398  0.0850 -0.9640  0.1881
  112OSM    C6F11643   1.417   1.447  10.238 -0.6981  0.3230 -0.2148
  112OSM    H6F11644   1.372   1.488  10.145 -2.1712  0.2870  0.4569
  112OSM    H6G11645   1.456   1.346  10.213  1.5968  0.5220  2.1715
  112OSM    C7F11646   1.528   1.524  10.306 -0.4163  0.3687  0.1517
  112OSM    H7F11647   1.560   1.476  10.401 -0.9062  2.7458  1.6260
  112OSM    H7G11648   1.494   1.629  10.322 -3.0776 -0.3147 -0.5313
  112OSM    C8F11649   1.648   1.534  10.209 -0.1779 -0.0569 -0.0200
  112OSM    H8F11650   1.680   1.429  10.192  0.1507  0.5007 -3.6833
  112OSM    H8G11651   1.726   1.583  10.270 -1.2409  0.8694  0.6370
  112OSM    C9F11652   1.623   1.622  10.087  0.2429  0.1637  0.0126
  112OSM    H9F11653   1.613   1.731  10.100  0.8742  0.5125 -2.1458
  112OSM   C10F11654   1.595   1.578   9.964  0.8345  0.1693 -0.6814
  112OSM   H10F11655   1.551   1.654   9.897  1.7801  1.1736 -0.1998
  112OSM   C11F11656   1.581   1.436   9.918 -0.3287 -0.1832  0.2510
  112OSM   H11F11657   1.480   1.398   9.944  1.3217 -4.3214  1.4798
  112OSM   H11G11658   1.641   1.363   9.976 -2.4296 -0.6457  1.9800
  112OSM   C12F11659   1.600   1.401   9.763 -0.6691  0.9723 -0.1965
  112OSM   H12F11660   1.701   1.440   9.738  0.8336 -0.2096  3.3538
  112OSM   H12G11661   1.515   1.450   9.711 -1.3074 -1.8108 -2.0197
  112OSM   C13F11662   1.617   1.253   9.726  0.5197 -0.3478  0.4420
  112OSM   H13F11663   1.537   1.195   9.777  0.5420  0.0772  0.9663
  112OSM   H13G11664   1.715   1.210   9.753  0.4853 -0.1681  0.8611
  112OSM   C14F11665   1.590   1.229   9.572 -0.3292 -0.4777  0.3844
  112OSM   H14F11666   1.619   1.314   9.506 -2.0912  0.7564  1.1173
  112OSM   H14G11667   1.480   1.222   9.555 -0.0602 -2.0981 -0.8660
  112OSM   C15F11668   1.657   1.096   9.531  0.1930 -0.8005 -1.2471
  112OSM   H15F11669   1.617   1.015   9.595  3.3768 -2.4344 -1.1373
  112OSM   H15G11670   1.768   1.100   9.534  0.2654  2.4263 -2.9978
  112OSM   C16F11671   1.623   1.076   9.381 -0.1144  0.0520 -0.0025
  112OSM   H16F11672   1.667   1.166   9.333 -0.5487  0.9473  1.2405
  112OSM   H16G11673   1.513   1.069   9.367 -0.7778 -1.6742  4.4060
  112OSM   C17F11674   1.682   0.945   9.335 -0.0072 -0.4240 -0.3160
  112OSM   H17F11675   1.622   0.871   9.392 -0.0179 -0.1880 -0.0197
  112OSM   H17G11676   1.791   0.940   9.356 -0.2624  0.6538  1.3708
  112OSM   C18F11677   1.656   0.916   9.186  0.2580  0.5562  0.6126
  112OSM   H18F11678   1.702   0.817   9.168 -0.5388  0.1800  0.6146
  112OSM   H18G11679   1.704   0.990   9.119  0.5107 -1.3766 -1.4568
  112OSM   H18H11680   1.546   0.907   9.175  0.3966  0.2023 -0.6379
  113OSM      N11681   1.272   2.583  10.860  0.0785  0.0267  0.9230
  113OSM    C1511682   1.333   2.459  10.911 -0.2265  0.2667 -0.6171
  113OSM   H15A11683   1.428   2.476  10.960 -0.6740 -1.6423  1.0857
  113OSM   H15B11684   1.345   2.379  10.840  2.0050  1.7223 -2.0084
  113OSM   H15C11685   1.270   2.414  10.987  1.4180  0.3339  0.8703
  113OSM    C1411686   1.291   2.697  10.958 -0.1469 -0.3107  0.1245
  113OSM   H14A11687   1.216   2.774  10.945 -0.6703 -1.1749 -2.5106
  113OSM   H14B11688   1.389   2.742  10.950  0.0053 -0.2982  1.7204
  113OSM   H14C11689   1.272   2.667  11.060 -0.9352  0.3416  0.1802
  113OSM    C1311690   1.354   2.638  10.742 -0.3222 -0.2249 -0.4456
  113OSM   H13A11691   1.340   2.741  10.714 -1.8271 -0.3804 -0.3289
  113OSM   H13B11692   1.332   2.583  10.651 -0.2368 -0.8930 -0.0695
  113OSM   H13C11693   1.461   2.628  10.753 -0.2854  0.4386 -0.1813
  113OSM    C1211694   1.127   2.557  10.827  0.5203 -0.2086  0.7371
  113OSM   H12A11695   1.078   2.520  10.916 -0.2329 -1.7988 -0.2914
  113OSM   H12B11696   1.134   2.490  10.743  0.4362  2.2367 -1.3471
  113OSM    C1111697   1.045   2.683  10.770 -0.9456  0.6894 -0.4168
  113OSM   H11A11698   0.953   2.635  10.731  0.3927 -0.7690 -1.9257
  113OSM   H11B11699   1.099   2.709  10.676 -2.1201 -1.3534 -1.7232
  113OSM      P11700   1.032   2.941  10.823 -0.6288  0.2191 -0.1946
  113OSM    O1311701   0.956   3.030  10.916 -0.1729 -0.0775 -0.0876
  113OSM    O1411702   1.172   2.963  10.837 -0.0848  0.2441 -0.0045
  113OSM    O1111703   0.988   2.945  10.670 -0.3618  0.1076  0.1604
  113OSM    O1211704   1.011   2.788  10.863  0.4319 -0.3710  0.1165
  113OSM    C1S11705   0.851   2.967  10.639  0.3104  1.3162 -0.7954
  113OSM    H1S11706   0.805   3.066  10.659 -0.8967  0.9041 -1.4037
  113OSM    H1T11707   0.788   2.897  10.697  0.1468  1.3715 -0.9050
  113OSM     NF11708   0.665   2.950  10.474 -0.1347  0.2581  0.3990
  113OSM    HNF11709   0.615   2.865  10.488  1.9417 -1.1461 -0.1948
  113OSM    C2S11710   0.808   2.932  10.492 -0.3985  0.0667  0.3174
  113OSM    H2S11711   0.854   3.000  10.417 -0.2778  0.6405  0.9114
  113OSM    C3S11712   0.860   2.790  10.444  0.3308  0.1773 -0.4524
  113OSM    H3S11713   0.827   2.708  10.512 -1.0024  0.8411 -0.2533
  113OSM     O311714   1.005   2.773  10.447 -0.4121 -0.3982  0.4848
  113OSM    HO311715   1.020   2.854  10.495 -4.1306 -0.6996  2.4991
  113OSM    C4S11716   0.802   2.758  10.305 -0.4079 -0.0930 -0.7076
  113OSM    H4S11717   0.708   2.701  10.314  0.1383 -0.6384  2.5684
  113OSM    C5S11718   0.847   2.782  10.182  0.1032 -0.3134 -0.1999
  113OSM    H5S11719   0.945   2.831  10.167  0.2090 -1.0035 -1.9249
  113OSM    C6S11720   0.769   2.751  10.060 -0.7830  0.5864  0.4884
  113OSM    H6S11721   0.711   2.837  10.018 -0.1880  1.2953  1.0916
  113OSM    H6T11722   0.705   2.662  10.072  0.0115 -0.2287 -1.0526
  113OSM    C7S11723   0.850   2.695   9.936 -0.1528  0.1800 -0.3796
  113OSM    H7S11724   0.888   2.788   9.889  1.6677  0.7622  2.0447
  113OSM    H7T11725   0.778   2.637   9.875 -1.5585  2.3711 -0.9508
  113OSM    C8S11726   0.981   2.607   9.966  0.4911 -0.2729 -0.0961
  113OSM    H8S11727   0.951   2.507  10.003 -0.4994  0.9719  2.7816
  113OSM    H8T11728   1.053   2.651  10.038  1.8989  2.7799 -3.1046
  113OSM    C9S11729   1.072   2.592   9.844  0.1390 -0.3055  0.3871
  113OSM    H9S11730   1.069   2.690   9.792 -2.5667 -1.8848 -2.7615
  113OSM    H9T11731   1.022   2.523   9.774  0.3028 -0.5324  0.4932
  113OSM   C10S11732   1.215   2.552   9.865  0.1344 -0.6711  0.4326
  113OSM   H10S11733   1.216   2.456   9.920  0.1433 -0.2677  1.1545
  113OSM   H10T11734   1.269   2.626   9.929 -2.3916  0.8782  0.9574
  113OSM   C11S11735   1.276   2.530   9.725  1.0700  0.4779 -0.6722
  113OSM   H11S11736   1.271   2.619   9.659 -0.9395 -0.2982 -1.6751
  113OSM   H11T11737   1.212   2.457   9.670  0.3076  0.3348  0.3770
  113OSM   C12S11738   1.413   2.468   9.728 -0.2638  0.3703 -0.7706
  113OSM   H12S11739   1.423   2.376   9.789 -0.8022  0.3076 -0.7721
  113OSM   H12T11740   1.485   2.539   9.774  0.6900 -1.9124  1.5123
  113OSM   C13S11741   1.456   2.442   9.583 -0.0758  0.1651  0.3036
  113OSM   H13S11742   1.562   2.410   9.587 -0.4427 -1.1938 -0.0475
  113OSM   H13T11743   1.437   2.533   9.523  1.4831  0.8146  0.7565
  113OSM   C14S11744   1.386   2.319   9.515 -0.3127 -0.1084  0.1508
  113OSM   H14S11745   1.277   2.337   9.511  0.0634  2.3891 -0.0622
  113OSM   H14T11746   1.396   2.235   9.587  1.0453 -0.4167 -0.3571
  113OSM   C15S11747   1.448   2.267   9.384 -0.0481 -0.7472 -0.0903
  113OSM   H15S11748   1.389   2.176   9.360 -2.5233  0.7317  0.0934
  113OSM   H15T11749   1.555   2.241   9.403  0.2179  0.1564 -0.3153
  113OSM   C16S11750   1.439   2.366   9.259 -0.0892  0.2953  0.3687
  113OSM   H16S11751   1.463   2.305   9.170 -0.2340 -0.0607  0.5689
  113OSM   H16T11752   1.518   2.442   9.270 -0.6251  1.2526 -1.9707
  113OSM   C17S11753   1.297   2.418   9.244 -0.0755  0.5598 -0.8994
  113OSM   H17S11754   1.264   2.477   9.332  0.2928  0.6046 -0.7913
  113OSM   H17T11755   1.223   2.336   9.240 -0.5003  0.7212  1.9085
  113OSM   C18S11756   1.272   2.507   9.120  0.3659  0.3883  0.0803
  113OSM   H18S11757   1.328   2.471   9.032 -1.5712  0.7437 -1.3533
  113OSM   H18T11758   1.306   2.607   9.153 -0.0497  0.1548  1.2657
  113OSM   H18U11759   1.165   2.501   9.090  0.4440 -1.2047  0.0564
  113OSM    C1F11760   0.605   3.068  10.473 -0.0776 -0.3848 -1.0146
  113OSM     OF11761   0.677   3.163  10.485  0.2035  0.6537 -0.2192
  113OSM    C2F11762   0.458   3.079  10.458 -0.5779 -0.2751 -0.2937
  113OSM    H2F11763   0.421   3.135  10.547  2.2845  1.1386  0.1190
  113OSM    H2G11764   0.410   2.979  10.465 -1.4231  0.1468  0.1377
  113OSM    C3F11765   0.411   3.140  10.320  0.5539 -0.1621  0.5923
  113OSM    H3F11766   0.451   3.243  10.306  1.1718 -0.2228  1.7880
  113OSM    H3G11767   0.300   3.139  10.321  0.2836  4.6220  0.3294
  113OSM    C4F11768   0.452   3.053  10.201  0.1450  0.4051  0.7040
  113OSM    H4F11769   0.408   2.951  10.203 -0.6387  0.5401 -3.1427
  113OSM    H4G11770   0.561   3.036  10.212  0.2123  0.0470 -0.4143
  113OSM    C5F11771   0.414   3.108  10.059  0.3319  0.0475  0.0529
  113OSM    H5F11772   0.435   3.217  10.068 -1.7410  0.4917 -0.1042
  113OSM    H5G11773   0.304   3.101  10.045  0.2435  2.4472 -1.0043
  113OSM    C6F11774   0.477   3.045   9.939  0.1569 -0.1202 -0.1758
  113OSM    H6F11775   0.585   3.025   9.960  0.1372  1.1695  1.3450
  113OSM    H6G11776   0.476   3.116   9.854 -3.3854 -0.6869 -0.7404
  113OSM    C7F11777   0.409   2.916   9.887  0.5759  0.2641 -0.0730
  113OSM    H7F11778   0.300   2.939   9.888  0.9647  2.3847  1.2375
  113OSM    H7G11779   0.438   2.842   9.965 -0.4100  0.3685  0.4104
  113OSM    C8F11780   0.457   2.865   9.749 -0.1319  0.5964 -0.1805
  113OSM    H8F11781   0.421   2.765   9.718 -2.9152  0.6707  2.3796
  113OSM    H8G11782   0.568   2.865   9.739 -0.3205 -0.6441 -3.2599
  113OSM    C9F11783   0.413   2.965   9.642  1.0796  0.2231  0.3531
  113OSM    H9F11784   0.463   3.063   9.651  0.3307  0.5641  0.8989
  113OSM   C10F11785   0.324   2.944   9.540 -0.9868 -0.3566  0.3115
  113OSM   H10F11786   0.318   3.028   9.469  1.7657 -0.2933  0.0334
  113OSM   C11F11787   0.243   2.827   9.495 -0.0566 -1.1027  0.0632
  113OSM   H11F11788   0.138   2.862   9.499  0.6910  1.4175 -0.7850
  113OSM   H11G11789   0.254   2.738   9.561  1.6633 -0.5510  0.5873
  113OSM   C12F11790   0.273   2.799   9.351  0.3821  0.4416  0.0574
  113OSM   H12F11791   0.383   2.797   9.336  0.6030 -1.0477  1.5084
  113OSM   H12G11792   0.251   2.882   9.281 -1.2765 -1.6717 -2.1225
  113OSM   C13F11793   0.203   2.675   9.289 -0.2672  0.5553  0.7049
  113OSM   H13F11794   0.095   2.687   9.313 -0.7186 -0.3886 -0.7142
  113OSM   H13G11795   0.245   2.588   9.343 -1.6383  0.3063  1.4097
  113OSM   C14F11796   0.224   2.643   9.138 -0.2900 -0.0295  0.5002
  113OSM   H14F11797   0.184   2.737   9.095 -0.2938 -0.3301 -0.1648
  113OSM   H14G11798   0.152   2.565   9.105 -1.2768  1.0260  0.1084
  113OSM   C15F11799   0.366   2.594   9.104  0.8238  0.0259  0.5551
  113OSM   H15F11800   0.380   2.495   9.153  0.4695  1.3219  3.5098
  113OSM   H15G11801   0.433   2.672   9.146 -0.2563  0.5368  1.3992
  113OSM   C16F11802   0.384   2.593   8.955 -0.0987  0.0321  1.1488
  113OSM   H16F11803   0.339   2.688   8.919 -0.5062 -0.4517  0.3603
  113OSM   H16G11804   0.315   2.518   8.911  0.5302 -0.7979  1.5454
  113OSM   C17F11805   0.527   2.571   8.899 -0.2268 -0.2605 -0.1075
  113OSM   H17F11806   0.596   2.649   8.937  2.4006 -1.4077 -2.1959
  113OSM   H17G11807   0.521   2.597   8.791 -0.1444  1.1582  0.2092
  113OSM   C18F11808   0.594   2.432   8.913 -0.3174 -0.1542 -0.0430
  113OSM   H18F11809   0.640   2.406   9.010  1.2316 -1.3382 -1.0472
  113OSM   H18G11810   0.681   2.424   8.844 -0.5703  1.9460 -0.6723
  113OSM   H18H11811   0.525   2.351   8.883 -3.2670  2.4394 -0.7660
  114OSM      N11812   3.442   0.756  11.175 -0.1059  0.8056  0.1865
  114OSM    C1511813   3.333   0.685  11.102  0.1552  0.1156 -0.1298
  114OSM   H15A11814   3.341   0.578  11.117  1.5162  0.4367  1.6690
  114OSM   H15B11815   3.331   0.693  10.994 -0.2124  0.8236 -0.0795
  114OSM   H15C11816   3.240   0.719  11.146 -0.4928 -2.8335  1.0099
  114OSM    C1411817   3.570   0.686  11.148 -0.3203 -0.3014  0.0518
  114OSM   H14A11818   3.612   0.691  11.048  1.5909  1.1911  0.8597
  114OSM   H14B11819   3.562   0.579  11.163 -2.8107 -0.6320 -2.6408
  114OSM   H14C11820   3.645   0.720  11.217 -0.3752 -0.3196  0.1210
  114OSM    C1311821   3.446   0.895  11.133  0.3476 -0.0411  0.4648
  114OSM   H13A11822   3.527   0.943  11.186  0.7360 -0.8003  0.5807
  114OSM   H13B11823   3.352   0.944  11.150  1.0036  2.3518 -2.1182
  114OSM   H13C11824   3.461   0.897  11.026 -1.7453 -1.8514  0.0591
  114OSM    C1211825   3.423   0.749  11.322 -0.5363 -0.0218 -0.0660
  114OSM   H12A11826   3.359   0.831  11.352  0.5681  1.0445 -0.5516
  114OSM   H12B11827   3.518   0.760  11.374 -0.3679 -0.3263 -0.3065
  114OSM    C1111828   3.372   0.620  11.384 -0.0633  0.5236 -0.6953
  114OSM   H11A11829   3.269   0.601  11.348 -0.3556  1.2205 -0.2660
  114OSM   H11B11830   3.367   0.647  11.492 -0.4139  0.8762 -0.7962
  114OSM      P11831   3.424   0.362  11.356 -0.4254 -0.0051 -0.1205
  114OSM    O1311832   3.530   0.278  11.417 -0.0950  0.3579 -0.0508
  114OSM    O1411833   3.288   0.340  11.407 -0.4755 -0.3033 -0.9482
  114OSM    O1111834   3.436   0.355  11.201 -0.2733  0.2454  0.2578
  114OSM    O1211835   3.464   0.514  11.360 -0.0077  0.0724 -0.5551
  114OSM    C1S11836   3.330   0.332  11.111  0.5743 -0.0278 -0.1202
  114OSM    H1S11837   3.245   0.400  11.135  0.1057 -1.0831  1.3822
  114OSM    H1T11838   3.286   0.231  11.125  2.2794 -0.7063  0.6406
  114OSM     NF11839   3.270   0.303  10.872  0.0580  0.1425 -0.2474
  114OSM    HNF11840   3.269   0.222  10.814 -1.8450  1.5068 -2.3114
  114OSM    C2S11841   3.374   0.339  10.965 -0.3524  0.1183  0.1450
  114OSM    H2S11842   3.399   0.446  10.943  1.2042 -0.2282  0.0527
  114OSM    C3S11843   3.510   0.265  10.944 -0.3428  0.6273  0.5858
  114OSM    H3S11844   3.507   0.154  10.952 -0.1304  0.4321 -1.5058
  114OSM     O311845   3.620   0.294  11.033  0.0667  0.2442  0.1435
  114OSM    HO311846   3.561   0.331  11.100 -2.8020 -0.2758 -1.9039
  114OSM    C4S11847   3.555   0.291  10.798 -0.9550  0.0059 -0.4697
  114OSM    H4S11848   3.522   0.219  10.722  1.4181 -1.1588 -0.4885
  114OSM    C5S11849   3.622   0.404  10.768 -0.6170  0.1590 -0.5833
  114OSM    H5S11850   3.669   0.468  10.844  0.9069 -0.6688 -0.7674
  114OSM    C6S11851   3.676   0.445  10.632  0.2615  0.1937 -0.1509
  114OSM    H6S11852   3.787   0.442  10.636  0.3902  3.0642  1.6698
  114OSM    H6T11853   3.646   0.550  10.608  3.5437  1.1371 -0.5674
  114OSM    C7S11854   3.632   0.344  10.528  0.1672 -0.1538 -0.6840
  114OSM    H7S11855   3.522   0.348  10.510 -0.1300  2.0054  1.0723
  114OSM    H7T11856   3.665   0.241  10.555 -3.7559 -1.4026  0.0534
  114OSM    C8S11857   3.695   0.399  10.396 -0.4498 -0.0303 -0.6939
  114OSM    H8S11858   3.806   0.403  10.395 -0.3810 -1.3168 -0.9156
  114OSM    H8T11859   3.656   0.502  10.387 -0.4761  0.1946  1.4811
  114OSM    C9S11860   3.656   0.313  10.275  0.3485  0.5443 -0.2230
  114OSM    H9S11861   3.546   0.303  10.266  0.1960  2.1629 -0.4118
  114OSM    H9T11862   3.690   0.207  10.285 -1.8693 -0.3251 -1.2025
  114OSM   C10S11863   3.714   0.359  10.135  0.2574 -1.1315 -0.4324
  114OSM   H10S11864   3.817   0.397  10.154 -0.2225 -0.6300  1.4390
  114OSM   H10T11865   3.651   0.442  10.097  1.9930  1.2179  1.4751
  114OSM   C11S11866   3.706   0.252  10.032  0.5928 -0.2458  0.2273
  114OSM   H11S11867   3.618   0.189  10.056  0.4673  0.1366  0.7769
  114OSM   H11T11868   3.797   0.189  10.047  1.6139  1.1283 -0.0184
  114OSM   C12S11869   3.703   0.305   9.882 -0.3839  0.6319  0.4754
  114OSM   H12S11870   3.771   0.391   9.867 -0.2099  0.1903 -1.5426
  114OSM   H12T11871   3.602   0.346   9.864 -0.1944  0.1567 -1.9798
  114OSM   C13S11872   3.728   0.205   9.769  0.5480 -0.0380 -0.1829
  114OSM   H13S11873   3.665   0.116   9.793  2.0920 -0.8379  1.1739
  114OSM   H13T11874   3.831   0.167   9.785 -0.1772 -1.2352  2.2601
  114OSM   C14S11875   3.723   0.274   9.633  0.7781  0.8193 -0.0780
  114OSM   H14S11876   3.805   0.346   9.614  0.5257  0.9540 -0.6807
  114OSM   H14T11877   3.623   0.319   9.616  0.0426 -0.2681  1.1662
  114OSM   C15S11878   3.743   0.177   9.516 -0.5472 -0.7629 -0.0026
  114OSM   H15S11879   3.664   0.098   9.520  1.9660 -3.4095  1.9963
  114OSM   H15T11880   3.835   0.115   9.521  1.4424  2.0236 -0.0680
  114OSM   C16S11881   3.732   0.235   9.370  0.0460  0.6945  0.0735
  114OSM   H16S11882   3.813   0.307   9.345  0.2704 -0.2088 -2.0819
  114OSM   H16T11883   3.632   0.284   9.370 -0.3263 -0.0447  0.1736
  114OSM   C17S11884   3.722   0.129   9.257  0.0674  0.4815 -0.7319
  114OSM   H17S11885   3.638   0.064   9.290 -0.0109  1.0413  0.1918
  114OSM   H17T11886   3.819   0.075   9.255  1.1151  2.2337  0.5492
  114OSM   C18S11887   3.696   0.189   9.115 -0.3930  0.9660  0.0328
  114OSM   H18S11888   3.773   0.265   9.090 -0.4431  0.9964 -0.0306
  114OSM   H18T11889   3.594   0.231   9.105 -0.9306  0.2311  1.8257
  114OSM   H18U11890   3.710   0.095   9.058 -1.7745 -0.0156  1.2432
  114OSM    C1F11891   3.155   0.370  10.861 -0.0987 -0.6010 -0.4879
  114OSM     OF11892   3.113   0.447  10.944  0.3123 -0.1613  0.7758
  114OSM    C2F11893   3.069   0.336  10.748 -0.2864 -1.2373  0.3355
  114OSM    H2F11894   3.053   0.227  10.744  0.8425 -1.5529  2.8698
  114OSM    H2G11895   3.119   0.363  10.652 -3.2536 -0.5230 -1.1440
  114OSM    C3F11896   2.939   0.420  10.746  0.0369  0.0448  0.3484
  114OSM    H3F11897   2.972   0.525  10.761 -1.8692  0.9323 -1.1345
  114OSM    H3G11898   2.881   0.393  10.836 -1.2640 -0.3916 -0.5813
  114OSM    C4F11899   2.854   0.417  10.622 -0.4164  0.1962 -0.1513
  114OSM    H4F11900   2.764   0.480  10.630  0.5514  1.4808  1.1171
  114OSM    H4G11901   2.833   0.308  10.611  0.4089 -0.2718  2.3491
  114OSM    C5F11902   2.935   0.471  10.490  0.2013  0.0337 -0.0499
  114OSM    H5F11903   3.022   0.402  10.478  0.6162  0.5298  0.0751
  114OSM    H5G11904   2.982   0.569  10.512 -3.4097  1.2929  3.1698
  114OSM    C6F11905   2.835   0.474  10.373 -0.4683 -0.4279 -1.4551
  114OSM    H6F11906   2.757   0.549  10.400  0.4175 -0.0667  0.1957
  114OSM    H6G11907   2.781   0.377  10.374 -0.9410 -0.2054  0.8714
  114OSM    C7F11908   2.903   0.511  10.240  0.3466 -0.1701  0.4412
  114OSM    H7F11909   2.960   0.424  10.202  0.3608 -1.0215  2.3239
  114OSM    H7G11910   2.969   0.599  10.256  0.3360 -0.3555  1.5785
  114OSM    C8F11911   2.793   0.536  10.132  0.0202 -1.6229  0.7821
  114OSM    H8F11912   2.851   0.595  10.057  0.6007 -0.4768  2.0716
  114OSM    H8G11913   2.721   0.616  10.161  0.0586  0.2696 -3.5572
  114OSM    C9F11914   2.715   0.425  10.067  0.4413  0.2925 -0.2127
  114OSM    H9F11915   2.669   0.352  10.135 -1.0014  0.5269 -0.8861
  114OSM   C10F11916   2.699   0.395   9.940  0.4356  0.3343  0.3925
  114OSM   H10F11917   2.639   0.310   9.905  0.8328  0.2534 -0.0803
  114OSM   C11F11918   2.758   0.466   9.821  0.8805  0.2065 -0.0781
  114OSM   H11F11919   2.865   0.485   9.844  0.0637  1.5350  3.2239
  114OSM   H11G11920   2.709   0.561   9.790 -0.5267  0.1230  1.7018
  114OSM   C12F11921   2.757   0.380   9.691  0.8346  0.1614 -0.4625
  114OSM   H12F11922   2.658   0.351   9.650 -0.0922  1.2900  0.8831
  114OSM   H12G11923   2.822   0.292   9.708 -3.8343 -2.9862  4.2156
  114OSM   C13F11924   2.819   0.464   9.573 -0.0866 -0.1314  0.3394
  114OSM   H13F11925   2.926   0.482   9.597  0.7632 -0.1477 -3.0257
  114OSM   H13G11926   2.761   0.558   9.561  0.4632  0.1581 -0.0653
  114OSM   C14F11927   2.823   0.372   9.452  0.5839  0.4532  0.1830
  114OSM   H14F11928   2.718   0.348   9.424  0.6193  0.6105 -0.0938
  114OSM   H14G11929   2.859   0.270   9.478 -1.1116 -0.4810 -0.9502
  114OSM   C15F11930   2.892   0.433   9.328  0.4238  0.3244 -0.5007
  114OSM   H15F11931   3.001   0.430   9.353 -0.0172 -1.8826  1.4944
  114OSM   H15G11932   2.860   0.539   9.318 -1.3962  0.0105  1.2855
  114OSM   C16F11933   2.870   0.354   9.199  0.5570  0.2123 -0.1401
  114OSM   H16F11934   2.860   0.249   9.236 -0.4131  0.2093 -0.3804
  114OSM   H16G11935   2.957   0.357   9.130 -0.7928  0.6165 -1.9058
  114OSM   C17F11936   2.734   0.389   9.128 -0.0815 -0.2025 -0.0864
  114OSM   H17F11937   2.665   0.375   9.214 -0.1810  1.3786  0.1199
  114OSM   H17G11938   2.718   0.309   9.053 -2.5888 -0.2476  0.3948
  114OSM   C18F11939   2.727   0.536   9.078  0.0440  0.3549 -0.3427
  114OSM   H18F11940   2.628   0.560   9.033  1.0064  1.8937 -1.7738
  114OSM   H18G11941   2.812   0.539   9.006  0.7288 -1.2089  0.3683
  114OSM   H18H11942   2.752   0.611   9.156  1.4318 -1.5087  1.1043
  115OSM      N11943   3.285   2.467   5.900 -0.3845  0.3285 -0.3627
  115OSM    C1511944   3.157   2.410   5.865  0.0713 -0.1200 -0.2166
  115OSM   H15A11945   3.133   2.414   5.759  0.4926 -1.5611 -0.3852
  115OSM   H15B11946   3.067   2.449   5.910 -0.9476 -1.7989 -0.6791
  115OSM   H15C11947   3.161   2.310   5.905 -0.4107  0.8006  2.2880
  115OSM    C1411948   3.385   2.416   5.808 -0.3719  0.3269  0.1715
  115OSM   H14A11949   3.488   2.437   5.832 -0.5257  1.1937  0.0820
  115OSM   H14B11950   3.366   2.452   5.708  3.4462 -1.4182 -1.4126
  115OSM   H14C11951   3.376   2.310   5.790 -0.3927  0.3047  0.3151
  115OSM    C1311952   3.283   2.616   5.885  0.8532 -0.3675  0.3955
  115OSM   H13A11953   3.234   2.666   5.967  1.9230 -1.0530  1.4761
  115OSM   H13B11954   3.228   2.641   5.796 -0.1972  1.1426  1.4171
  115OSM   H13C11955   3.382   2.656   5.897  0.1578  1.2993  0.9230
  115OSM    C1211956   3.319   2.432   6.050 -0.1054 -0.3621  0.3985
  115OSM   H12A11957   3.414   2.475   6.078  0.4529 -1.1349 -0.2604
  115OSM   H12B11958   3.337   2.326   6.065 -1.4558 -0.4192  1.9161
  115OSM    C1111959   3.211   2.466   6.153 -0.0212  0.1207 -0.2317
  115OSM   H11A11960   3.234   2.418   6.251 -0.7751 -0.3504 -0.2769
  115OSM   H11B11961   3.114   2.423   6.118 -1.6802  1.6969  2.1055
  115OSM      P11962   3.310   2.679   6.241 -0.4540  0.1317  0.1356
  115OSM    O1311963   3.443   2.663   6.177  0.8640 -0.1099  0.2889
  115OSM    O1411964   3.262   2.810   6.278 -0.7108 -0.4110 -0.7441
  115OSM    O1111965   3.314   2.591   6.377  0.2274 -0.1642 -0.4272
  115OSM    O1211966   3.192   2.604   6.160  0.5873  0.1095 -0.1852
  115OSM    C1S11967   3.198   2.595   6.461 -0.0197  0.4693  0.6983
  115OSM    H1S11968   3.116   2.533   6.417  1.2149  0.1714 -1.3234
  115OSM    H1T11969   3.161   2.699   6.465  1.4173  1.0755 -0.7446
  115OSM     NF11970   3.119   2.546   6.690  0.8135 -0.6130  0.3673
  115OSM    HNF11971   3.115   2.632   6.741 -0.0118  0.3523 -1.2381
  115OSM    C2S11972   3.230   2.548   6.600 -0.1306 -0.1150 -0.6292
  115OSM    H2S11973   3.261   2.442   6.590 -0.9089 -0.1456 -3.8682
  115OSM    C3S11974   3.346   2.639   6.667  0.3637  0.4999  1.4368
  115OSM    H3S11975   3.303   2.738   6.693  1.7868  0.7680  2.9316
  115OSM     O311976   3.459   2.668   6.583  0.3046  0.4018  0.2562
  115OSM    HO311977   3.430   2.659   6.492  0.9773  1.0432 -0.0273
  115OSM    C4S11978   3.406   2.584   6.789 -0.9300  0.1178  0.2408
  115OSM    H4S11979   3.469   2.498   6.761 -0.0707  0.9118 -0.3081
  115OSM    C5S11980   3.391   2.617   6.918 -0.0895  0.1499 -0.1036
  115OSM    H5S11981   3.335   2.710   6.934  0.0226  0.2492 -0.2872
  115OSM    C6S11982   3.464   2.556   7.044  0.3787 -0.4686 -0.2021
  115OSM    H6S11983   3.422   2.455   7.060 -0.9535 -0.1309 -1.3431
  115OSM    H6T11984   3.427   2.619   7.128 -1.5025 -1.6586 -0.1049
  115OSM    C7S11985   3.618   2.563   7.040  0.1440 -0.1264 -0.1355
  115OSM    H7S11986   3.651   2.664   7.073  0.1975 -0.2568  0.2159
  115OSM    H7T11987   3.651   2.531   6.939 -0.7551 -3.2528  0.4336
  115OSM    C8S11988   3.680   2.467   7.139 -0.5657  0.1194  0.5416
  115OSM    H8S11989   3.784   2.474   7.100 -0.2088  1.9964  1.6497
  115OSM    H8T11990   3.663   2.358   7.131  2.6408 -0.3463 -2.0824
  115OSM    C9S11991   3.702   2.516   7.286  0.3618 -0.4208  0.4617
  115OSM    H9S11992   3.601   2.547   7.320 -0.2569 -2.2868  0.4630
  115OSM    H9T11993   3.772   2.602   7.283  1.0120 -0.8468  2.2776
  115OSM   C10S11994   3.753   2.401   7.375 -0.0962 -0.3925 -0.2894
  115OSM   H10S11995   3.857   2.374   7.350  0.5289 -0.8395  2.4097
  115OSM   H10T11996   3.701   2.307   7.348  1.1516 -1.3308  0.4624
  115OSM   C11S11997   3.751   2.424   7.528  0.3310  0.0017  0.0889
  115OSM   H11S11998   3.651   2.457   7.563  0.4645 -0.5236  0.9956
  115OSM   H11T11999   3.829   2.498   7.557 -0.7965  0.9279  0.8321
  115OSM   C12S12000   3.777   2.293   7.600  0.0856 -0.5095  0.1690
  115OSM   H12S12001   3.874   2.253   7.566 -0.2818 -1.8653  0.6215
  115OSM   H12T12002   3.711   2.208   7.571  1.7754 -1.9184  0.2963
  115OSM   C13S12003   3.773   2.323   7.749  0.1711 -0.1989  0.4176
  115OSM   H13S12004   3.676   2.367   7.779  1.1604  1.7065  0.9869
  115OSM   H13T12005   3.844   2.406   7.770 -2.1705  1.5190  1.9934
  115OSM   C14S12006   3.803   2.205   7.844 -0.0938 -0.6221 -0.3925
  115OSM   H14S12007   3.799   2.247   7.947  2.1496 -1.9445  0.3101
  115OSM   H14T12008   3.898   2.152   7.826 -1.2326 -2.1099 -2.3630
  115OSM   C15S12009   3.701   2.101   7.843  0.5190  0.5052  0.2422
  115OSM   H15S12010   3.703   2.054   7.743  2.1390  1.8526 -0.4040
  115OSM   H15T12011   3.599   2.145   7.852 -0.0555 -0.9774  1.6055
  115OSM   C16S12012   3.725   1.976   7.942  1.2133 -1.2808  0.4827
  115OSM   H16S12013   3.805   1.914   7.895  1.4758  0.7914 -2.0724
  115OSM   H16T12014   3.632   1.915   7.941  0.6920 -0.5010  0.5811
  115OSM   C17S12015   3.764   2.010   8.088 -0.1093  0.1993  0.2146
  115OSM   H17S12016   3.714   2.097   8.136 -1.0345 -0.0050 -0.3382
  115OSM   H17T12017   3.868   2.049   8.085  0.8289 -1.9801  2.1126
  115OSM   C18S12018   3.744   1.895   8.183  0.1454  0.5478 -0.6518
  115OSM   H18S12019   3.635   1.876   8.186  0.7100 -3.3052  1.3706
  115OSM   H18T12020   3.757   1.928   8.289 -3.3718 -0.1159  0.1200
  115OSM   H18U12021   3.800   1.802   8.159  1.0361 -0.0878  3.1619
  115OSM    C1F12022   3.015   2.465   6.690  0.1226 -0.6416  0.3321
  115OSM     OF12023   3.019   2.365   6.621  0.1541  0.4657  0.3532
  115OSM    C2F12024   2.900   2.507   6.777 -0.5996 -0.0978 -0.1988
  115OSM    H2F12025   2.806   2.469   6.733 -0.8260 -0.0472  0.2377
  115OSM    H2G12026   2.897   2.618   6.788  0.6751 -0.0433 -0.2251
  115OSM    C3F12027   2.912   2.448   6.915  0.3511  0.2296 -0.1774
  115OSM    H3F12028   3.010   2.473   6.961  0.7060 -1.1526 -0.1399
  115OSM    H3G12029   2.901   2.338   6.919 -1.7414  0.4405  2.2588
  115OSM    C4F12030   2.805   2.508   7.007  0.2063 -1.1340 -0.8846
  115OSM    H4F12031   2.702   2.506   6.966 -0.3769  0.4702  0.4179
  115OSM    H4G12032   2.832   2.615   7.014 -1.5718 -0.6086 -1.6709
  115OSM    C5F12033   2.810   2.449   7.144  0.2418  0.4407  0.5138
  115OSM    H5F12034   2.917   2.439   7.171 -0.0872 -1.9097  1.0846
  115OSM    H5G12035   2.785   2.341   7.139  0.5669  0.4006 -0.5853
  115OSM    C6F12036   2.733   2.521   7.253  0.4610  0.2112 -0.6974
  115OSM    H6F12037   2.628   2.541   7.223  0.1081 -1.6771 -0.8175
  115OSM    H6G12038   2.774   2.624   7.263 -0.8598  0.9231 -2.2058
  115OSM    C7F12039   2.736   2.453   7.397 -0.5095  0.6697  0.3869
  115OSM    H7F12040   2.844   2.450   7.421 -0.2146 -2.0852 -0.9018
  115OSM    H7G12041   2.719   2.344   7.380 -0.3592  0.9773 -2.0627
  115OSM    C8F12042   2.642   2.511   7.503  0.4890  0.6595  0.6566
  115OSM    H8F12043   2.599   2.593   7.442  4.9897  2.2880 -0.7859
  115OSM    H8G12044   2.709   2.562   7.576  0.2554 -0.3101  1.5798
  115OSM    C9F12045   2.551   2.412   7.575  0.5229 -0.4640  0.8923
  115OSM    H9F12046   2.457   2.391   7.523 -0.1593  1.1866  1.3818
  115OSM   C10F12047   2.586   2.355   7.689 -0.3413 -1.0857 -0.4977
  115OSM   H10F12048   2.512   2.289   7.736  0.4276 -3.5151 -2.4574
  115OSM   C11F12049   2.719   2.369   7.757 -0.1907 -0.2707 -0.2134
  115OSM   H11F12050   2.747   2.475   7.773  1.5887 -0.9917  1.8982
  115OSM   H11G12051   2.797   2.330   7.688  0.4102 -0.2592  0.4564
  115OSM   C12F12052   2.731   2.300   7.897 -0.4083 -0.2341 -0.2772
  115OSM   H12F12053   2.725   2.192   7.869 -0.9243 -0.2935  0.0432
  115OSM   H12G12054   2.639   2.317   7.957 -0.0616  0.3639  0.0786
  115OSM   C13F12055   2.860   2.325   7.968 -0.2245  0.1525  0.8719
  115OSM   H13F12056   2.871   2.436   7.974 -0.1242  0.0972  1.8850
  115OSM   H13G12057   2.939   2.281   7.904  0.3295  0.4292  1.3587
  115OSM   C14F12058   2.875   2.270   8.105  0.4715  0.3572 -0.5606
  115OSM   H14F12059   2.861   2.160   8.102  1.6578  0.2076 -1.4473
  115OSM   H14G12060   2.804   2.315   8.178  0.0307 -0.6788 -0.3323
  115OSM   C15F12061   3.018   2.293   8.173  0.6925  0.2608 -0.2338
  115OSM   H15F12062   3.046   2.400   8.171 -0.3135  0.5204 -1.1812
  115OSM   H15G12063   3.101   2.253   8.110 -0.2446 -1.6503 -0.3114
  115OSM   C16F12064   3.050   2.236   8.311 -0.0807 -0.5255 -0.2025
  115OSM   H16F12065   2.989   2.297   8.381  3.0447  1.8335  0.7044
  115OSM   H16G12066   3.156   2.264   8.328 -0.0467 -1.1268  0.6375
  115OSM   C17F12067   3.033   2.088   8.321  0.0759 -0.5443  0.1892
  115OSM   H17F12068   3.083   2.056   8.227 -0.3812 -0.2143 -0.1695
  115OSM   H17G12069   2.924   2.065   8.317 -0.1727 -0.1991  3.0458
  115OSM   C18F12070   3.106   2.022   8.438  0.0419  0.5473  0.1012
  115OSM   H18F12071   3.168   1.942   8.392 -0.0984  1.7291 -2.3031
  115OSM   H18G12072   3.035   1.973   8.509  0.6133  1.3680  1.2822
  115OSM   H18H12073   3.168   2.086   8.505  1.6521 -2.2744  1.4812
  116OSM      N12074   4.205   1.486   6.014  0.1363  0.1055  0.4399
  116OSM    C1512075   4.351   1.498   6.035 -0.7598 -0.2551  0.0953
  116OSM   H15A12076   4.400   1.446   5.954 -1.0792  0.4015 -0.5357
  116OSM   H15B12077   4.384   1.455   6.129 -0.5021  0.5404  0.3772
  116OSM   H15C12078   4.386   1.600   6.029  0.7243 -0.6580  1.2536
  116OSM    C1412079   4.121   1.565   6.104  0.0326 -0.1410  0.4056
  116OSM   H14A12080   4.146   1.534   6.205 -0.3840  0.5086  0.7116
  116OSM   H14B12081   4.014   1.558   6.088 -0.0886  1.4886  0.3196
  116OSM   H14C12082   4.141   1.670   6.120 -2.3109  0.4927 -0.3814
  116OSM    C1312083   4.165   1.511   5.870 -0.5502 -0.0932 -0.2102
  116OSM   H13A12084   4.222   1.445   5.806 -0.6429  1.2522 -1.7361
  116OSM   H13B12085   4.177   1.612   5.835 -0.9807 -0.1034 -0.3949
  116OSM   H13C12086   4.061   1.481   5.861 -0.1480 -1.5126 -0.4510
  116OSM    C1212087   4.172   1.344   6.048  0.5219  0.1304  0.5027
  116OSM   H12A12088   4.229   1.271   5.992  1.2476  1.2484 -0.2622
  116OSM   H12B12089   4.071   1.323   6.015  0.0752  0.4256  1.6651
  116OSM    C1112090   4.178   1.302   6.202 -0.5937 -0.8133  0.6646
  116OSM   H11A12091   4.158   1.194   6.217 -0.9244 -0.6221  1.6636
  116OSM   H11B12092   4.090   1.354   6.246 -0.4729 -0.1021  0.0885
  116OSM      P12093   4.396   1.236   6.330  0.1869 -0.7569 -0.1622
  116OSM    O1312094   4.436   1.141   6.227  0.2902  0.1679  0.3494
  116OSM    O1412095   4.512   1.302   6.396 -0.1130 -0.8647  0.3424
  116OSM    O1112096   4.310   1.172   6.439 -0.5728  0.4004 -0.1436
  116OSM    O1212097   4.305   1.344   6.263  0.5100  0.7019  0.7813
  116OSM    C1S12098   4.354   1.040   6.488  0.8132 -0.1769  0.5579
  116OSM    H1S12099   4.457   1.044   6.529  1.5369  1.5298 -1.2484
  116OSM    H1T12100   4.351   0.969   6.402 -0.1464  1.3640 -0.7400
  116OSM     NF12101   4.333   0.860   6.658  0.3626 -0.9962  0.3967
  116OSM    HNF12102   4.298   0.777   6.616 -0.2902 -0.3290 -0.4040
  116OSM    C2S12103   4.270   0.981   6.596  0.4674  0.2224  0.4231
  116OSM    H2S12104   4.262   1.061   6.672 -0.4499  0.9373 -0.3936
  116OSM    C3S12105   4.114   0.958   6.549 -0.8150  0.9576 -0.1372
  116OSM    H3S12106   4.117   0.869   6.482  0.3868 -0.0856  1.2397
  116OSM     O312107   4.055   1.056   6.469 -0.6088 -0.3579  0.1351
  116OSM    HO312108   4.134   1.111   6.462 -0.8743 -0.0404 -0.4013
  116OSM    C4S12109   4.026   0.929   6.673 -0.2604 -0.8560 -0.3800
  116OSM    H4S12110   4.023   0.823   6.703 -0.6525 -0.3631  1.4502
  116OSM    C5S12111   3.947   1.012   6.751  0.3853  0.0282  0.1110
  116OSM    H5S12112   3.946   1.121   6.735  0.5322  0.0987  0.5635
  116OSM    C6S12113   3.877   0.977   6.878  0.3118 -0.3471 -0.2350
  116OSM    H6S12114   3.771   1.012   6.873  0.7307  0.7596 -1.8801
  116OSM    H6T12115   3.930   1.038   6.954  1.9018 -2.3551  0.3512
  116OSM    C7S12116   3.877   0.834   6.940  0.1378  0.2574  0.3496
  116OSM    H7S12117   3.980   0.792   6.933 -0.9759 -2.6096  0.0437
  116OSM    H7T12118   3.815   0.768   6.876  1.3537  1.1568 -1.8449
  116OSM    C8S12119   3.829   0.816   7.084 -0.3377  0.0103  0.7552
  116OSM    H8S12120   3.736   0.868   7.112 -1.4167 -1.2642 -0.3022
  116OSM    H8T12121   3.908   0.862   7.147  1.4697 -0.5388 -0.9907
  116OSM    C9S12122   3.812   0.669   7.134 -0.5375 -0.6243  0.7330
  116OSM    H9S12123   3.910   0.624   7.109 -0.8362 -0.1489 -1.5664
  116OSM    H9T12124   3.733   0.611   7.081 -2.3485  2.1591  0.1841
  116OSM   C10S12125   3.784   0.670   7.287  0.2231 -0.0184 -0.2363
  116OSM   H10S12126   3.881   0.704   7.329  0.2588 -0.6922  0.2320
  116OSM   H10T12127   3.755   0.567   7.313 -3.0216  0.5862 -1.0455
  116OSM   C11S12128   3.672   0.763   7.338  0.6345  0.0873  0.3176
  116OSM   H11S12129   3.581   0.745   7.276  2.6211 -2.1493 -2.1973
  116OSM   H11T12130   3.696   0.871   7.324 -0.6760  0.1916 -1.6255
  116OSM   C12S12131   3.625   0.748   7.487 -0.2217  0.4637  0.2956
  116OSM   H12S12132   3.590   0.645   7.510 -0.3333  0.1389 -1.2712
  116OSM   H12T12133   3.557   0.831   7.519 -0.8510 -0.4027  1.2682
  116OSM   C13S12134   3.753   0.766   7.578  0.1397 -0.7471  0.0901
  116OSM   H13S12135   3.799   0.863   7.551  0.6705 -0.5689  1.5515
  116OSM   H13T12136   3.833   0.697   7.544 -0.0262  0.1737 -2.3195
  116OSM   C14S12137   3.737   0.753   7.730  0.3601  0.2152 -0.9326
  116OSM   H14S12138   3.834   0.761   7.784 -0.4457 -0.3017  0.6742
  116OSM   H14T12139   3.698   0.653   7.755 -0.8956  0.1973 -2.7513
  116OSM   C15S12140   3.642   0.862   7.780  0.4311  0.2501  0.2924
  116OSM   H15S12141   3.536   0.851   7.746  0.4620  0.5637  0.0889
  116OSM   H15T12142   3.664   0.960   7.732  1.0906  0.0553  0.1885
  116OSM   C16S12143   3.657   0.889   7.936 -0.1778 -0.0344  0.0772
  116OSM   H16S12144   3.763   0.916   7.960  0.3729 -0.9067 -1.2495
  116OSM   H16T12145   3.641   0.790   7.984  0.6730 -0.7764 -1.1047
  116OSM   C17S12146   3.555   0.985   8.001 -0.6578 -0.3540 -0.0304
  116OSM   H17S12147   3.574   1.087   7.963 -1.9555 -0.6760 -1.6734
  116OSM   H17T12148   3.572   0.980   8.111 -2.5476 -1.7333  0.2619
  116OSM   C18S12149   3.402   0.942   7.988 -0.4508  0.3140  0.9206
  116OSM   H18S12150   3.331   1.026   7.994 -0.0442  0.7541 -0.2931
  116OSM   H18T12151   3.401   0.853   8.056  1.9287 -0.3825  0.1455
  116OSM   H18U12152   3.375   0.896   7.891 -2.8479 -0.1502  1.7338
  116OSM    C1F12153   4.444   0.848   6.731 -0.5031 -0.4125 -0.4955
  116OSM     OF12154   4.531   0.932   6.754  0.2533 -0.3503 -0.2426
  116OSM    C2F12155   4.469   0.704   6.761  0.4852 -0.5737  0.0103
  116OSM    H2F12156   4.494   0.647   6.669  1.3345 -0.2694  0.0397
  116OSM    H2G12157   4.376   0.668   6.810  1.7443  0.0070  3.0629
  116OSM    C3F12158   4.585   0.683   6.867 -0.0721  0.4103 -0.7155
  116OSM    H3F12159   4.682   0.716   6.825  1.0676 -2.0248 -0.1649
  116OSM    H3G12160   4.607   0.575   6.879  1.2406  0.8774  2.0071
  116OSM    C4F12161   4.545   0.739   7.010  0.3323  0.4331  1.0201
  116OSM    H4F12162   4.438   0.718   7.026  0.4309 -0.7869  0.2301
  116OSM    H4G12163   4.554   0.850   7.009 -1.5717  0.6509 -0.9400
  116OSM    C5F12164   4.631   0.674   7.118 -0.5116 -0.2097  0.6849
  116OSM    H5F12165   4.736   0.691   7.087 -0.6052 -0.1578  0.3989
  116OSM    H5G12166   4.609   0.565   7.128  5.7504 -1.9764 -0.0196
  116OSM    C6F12167   4.618   0.745   7.250  0.0596  0.3448  0.1714
  116OSM    H6F12168   4.512   0.773   7.265 -0.2225  0.4637 -1.7068
  116OSM    H6G12169   4.659   0.848   7.239  0.2478  0.0806 -2.4015
  116OSM    C7F12170   4.675   0.668   7.368 -0.9689  0.0666 -0.4260
  116OSM    H7F12171   4.779   0.641   7.339 -1.6993 -3.8433  0.0717
  116OSM    H7G12172   4.621   0.572   7.382 -0.0949 -0.1712  1.7412
  116OSM    C8F12173   4.669   0.759   7.492 -0.5582  0.6019 -0.0987
  116OSM    H8F12174   4.732   0.846   7.466 -1.2228  0.7021 -1.4346
  116OSM    H8G12175   4.718   0.709   7.579 -0.3413 -0.6791 -0.9210
  116OSM    C9F12176   4.529   0.799   7.529  0.4141 -0.0071  0.2269
  116OSM    H9F12177   4.472   0.869   7.466  1.5130 -0.3795 -1.2233
  116OSM   C10F12178   4.464   0.767   7.648  0.1417 -0.4654  0.0086
  116OSM   H10F12179   4.361   0.802   7.664  0.2466 -0.4978  0.8124
  116OSM   C11F12180   4.517   0.681   7.769 -0.6761 -0.3158  0.3380
  116OSM   H11F12181   4.576   0.594   7.733 -0.3843  0.5429 -1.3760
  116OSM   H11G12182   4.431   0.640   7.826  0.2077 -1.5815  0.8251
  116OSM   C12F12183   4.595   0.769   7.862 -0.0935  0.4271 -0.4330
  116OSM   H12F12184   4.541   0.865   7.875 -0.8682 -0.0941  0.2773
  116OSM   H12G12185   4.693   0.786   7.812  0.4056 -1.5552 -0.2181
  116OSM   C13F12186   4.620   0.708   8.001  0.4838 -0.0252  0.0771
  116OSM   H13F12187   4.669   0.608   7.998  0.2409 -0.1546  0.3750
  116OSM   H13G12188   4.521   0.688   8.048  0.8752  0.4528  1.1319
  116OSM   C14F12189   4.699   0.804   8.093  0.3633  0.0437 -0.4755
  116OSM   H14F12190   4.644   0.899   8.110  0.5367  0.0601  0.0238
  116OSM   H14G12191   4.792   0.824   8.035  0.6839  0.0298  0.0247
  116OSM   C15F12192   4.742   0.740   8.227 -0.4528  0.5362 -0.9815
  116OSM   H15F12193   4.833   0.777   8.280 -0.7429 -3.2739  2.7659
  116OSM   H15G12194   4.776   0.636   8.211 -1.1252  0.0112  0.7573
  116OSM   C16F12195   4.633   0.734   8.335 -0.5907  0.9492 -0.2826
  116OSM   H16F12196   4.558   0.658   8.304  0.3232  0.1533 -0.5916
  116OSM   H16G12197   4.581   0.832   8.337 -0.4559  1.0616 -1.5658
  116OSM   C17F12198   4.691   0.702   8.470 -0.6887  0.7196 -0.0480
  116OSM   H17F12199   4.778   0.767   8.495 -0.7368 -0.1514  2.6798
  116OSM   H17G12200   4.731   0.599   8.476 -5.0282 -1.1274  1.2639
  116OSM   C18F12201   4.587   0.721   8.578 -0.2409 -0.1325  0.3686
  116OSM   H18F12202   4.624   0.705   8.681  1.6337  3.0222  0.3110
  116OSM   H18G12203   4.504   0.647   8.567  1.2109 -1.9457  0.9984
  116OSM   H18H12204   4.551   0.825   8.572 -0.0767 -0.0016  1.5236
  117OSM      N12205   2.990   3.731   6.149  0.2400  0.4731 -0.1795
  117OSM    C1512206   3.069   3.812   6.245  0.0969 -0.1600 -0.8319
  117OSM   H15A12207   3.011   3.845   6.330  0.5172  0.9431 -0.9536
  117OSM   H15B12208   3.092   3.904   6.194  1.7184 -0.2690 -0.3447
  117OSM   H15C12209   3.159   3.771   6.287  0.6740  2.2652  0.4536
  117OSM    C1412210   2.884   3.817   6.090  0.1762 -0.7030 -0.2200
  117OSM   H14A12211   2.914   3.921   6.098 -0.6545 -0.3805 -1.0802
  117OSM   H14B12212   2.801   3.813   6.158  0.2405  4.2603  0.5781
  117OSM   H14C12213   2.858   3.792   5.989  0.7569  0.6198 -0.7347
  117OSM    C1312214   3.083   3.689   6.039 -0.6671 -0.0102 -0.1632
  117OSM   H13A12215   3.107   3.770   5.972  1.8399  1.0262  1.8265
  117OSM   H13B12216   3.013   3.626   5.985 -0.4797 -0.2124 -0.1695
  117OSM   H13C12217   3.167   3.631   6.075 -1.8880  0.3330  3.6635
  117OSM    C1212218   2.938   3.606   6.212 -0.8332  0.3548 -0.0972
  117OSM   H12A12219   3.012   3.581   6.287 -0.1090  1.7042 -0.3271
  117OSM   H12B12220   2.930   3.524   6.142 -0.1362 -0.2769  0.5406
  117OSM    C1112221   2.800   3.615   6.271 -0.4016 -0.0768  0.4639
  117OSM   H11A12222   2.766   3.510   6.286 -1.8548  0.0733 -1.5228
  117OSM   H11B12223   2.723   3.652   6.201 -0.7746 -2.4609 -0.4911
  117OSM      P12224   2.690   3.770   6.451  0.1215 -0.2816  0.3795
  117OSM    O1312225   2.742   3.816   6.582  0.1831  0.5832  0.3315
  117OSM    O1412226   2.653   3.880   6.356  0.1391 -0.7086 -0.2634
  117OSM    O1112227   2.567   3.671   6.483 -0.4352  0.2579 -0.7884
  117OSM    O1212228   2.808   3.693   6.392 -0.3707  0.7062  0.3848
  117OSM    C1S12229   2.587   3.564   6.572  0.1146  1.0358  0.3934
  117OSM    H1S12230   2.692   3.526   6.568 -0.7410 -1.5740  0.8395
  117OSM    H1T12231   2.518   3.484   6.539 -1.3780  2.5568 -0.3565
  117OSM     NF12232   2.568   3.481   6.802 -0.2287  0.2250 -0.2800
  117OSM    HNF12233   2.501   3.407   6.810  0.8132 -0.5293  3.0160
  117OSM    C2S12234   2.543   3.590   6.713 -0.2245 -0.4724  0.5552
  117OSM    H2S12235   2.604   3.674   6.753  1.5119 -1.1834 -0.5007
  117OSM    C3S12236   2.404   3.649   6.710 -0.1646  0.5383  0.3835
  117OSM    H3S12237   2.332   3.581   6.659  2.1186 -1.1883 -0.6958
  117OSM     O312238   2.385   3.777   6.641 -0.2936 -0.3812  0.0002
  117OSM    HO312239   2.467   3.809   6.602 -0.0469 -0.6703  0.2767
  117OSM    C4S12240   2.343   3.655   6.848 -0.2637 -0.0919  0.0701
  117OSM    H4S12241   2.299   3.558   6.877  1.0359 -0.4351  0.9350
  117OSM    C5S12242   2.334   3.757   6.932  0.1024  0.4955 -0.2226
  117OSM    H5S12243   2.368   3.859   6.906 -0.4572  1.4366  2.4078
  117OSM    C6S12244   2.269   3.751   7.068 -0.4688  0.2527  0.1047
  117OSM    H6S12245   2.187   3.826   7.077 -0.5640  0.1403  0.1780
  117OSM    H6T12246   2.347   3.784   7.141 -0.1338 -0.2084 -0.0414
  117OSM    C7S12247   2.197   3.623   7.120 -0.1443  0.5699 -0.0257
  117OSM    H7S12248   2.274   3.543   7.127 -1.4880 -0.7285  0.4192
  117OSM    H7T12249   2.121   3.586   7.049 -0.6780  2.4492 -0.4876
  117OSM    C8S12250   2.132   3.636   7.260  0.7888  0.1949  0.0436
  117OSM    H8S12251   2.069   3.545   7.273  2.2538 -1.0624 -1.2637
  117OSM    H8T12252   2.056   3.717   7.265  0.8827  0.2636  0.3393
  117OSM    C9S12253   2.228   3.642   7.376  0.3995 -0.3725 -0.2512
  117OSM    H9S12254   2.295   3.731   7.372 -1.2985  0.9215 -1.6861
  117OSM    H9T12255   2.297   3.556   7.361  0.2539 -0.3402 -1.1797
  117OSM   C10S12256   2.170   3.618   7.517  0.1325  0.5092  0.1582
  117OSM   H10S12257   2.252   3.597   7.589  1.8694  0.6405 -1.7050
  117OSM   H10T12258   2.115   3.523   7.503  0.7977  0.1830 -0.2392
  117OSM   C11S12259   2.068   3.718   7.556 -0.1620 -0.1059 -0.0962
  117OSM   H11S12260   1.989   3.723   7.477  1.9904 -1.3866 -2.4962
  117OSM   H11T12261   2.110   3.821   7.553  1.3470 -0.7248 -1.5691
  117OSM   C12S12262   2.012   3.698   7.695  0.0317 -0.5795 -0.5091
  117OSM   H12S12263   1.983   3.591   7.702 -0.5613 -0.4307 -0.6068
  117OSM   H12T12264   1.924   3.766   7.701  1.4223  1.4631 -1.6759
  117OSM   C13S12265   2.095   3.709   7.813 -0.1916 -0.6208  0.0265
  117OSM   H13S12266   2.136   3.810   7.839  0.3280 -1.1894  1.5056
  117OSM   H13T12267   2.192   3.655   7.811  1.2904  1.8025  1.2493
  117OSM   C14S12268   2.023   3.667   7.941  0.4891  0.2909  0.0019
  117OSM   H14S12269   2.007   3.557   7.937 -2.4842  0.6585 -0.7516
  117OSM   H14T12270   1.931   3.728   7.926 -1.3408 -2.0272  1.1257
  117OSM   C15S12271   2.086   3.715   8.069 -0.4396  0.2833 -0.3952
  117OSM   H15S12272   2.120   3.821   8.081 -0.6105  0.0716  2.8026
  117OSM   H15T12273   2.178   3.655   8.086 -0.6736 -0.0484 -0.3074
  117OSM   C16S12274   2.000   3.691   8.195  0.1515 -0.1851 -0.5322
  117OSM   H16S12275   1.991   3.581   8.209 -1.6424  0.0890  0.9819
  117OSM   H16T12276   1.896   3.729   8.180  0.9531  2.8725  0.8484
  117OSM   C17S12277   2.053   3.744   8.326  0.7484 -0.6467  0.4326
  117OSM   H17S12278   1.978   3.733   8.408  0.5975  0.8872  0.5456
  117OSM   H17T12279   2.067   3.852   8.300 -0.7995 -0.6055 -0.4206
  117OSM   C18S12280   2.186   3.680   8.375 -0.7899  0.1995 -0.2487
  117OSM   H18S12281   2.212   3.716   8.477 -2.1199  0.1321  0.1281
  117OSM   H18T12282   2.261   3.711   8.299 -1.5732  0.7249 -0.8254
  117OSM   H18U12283   2.180   3.570   8.370  0.5152  0.1049 -0.1212
  117OSM    C1F12284   2.687   3.443   6.847  0.2126  0.5715 -0.4404
  117OSM     OF12285   2.786   3.511   6.815  0.0519 -0.0376 -0.6713
  117OSM    C2F12286   2.687   3.321   6.939  0.3089 -0.0888  0.4661
  117OSM    H2F12287   2.671   3.229   6.879  0.1581 -0.8301  1.6142
  117OSM    H2G12288   2.601   3.328   7.009 -0.4822  1.0939 -0.5818
  117OSM    C3F12289   2.808   3.310   7.022  0.1028  0.4041  0.2087
  117OSM    H3F12290   2.811   3.377   7.110  2.3350 -2.3530  2.3960
  117OSM    H3G12291   2.892   3.322   6.950 -1.1869  2.6042 -1.0639
  117OSM    C4F12292   2.811   3.175   7.107  0.3261 -0.9954 -0.5272
  117OSM    H4F12293   2.906   3.120   7.093  1.1295  0.0706  0.5621
  117OSM    H4G12294   2.722   3.116   7.077  0.1379 -0.0692 -1.8593
  117OSM    C5F12295   2.795   3.204   7.260  0.5250 -0.2565  0.5356
  117OSM    H5F12296   2.703   3.262   7.281  2.6088  3.4025  0.4220
  117OSM    H5G12297   2.871   3.280   7.290  1.2328 -1.0546  0.7973
  117OSM    C6F12298   2.819   3.081   7.354  0.2416 -0.0153  0.0737
  117OSM    H6F12299   2.922   3.041   7.350  0.9286  1.7680 -1.2350
  117OSM    H6G12300   2.756   2.998   7.315 -0.4324  0.9347 -0.9371
  117OSM    C7F12301   2.785   3.106   7.500  0.3929 -0.2217 -0.4124
  117OSM    H7F12302   2.684   3.153   7.510  0.6021 -0.0330  1.0315
  117OSM    H7G12303   2.859   3.181   7.534  1.6047 -2.2263  1.6972
  117OSM    C8F12304   2.795   2.985   7.595 -0.4149 -0.0081  0.5479
  117OSM    H8F12305   2.795   3.020   7.700  0.4127  0.3326  0.4414
  117OSM    H8G12306   2.893   2.937   7.573 -0.1150  1.1483 -0.7923
  117OSM    C9F12307   2.667   2.893   7.570 -0.0630  0.2005 -0.2077
  117OSM    H9F12308   2.673   2.833   7.478  1.0289 -0.8439  0.5182
  117OSM   C10F12309   2.573   2.874   7.658  0.9170 -0.3151  0.3226
  117OSM   H10F12310   2.491   2.802   7.640  0.0442  0.3444  1.5013
  117OSM   C11F12311   2.555   2.941   7.790 -0.1921 -0.2459 -0.0724
  117OSM   H11F12312   2.513   3.044   7.783 -1.1824 -0.5208  1.2976
  117OSM   H11G12313   2.654   2.945   7.839  0.3539 -0.1346 -1.1675
  117OSM   C12F12314   2.459   2.872   7.885 -0.0082 -0.1927  0.3338
  117OSM   H12F12315   2.361   2.848   7.840  1.0593 -1.6159 -1.3590
  117OSM   H12G12316   2.438   2.939   7.971 -0.9792 -1.3265  1.0096
  117OSM   C13F12317   2.508   2.742   7.938  0.1412  0.1344 -0.7624
  117OSM   H13F12318   2.558   2.686   7.856 -0.3668  0.1299 -1.0643
  117OSM   H13G12319   2.425   2.677   7.973  0.7177 -0.2537 -0.0729
  117OSM   C14F12320   2.589   2.762   8.062 -0.5251  0.8653 -0.0621
  117OSM   H14F12321   2.549   2.830   8.141  1.2865 -1.2885  2.9584
  117OSM   H14G12322   2.696   2.779   8.038  0.7979 -0.1846  4.1961
  117OSM   C15F12323   2.594   2.621   8.126  0.5118  0.3641 -0.1335
  117OSM   H15F12324   2.635   2.545   8.057 -0.4868 -1.0887  0.8154
  117OSM   H15G12325   2.489   2.589   8.142  0.5843  0.4039  0.4767
  117OSM   C16F12326   2.664   2.619   8.268 -0.2867  0.1544  0.1803
  117OSM   H16F12327   2.657   2.516   8.308 -1.3823  0.2840  0.3558
  117OSM   H16G12328   2.603   2.686   8.332  0.0964  0.8501 -0.1656
  117OSM   C17F12329   2.814   2.663   8.274  0.4898  0.2129 -0.0034
  117OSM   H17F12330   2.872   2.585   8.221  0.8186  0.3959  0.0818
  117OSM   H17G12331   2.825   2.758   8.219 -1.9487  0.2312 -0.5600
  117OSM   C18F12332   2.861   2.675   8.419  0.6245 -0.3496  0.3447
  117OSM   H18F12333   2.859   2.575   8.467 -1.7273 -0.5206  0.0055
  117OSM   H18G12334   2.810   2.754   8.477 -1.3325 -1.6115  0.4269
  117OSM   H18H12335   2.971   2.694   8.417  1.2498 -3.0412  2.7603
  118OSM      N12336   4.440   4.755   6.100 -0.2153 -0.6269 -0.0566
  118OSM    C1512337   4.445   4.904   6.079  0.5014 -0.0969  0.1583
  118OSM   H15A12338   4.437   4.925   5.973 -0.2434  0.8237  0.3843
  118OSM   H15B12339   4.547   4.937   6.096  1.2749 -0.8264 -2.5162
  118OSM   H15C12340   4.376   4.954   6.145  0.0928  1.3427 -1.2856
  118OSM    C1412341   4.313   4.700   6.064  0.0777 -0.0460  0.3042
  118OSM   H14A12342   4.287   4.719   5.961 -1.2932  0.2036  0.6644
  118OSM   H14B12343   4.236   4.734   6.132 -0.2371 -0.1132 -0.0139
  118OSM   H14C12344   4.319   4.595   6.087 -1.6035  0.4276  3.4734
  118OSM    C1312345   4.539   4.690   6.018 -0.8207  0.1928  0.4491
  118OSM   H13A12346   4.505   4.683   5.916 -0.5165  2.8574  0.1122
  118OSM   H13B12347   4.564   4.590   6.051  0.8687 -0.1725 -1.6660
  118OSM   H13C12348   4.638   4.734   6.015 -0.0991 -1.3785 -1.1473
  118OSM    C1212349   4.467   4.731   6.247  0.6903  0.1844  0.5111
  118OSM   H12A12350   4.566   4.771   6.266  0.8568 -0.0774  0.2125
  118OSM   H12B12351   4.474   4.624   6.263  0.7267 -0.1716 -1.6081
  118OSM    C1112352   4.367   4.793   6.343  0.0965  0.0048 -0.4069
  118OSM   H11A12353   4.393   4.754   6.444  1.2616 -0.5909 -0.9235
  118OSM   H11B12354   4.262   4.762   6.321 -0.6473  0.5663  2.0224
  118OSM      P12355   4.452   5.030   6.423 -0.2919 -0.0992 -0.1353
  118OSM    O1312356   4.570   5.063   6.344  0.1955 -0.2743 -0.4533
  118OSM    O1412357   4.369   5.143   6.480  0.0237  0.4791 -0.0307
  118OSM    O1112358   4.501   4.945   6.547 -0.4084 -0.4371  0.5412
  118OSM    O1212359   4.363   4.933   6.340 -0.4654  0.2317 -0.5890
  118OSM    C1S12360   4.540   5.022   6.668  0.3004 -0.1476  0.1762
  118OSM    H1S12361   4.565   5.128   6.650  1.3893 -0.3346  0.5090
  118OSM    H1T12362   4.635   4.973   6.698  0.3874  0.7341  1.4221
  118OSM     NF12363   4.503   5.086   6.895  0.5275  0.0527 -0.3332
  118OSM    HNF12364   4.536   5.031   6.972  2.4216  3.7315  1.7365
  118OSM    C2S12365   4.440   5.013   6.786 -0.2527  0.3110  0.2092
  118OSM    H2S12366   4.344   5.062   6.759 -1.4964 -0.8892  2.1587
  118OSM    C3S12367   4.401   4.857   6.821 -0.4198 -0.0970 -1.4905
  118OSM    H3S12368   4.494   4.797   6.835 -0.4210 -0.0255 -1.1590
  118OSM     O312369   4.332   4.795   6.718 -0.3626  0.6778  0.1874
  118OSM    HO312370   4.371   4.844   6.646 -1.7184  0.9041 -0.4181
  118OSM    C4S12371   4.321   4.843   6.943 -0.7051 -0.2428 -0.1356
  118OSM    H4S12372   4.220   4.882   6.929 -1.2463 -0.8927  1.6770
  118OSM    C5S12373   4.347   4.781   7.060 -0.4870 -0.3383 -0.3689
  118OSM    H5S12374   4.447   4.739   7.081 -1.5975 -1.9783  2.0044
  118OSM    C6S12375   4.258   4.773   7.185  0.0347 -0.5425  0.1093
  118OSM    H6S12376   4.180   4.700   7.155  0.1549 -0.2785 -0.8779
  118OSM    H6T12377   4.219   4.875   7.206  1.3979  0.1392 -0.5336
  118OSM    C7S12378   4.326   4.720   7.314 -0.1580  0.8808  0.4399
  118OSM    H7S12379   4.376   4.807   7.360 -1.8457  1.0826  1.9925
  118OSM    H7T12380   4.394   4.633   7.302  0.9298  1.7121  0.4914
  118OSM    C8S12381   4.228   4.674   7.422 -0.3775  0.2268  0.7102
  118OSM    H8S12382   4.181   4.576   7.397 -0.0317 -0.4377  2.5432
  118OSM    H8T12383   4.154   4.757   7.428 -1.3517 -0.6398  0.9588
  118OSM    C9S12384   4.291   4.664   7.564 -0.1932 -0.2223 -0.2644
  118OSM    H9S12385   4.340   4.759   7.593 -0.2094 -0.3323  0.1241
  118OSM    H9T12386   4.374   4.591   7.556 -0.6848 -0.7532 -0.6227
  118OSM   C10S12387   4.198   4.628   7.681  0.8404  0.6309 -0.2101
  118OSM   H10S12388   4.210   4.529   7.729 -0.9097  1.6093  2.4863
  118OSM   H10T12389   4.100   4.624   7.628  2.7876 -2.3969 -4.1067
  118OSM   C11S12390   4.185   4.734   7.796 -0.4065 -0.2931  0.2104
  118OSM   H11S12391   4.115   4.817   7.772 -0.5460  0.2671  2.3721
  118OSM   H11T12392   4.278   4.780   7.835 -0.2569 -1.8282  1.7553
  118OSM   C12S12393   4.126   4.682   7.926 -0.2770 -1.0965  0.5490
  118OSM   H12S12394   4.191   4.600   7.963 -2.1568 -1.6966  2.7804
  118OSM   H12T12395   4.024   4.644   7.902 -1.6080  2.7203 -0.6166
  118OSM   C13S12396   4.114   4.790   8.044 -0.4106  0.6641 -0.2684
  118OSM   H13S12397   4.038   4.867   8.016 -2.3538 -1.4164 -1.0191
  118OSM   H13T12398   4.210   4.835   8.078 -0.4631 -1.0431  2.4793
  118OSM   C14S12399   4.074   4.715   8.175 -0.2216  0.3846  0.0192
  118OSM   H14S12400   4.154   4.638   8.183  0.2758  0.5919 -2.1782
  118OSM   H14T12401   3.978   4.660   8.174  1.0663 -2.0185  0.2263
  118OSM   C15S12402   4.075   4.795   8.304  0.0752  0.1781  0.3878
  118OSM   H15S12403   3.991   4.868   8.298  0.7780  0.9412 -0.6281
  118OSM   H15T12404   4.173   4.848   8.309  0.2370 -0.2020  1.4685
  118OSM   C16S12405   4.073   4.709   8.429  0.0644  0.3238  1.0660
  118OSM   H16S12406   4.142   4.623   8.414  0.7414  1.1813 -1.1860
  118OSM   H16T12407   3.971   4.666   8.425  0.4842 -0.6048 -1.0046
  118OSM   C17S12408   4.100   4.776   8.564 -0.2049 -0.2885  0.5912
  118OSM   H17S12409   4.092   4.708   8.652 -0.8393 -2.5497 -1.1386
  118OSM   H17T12410   4.017   4.848   8.584  0.1310  0.3061 -0.1000
  118OSM   C18S12411   4.236   4.842   8.576 -0.2003  0.3331 -0.3961
  118OSM   H18S12412   4.249   4.891   8.675  1.0187  0.2318 -0.4953
  118OSM   H18T12413   4.254   4.913   8.493 -0.1738  1.0104  0.1816
  118OSM   H18U12414   4.313   4.762   8.568 -0.9959 -0.5113  0.1080
  118OSM    C1F12415   4.531   5.221   6.894 -0.0252  0.2303  0.3913
  118OSM     OF12416   4.494   5.298   6.807 -0.3020 -0.8199  0.8000
  118OSM    C2F12417   4.596   5.272   7.020  1.0689  0.1371  0.9409
  118OSM    H2F12418   4.681   5.206   7.048 -0.5584 -1.0353  3.4529
  118OSM    H2G12419   4.525   5.242   7.100  0.4684 -4.1335 -0.8924
  118OSM    C3F12420   4.639   5.428   7.016 -0.1862 -0.1150  0.4081
  118OSM    H3F12421   4.547   5.487   6.999 -0.1803 -0.5279 -1.1519
  118OSM    H3G12422   4.696   5.437   6.921 -0.6444 -0.8649  0.0516
  118OSM    C4F12423   4.717   5.461   7.135 -0.1024  0.2096 -0.2809
  118OSM    H4F12424   4.725   5.571   7.117  0.8147  0.3102  0.6434
  118OSM    H4G12425   4.816   5.411   7.134  0.0023  0.3843  0.6849
  118OSM    C5F12426   4.647   5.435   7.274 -0.0792 -0.0001 -0.0389
  118OSM    H5F12427   4.665   5.332   7.312 -0.6715  0.2106  0.8514
  118OSM    H5G12428   4.540   5.460   7.257 -0.5776  1.4777  4.0160
  118OSM    C6F12429   4.709   5.525   7.379 -0.5302  0.3581 -0.6753
  118OSM    H6F12430   4.730   5.626   7.337 -1.2710  1.0528  0.5876
  118OSM    H6G12431   4.804   5.475   7.408 -0.4868 -0.2785 -1.8374
  118OSM    C7F12432   4.619   5.555   7.507 -0.8380  0.0722  0.2522
  118OSM    H7F12433   4.566   5.460   7.527 -1.7284 -0.1138 -2.6112
  118OSM    H7G12434   4.537   5.623   7.476 -0.2600  0.7701  0.2272
  118OSM    C8F12435   4.695   5.627   7.626  0.3668  1.2646  0.1600
  118OSM    H8F12436   4.716   5.731   7.593 -0.5419  1.2735 -0.4305
  118OSM    H8G12437   4.793   5.577   7.640  0.6518  0.4069 -3.7447
  118OSM    C9F12438   4.596   5.627   7.744  0.2792  0.4845  0.6977
  118OSM    H9F12439   4.517   5.551   7.741  0.6605  0.0883 -1.9250
  118OSM   C10F12440   4.586   5.728   7.828 -0.2521  0.0990  0.5229
  118OSM   H10F12441   4.497   5.741   7.892 -1.5828  0.5429 -1.3349
  118OSM   C11F12442   4.682   5.842   7.833  0.4481  0.5490 -0.4006
  118OSM   H11F12443   4.677   5.897   7.736  0.4668  0.7187 -0.3058
  118OSM   H11G12444   4.782   5.796   7.848 -0.0028  0.1368  1.5484
  118OSM   C12F12445   4.660   5.950   7.947  0.4057 -0.2695  0.3515
  118OSM   H12F12446   4.552   5.976   7.956  0.2996 -0.1426 -1.0573
  118OSM   H12G12447   4.711   6.046   7.924 -1.1678  0.6897  0.7117
  118OSM   C13F12448   4.715   5.905   8.086 -0.7129  0.2951  0.0181
  118OSM   H13F12449   4.824   5.915   8.068 -0.8343  0.7152 -0.4945
  118OSM   H13G12450   4.685   5.802   8.117 -1.5541  0.8681  1.2037
  118OSM   C14F12451   4.666   5.989   8.202  0.5409  0.0175 -0.0644
  118OSM   H14F12452   4.564   5.958   8.231  0.6944  0.1126  0.6190
  118OSM   H14G12453   4.659   6.098   8.183 -0.2156  0.2971  1.6020
  118OSM   C15F12454   4.758   5.971   8.325 -0.2852 -0.3478 -0.2909
  118OSM   H15F12455   4.868   5.982   8.311 -0.3622  2.7866  0.7388
  118OSM   H15G12456   4.734   5.868   8.358  0.3384 -0.4660 -0.1862
  118OSM   C16F12457   4.735   6.064   8.446 -0.6449  0.5835  0.3231
  118OSM   H16F12458   4.627   6.069   8.474 -0.4319  1.3929  1.0146
  118OSM   H16G12459   4.770   6.167   8.425 -0.0176  0.0776 -1.2467
  118OSM   C17F12460   4.801   6.018   8.581  0.0120 -0.8147 -0.1467
  118OSM   H17F12461   4.763   5.920   8.616 -0.4179  0.1996  2.4333
  118OSM   H17G12462   4.756   6.088   8.654 -1.9573 -1.1872 -0.9584
  118OSM   C18F12463   4.956   6.027   8.575 -0.5948  0.0793  0.2644
  118OSM   H18F12464   4.974   6.133   8.548 -0.1622 -0.5316 -2.0779
  118OSM   H18G12465   4.993   5.955   8.499 -2.5510 -1.4662  0.7071
  118OSM   H18H12466   5.000   6.001   8.674  2.8605 -1.6676 -1.5202
  119OSM      N12467   4.286   2.728   5.963  0.5347 -0.0142  0.1022
  119OSM    C1512468   4.164   2.694   6.051 -0.0866 -0.7369 -0.2310
  119OSM   H15A12469   4.070   2.726   6.010  0.1168  0.5849  0.2973
  119OSM   H15B12470   4.172   2.753   6.142  1.8601  2.4648 -2.2950
  119OSM   H15C12471   4.158   2.590   6.081  1.1934 -0.7697  0.0110
  119OSM    C1412472   4.262   2.649   5.835  0.0844  0.1564 -0.7046
  119OSM   H14A12473   4.259   2.544   5.862 -1.0238  0.5741  0.9287
  119OSM   H14B12474   4.334   2.672   5.758 -0.5067  0.5871 -1.1347
  119OSM   H14C12475   4.163   2.682   5.810 -0.2434  0.9307  1.3942
  119OSM    C1312476   4.293   2.878   5.938 -0.8999  0.3142  0.0096
  119OSM   H13A12477   4.391   2.898   5.897 -1.4280  0.6873 -1.0948
  119OSM   H13B12478   4.285   2.934   6.030 -1.5859  2.2043 -1.1486
  119OSM   H13C12479   4.201   2.903   5.887 -1.2137  0.7308  0.7671
  119OSM    C1212480   4.415   2.684   6.032 -0.1739  0.0971 -0.2690
  119OSM   H12A12481   4.393   2.583   6.063 -0.4825  0.8494  2.1306
  119OSM   H12B12482   4.413   2.726   6.131  0.1241  0.2911 -0.3414
  119OSM    C1112483   4.553   2.718   5.979 -0.2509  0.2254  0.9164
  119OSM   H11A12484   4.557   2.664   5.882  2.8405  1.1081  0.4198
  119OSM   H11B12485   4.629   2.672   6.045 -1.3384 -1.4463  1.0602
  119OSM      P12486   4.647   2.962   6.056  0.2161  0.1039  0.0665
  119OSM    O1312487   4.794   2.967   6.037 -0.0589  0.0150  0.1672
  119OSM    O1412488   4.580   3.093   6.053 -0.4081  0.7766 -0.0385
  119OSM    O1112489   4.620   2.892   6.192  0.0773  0.3230  0.0902
  119OSM    O1212490   4.579   2.860   5.955 -0.5119  0.2589 -0.0694
  119OSM    C1S12491   4.680   2.925   6.318 -0.9364 -0.7404  0.4076
  119OSM    H1S12492   4.672   3.035   6.331 -1.8632 -0.4170 -2.1961
  119OSM    H1T12493   4.788   2.902   6.307 -0.4058  2.0112 -1.2706
  119OSM     NF12494   4.670   2.928   6.559 -0.2188  0.2346 -0.0408
  119OSM    HNF12495   4.756   2.898   6.599 -0.1816  1.7580  1.1485
  119OSM    C2S12496   4.631   2.852   6.441 -0.3020 -0.2765 -0.5916
  119OSM    H2S12497   4.520   2.850   6.443 -0.3502 -2.5188  2.9054
  119OSM    C3S12498   4.672   2.710   6.442 -0.2012  0.5175  0.7365
  119OSM    H3S12499   4.783   2.712   6.429 -0.3589  1.1188 -0.6434
  119OSM     O312500   4.629   2.633   6.319  0.3622 -0.2971  0.5302
  119OSM    HO312501   4.567   2.697   6.283  1.5095  1.9507  2.2449
  119OSM    C4S12502   4.623   2.642   6.566  0.1292  0.2725  0.0883
  119OSM    H4S12503   4.516   2.614   6.563  0.7944 -2.4985 -0.9141
  119OSM    C5S12504   4.697   2.599   6.669 -0.0974  0.4231  0.2416
  119OSM    H5S12505   4.805   2.623   6.665 -0.2666  1.1965  0.2966
  119OSM    C6S12506   4.630   2.524   6.784  0.0374 -0.5696 -0.6540
  119OSM    H6S12507   4.670   2.564   6.880  0.2631 -2.0541 -0.1031
  119OSM    H6T12508   4.672   2.422   6.769 -0.6583 -1.3792  2.1972
  119OSM    C7S12509   4.479   2.532   6.802  0.3401  0.6730 -0.5048
  119OSM    H7S12510   4.416   2.502   6.716  3.2377 -3.3115 -1.5257
  119OSM    H7T12511   4.454   2.640   6.816  0.4821  0.6137  0.2713
  119OSM    C8S12512   4.428   2.441   6.922  0.2740 -0.3108  0.7268
  119OSM    H8S12513   4.457   2.335   6.903  1.3401 -0.1616  1.4448
  119OSM    H8T12514   4.317   2.447   6.923  0.1147 -1.4667 -1.5677
  119OSM    C9S12515   4.485   2.482   7.067 -0.1451  0.2766 -0.0604
  119OSM    H9S12516   4.465   2.589   7.090  1.4188  0.6783 -0.4942
  119OSM    H9T12517   4.595   2.471   7.056 -0.4679 -2.3650 -1.6165
  119OSM   C10S12518   4.442   2.383   7.173 -0.1410 -0.0244  0.2843
  119OSM   H10S12519   4.475   2.280   7.148 -0.8612 -0.2713  0.3142
  119OSM   H10T12520   4.332   2.376   7.182 -0.3721  2.5636  0.3495
  119OSM   C11S12521   4.511   2.413   7.310  0.2248 -0.1441 -0.4765
  119OSM   H11S12522   4.515   2.523   7.324 -1.7373 -0.1461  0.6093
  119OSM   H11T12523   4.617   2.382   7.301  1.5814  2.2403  4.0546
  119OSM   C12S12524   4.432   2.345   7.428 -0.2097  0.1835 -0.1386
  119OSM   H12S12525   4.437   2.234   7.417 -0.1320  0.1535  0.1804
  119OSM   H12T12526   4.328   2.380   7.415 -1.0812 -1.6093  1.4426
  119OSM   C13S12527   4.487   2.378   7.568  1.0702 -0.1174  0.1508
  119OSM   H13S12528   4.499   2.489   7.564  2.1906 -0.2250  0.1926
  119OSM   H13T12529   4.583   2.326   7.589 -0.9842 -4.0842  0.5808
  119OSM   C14S12530   4.386   2.342   7.682 -0.7127  0.8564 -0.3771
  119OSM   H14S12531   4.348   2.239   7.664 -1.7818  0.9280  1.2685
  119OSM   H14T12532   4.295   2.406   7.685 -0.7880  0.7244  0.4562
  119OSM   C15S12533   4.451   2.334   7.821 -0.4132 -0.4677  0.3206
  119OSM   H15S12534   4.525   2.251   7.818 -0.1592 -0.2464  0.4283
  119OSM   H15T12535   4.372   2.295   7.888 -0.3497 -0.9983  0.0959
  119OSM   C16S12536   4.513   2.464   7.861 -0.4355 -0.0004  0.6778
  119OSM   H16S12537   4.426   2.534   7.863 -0.8322 -0.4663  0.2230
  119OSM   H16T12538   4.583   2.497   7.781 -0.7601  2.3363  1.2920
  119OSM   C17S12539   4.583   2.458   7.995 -0.4867 -0.0365 -0.2930
  119OSM   H17S12540   4.653   2.543   8.010 -0.7008 -0.0408  0.8164
  119OSM   H17T12541   4.651   2.370   7.992  1.8065  1.6669 -1.1926
  119OSM   C18S12542   4.504   2.464   8.122 -0.1286  0.0551 -1.1383
  119OSM   H18S12543   4.444   2.555   8.142 -1.5064 -1.1822  0.7022
  119OSM   H18T12544   4.576   2.457   8.206  0.4836  1.2012 -1.5457
  119OSM   H18U12545   4.432   2.379   8.125 -1.1075  0.8867  0.0844
  119OSM    C1F12546   4.622   3.057   6.595 -0.2511  1.3843 -0.1152
  119OSM     OF12547   4.541   3.122   6.533 -0.1633 -0.2096 -0.3665
  119OSM    C2F12548   4.680   3.101   6.719 -0.4546 -0.4559 -0.7238
  119OSM    H2F12549   4.774   3.157   6.696  0.5386 -0.1747  3.3618
  119OSM    H2G12550   4.713   3.017   6.784  0.3582  0.6925  0.3854
  119OSM    C3F12551   4.581   3.197   6.797 -0.4434  0.3312 -0.5862
  119OSM    H3F12552   4.559   3.286   6.734 -0.6114 -0.1722 -1.2566
  119OSM    H3G12553   4.638   3.239   6.882  0.9051  0.3486 -1.4726
  119OSM    C4F12554   4.454   3.124   6.836 -0.2918 -0.1666 -0.1915
  119OSM    H4F12555   4.387   3.096   6.752 -1.5330  0.5547  0.5212
  119OSM    H4G12556   4.396   3.196   6.898 -0.9415 -2.4786  2.0586
  119OSM    C5F12557   4.459   2.998   6.912 -0.4618  0.3703 -0.1199
  119OSM    H5F12558   4.513   2.917   6.860  1.0047  1.4651 -0.3826
  119OSM    H5G12559   4.358   2.954   6.924 -0.1966  0.2607  2.3960
  119OSM    C6F12560   4.522   3.010   7.055 -0.3812  0.0592 -0.1137
  119OSM    H6F12561   4.437   3.057   7.107  0.3527  3.0044 -1.3493
  119OSM    H6G12562   4.606   3.081   7.036  0.8583 -1.3708 -0.1421
  119OSM    C7F12563   4.561   2.883   7.133 -0.0622  0.4813 -0.2121
  119OSM    H7F12564   4.594   2.805   7.062  2.1040  1.5850 -0.4992
  119OSM    H7G12565   4.468   2.849   7.184 -0.0895  0.5734 -0.1989
  119OSM    C8F12566   4.661   2.910   7.254  0.3288  0.2174  0.1299
  119OSM    H8F12567   4.600   2.966   7.328 -0.7011 -1.1299  0.3295
  119OSM    H8G12568   4.743   2.976   7.218  0.1319  2.3089  3.0885
  119OSM    C9F12569   4.705   2.786   7.329 -0.0775 -0.3273  0.9655
  119OSM    H9F12570   4.786   2.725   7.285 -0.5897 -0.9006  0.8024
  119OSM   C10F12571   4.642   2.741   7.440 -0.1130  0.0584  0.5600
  119OSM   H10F12572   4.659   2.642   7.485  0.1203 -0.1911 -0.0610
  119OSM   C11F12573   4.532   2.818   7.510  0.1613  0.4206  0.5865
  119OSM   H11F12574   4.434   2.803   7.462  0.0551 -2.3092  1.4706
  119OSM   H11G12575   4.558   2.926   7.517 -0.2799  0.5555  0.1675
  119OSM   C12F12576   4.526   2.789   7.658  0.0129  0.1005  0.0649
  119OSM   H12F12577   4.500   2.682   7.673  2.8614 -0.5764  0.8512
  119OSM   H12G12578   4.447   2.857   7.695  0.3827 -0.6864  2.4745
  119OSM   C13F12579   4.646   2.826   7.747  0.4282  0.4506  1.0617
  119OSM   H13F12580   4.694   2.918   7.708 -0.9875  0.7336 -0.1223
  119OSM   H13G12581   4.716   2.740   7.739  0.4356  0.6297 -2.4254
  119OSM   C14F12582   4.603   2.850   7.885  0.6970  0.8997  0.5180
  119OSM   H14F12583   4.569   2.751   7.921  1.2015 -1.3390 -4.3851
  119OSM   H14G12584   4.507   2.906   7.886 -0.4450 -0.9163 -0.8515
  119OSM   C15F12585   4.721   2.890   7.979  0.0548  0.0057 -0.0621
  119OSM   H15F12586   4.746   2.997   7.969  2.4813 -0.4758  0.3215
  119OSM   H15G12587   4.814   2.838   7.948  0.1486 -0.5864  1.1340
  119OSM   C16F12588   4.701   2.869   8.128  0.2843  0.0993 -0.0735
  119OSM   H16F12589   4.800   2.877   8.178  0.5818  0.2702 -0.6772
  119OSM   H16G12590   4.676   2.766   8.161  2.0324  0.1659  1.6250
  119OSM   C17F12591   4.598   2.972   8.172  0.1561 -0.2480 -0.4618
  119OSM   H17F12592   4.500   2.932   8.138 -0.5509  0.8968  0.1777
  119OSM   H17G12593   4.615   3.072   8.126 -0.8391 -0.2099 -0.7581
  119OSM   C18F12594   4.603   2.996   8.324  0.9753  0.2141 -0.1538
  119OSM   H18F12595   4.510   3.055   8.337  1.4253  1.1476 -1.0031
  119OSM   H18G12596   4.687   3.064   8.350  1.2569 -0.0456 -0.3775
  119OSM   H18H12597   4.615   2.905   8.387  0.8529 -0.1557 -0.6611
  120OSM      N12598   2.536   0.272   6.196 -0.3028  1.0548  0.3779
  120OSM    C1512599   2.590   0.148   6.118  0.7936 -0.8055  0.4559
  120OSM   H15A12600   2.547   0.143   6.020 -1.0741  2.8090  0.9270
  120OSM   H15B12601   2.569   0.054   6.168 -0.9070 -1.1254 -0.7879
  120OSM   H15C12602   2.698   0.153   6.117  0.8147 -1.2999 -0.1661
  120OSM    C1412603   2.559   0.385   6.111  0.3109  0.1428  0.3175
  120OSM   H14A12604   2.524   0.363   6.011  3.2027 -1.4287 -0.4674
  120OSM   H14B12605   2.666   0.400   6.099  0.5980 -1.1258  1.0803
  120OSM   H14C12606   2.528   0.482   6.147  1.3225 -0.7042  3.8811
  120OSM    C1312607   2.390   0.257   6.222 -0.2649  0.6235  0.4848
  120OSM   H13A12608   2.338   0.250   6.127  2.4772  0.7733 -1.1586
  120OSM   H13B12609   2.358   0.346   6.274 -3.1460 -0.6183  1.0556
  120OSM   H13C12610   2.359   0.178   6.289 -1.8891  0.1235 -0.7904
  120OSM    C1212611   2.603   0.288   6.334  0.4806 -0.2248  0.9356
  120OSM   H12A12612   2.565   0.376   6.383 -3.1889 -0.9397 -0.3355
  120OSM   H12B12613   2.706   0.304   6.306  0.8942 -1.0432  1.9289
  120OSM    C1112614   2.596   0.169   6.439 -0.4548 -0.2621  0.0061
  120OSM   H11A12615   2.492   0.151   6.471 -1.7624  1.5139 -2.7655
  120OSM   H11B12616   2.648   0.201   6.532 -2.3641  1.8788  0.4399
  120OSM      P12617   2.810   0.022   6.382 -0.4111  0.1246 -0.2038
  120OSM    O1312618   2.838  -0.104   6.310 -0.4094 -1.1023 -0.5940
  120OSM    O1412619   2.885   0.139   6.337  0.1884  0.4139  0.2775
  120OSM    O1112620   2.827   0.001   6.533  0.6864 -0.7365 -0.1134
  120OSM    O1212621   2.648   0.048   6.384  0.3093 -0.3570  0.1148
  120OSM    C1S12622   2.902   0.078   6.630  0.3658  0.0347  0.7755
  120OSM    H1S12623   2.873   0.184   6.612  0.8754 -0.1003 -1.0588
  120OSM    H1T12624   3.011   0.067   6.611 -0.0520 -1.2842 -1.0889
  120OSM     NF12625   2.938   0.115   6.868  0.2932  0.1298  0.1413
  120OSM    HNF12626   3.010   0.067   6.917 -0.0879  0.3459  0.9157
  120OSM    C2S12627   2.868   0.036   6.769  0.7329  0.4345 -0.0953
  120OSM    H2S12628   2.760   0.054   6.784  0.8769  0.5533  0.8657
  120OSM    C3S12629   2.885  -0.120   6.795 -0.1995  0.3989  0.3595
  120OSM    H3S12630   2.990  -0.151   6.777 -0.5025 -0.3706 -0.1724
  120OSM     O312631   2.817  -0.205   6.709  0.3316  0.5048  0.2769
  120OSM    HO312632   2.767  -0.141   6.658 -0.3918  1.8745  2.5469
  120OSM    C4S12633   2.841  -0.151   6.936  0.1541 -0.0387 -0.2943
  120OSM    H4S12634   2.759  -0.083   6.963  0.7335  2.0377 -3.3330
  120OSM    C5S12635   2.882  -0.238   7.030  0.2908  0.5692  0.0621
  120OSM    H5S12636   2.958  -0.314   7.009  0.5680  0.2109  2.2110
  120OSM    C6S12637   2.827  -0.246   7.168  0.4673  0.1244  0.9340
  120OSM    H6S12638   2.829  -0.352   7.203 -2.9498 -0.4310 -0.1945
  120OSM    H6T12639   2.720  -0.216   7.171  0.6785  0.9363  0.4423
  120OSM    C7S12640   2.915  -0.165   7.265  0.2112  0.2859  0.1153
  120OSM    H7S12641   3.020  -0.171   7.230 -0.8556 -0.5626 -3.3309
  120OSM    H7T12642   2.899  -0.215   7.362 -0.1428 -0.2648 -0.2188
  120OSM    C8S12643   2.872  -0.015   7.286 -0.1715  0.5893 -0.0399
  120OSM    H8S12644   2.766   0.001   7.313 -0.6069  1.0833 -1.9177
  120OSM    H8T12645   2.882   0.040   7.191  0.1914  0.3025 -0.1710
  120OSM    C9S12646   2.953   0.065   7.387 -0.0988 -0.1982 -0.5438
  120OSM    H9S12647   2.921   0.171   7.391  0.1481 -0.1274 -0.4847
  120OSM    H9T12648   3.061   0.060   7.364 -0.0668 -0.1582 -0.3982
  120OSM   C10S12649   2.934   0.001   7.525  0.4387 -0.3116 -0.2868
  120OSM   H10S12650   2.970  -0.103   7.533  1.7111  0.1073 -0.2692
  120OSM   H10T12651   2.825   0.016   7.540  0.6326  2.0842 -0.7310
  120OSM   C11S12652   2.994   0.090   7.633  0.3495  0.5561 -0.4205
  120OSM   H11S12653   2.951   0.192   7.628 -1.3187 -0.1640 -1.6986
  120OSM   H11T12654   3.103   0.101   7.617  0.3272  1.7709  0.1404
  120OSM   C12S12655   2.977   0.027   7.776  0.1460 -0.3850 -0.2712
  120OSM   H12S12656   3.006  -0.079   7.767  1.5260  0.0212 -0.9455
  120OSM   H12T12657   2.868   0.019   7.795  0.6266 -2.9422  1.9134
  120OSM   C13S12658   3.047   0.105   7.892  0.0823  0.2800  0.3253
  120OSM   H13S12659   3.004   0.207   7.887 -0.9657 -0.1372  0.5713
  120OSM   H13T12660   3.156   0.108   7.867  0.8248  1.1970  3.2752
  120OSM   C14S12661   3.033   0.032   8.022 -0.0021 -0.0396 -0.3183
  120OSM   H14S12662   3.054  -0.076   8.006  2.5950  0.2697  0.5093
  120OSM   H14T12663   2.932   0.040   8.067 -0.3080 -1.3880 -0.7296
  120OSM   C15S12664   3.128   0.095   8.130  0.4399  0.2453  0.2408
  120OSM   H15S12665   3.109   0.203   8.149  1.9978  0.3144  1.5798
  120OSM   H15T12666   3.230   0.099   8.086 -0.5538  0.0980 -2.2823
  120OSM   C16S12667   3.144   0.007   8.248  0.0271 -0.2856 -0.1062
  120OSM   H16S12668   3.250   0.015   8.282 -0.2654  2.8060  0.3297
  120OSM   H16T12669   3.120  -0.100   8.226 -2.1090  0.1823 -0.2944
  120OSM   C17S12670   3.066   0.057   8.370 -0.1589  0.3621  0.1494
  120OSM   H17S12671   2.958   0.051   8.347 -0.2297 -1.2827  0.7709
  120OSM   H17T12672   3.095   0.160   8.399  0.5052  0.7460 -1.7331
  120OSM   C18S12673   3.088  -0.022   8.500  0.6751 -0.2503  0.4607
  120OSM   H18S12674   3.197  -0.030   8.520  0.9454  2.1616  0.2263
  120OSM   H18T12675   3.055  -0.126   8.479 -1.3886  0.8565 -2.5061
  120OSM   H18U12676   3.028   0.022   8.582  0.9030  0.7738  0.0857
  120OSM    C1F12677   2.929   0.251   6.877 -0.5714 -0.1677 -0.3982
  120OSM     OF12678   2.846   0.316   6.808 -0.2430 -0.0180  0.2991
  120OSM    C2F12679   3.033   0.324   6.968 -0.7827  0.2581  0.1104
  120OSM    H2F12680   3.086   0.389   6.895 -0.5519  0.4951  0.4885
  120OSM    H2G12681   3.108   0.253   7.010 -0.0608  0.3113 -1.0345
  120OSM    C3F12682   2.969   0.425   7.059  0.0911  0.8108  0.2912
  120OSM    H3F12683   2.881   0.479   7.017 -1.7350 -1.6664  0.7550
  120OSM    H3G12684   3.046   0.502   7.083 -0.3992  1.8876 -1.3787
  120OSM    C4F12685   2.908   0.371   7.191 -0.6928 -0.4676  0.4515
  120OSM    H4F12686   2.992   0.333   7.253 -1.5863 -1.0952  1.2991
  120OSM    H4G12687   2.834   0.292   7.169 -0.1423 -1.0745  0.7177
  120OSM    C5F12688   2.852   0.488   7.275 -0.5353 -0.4853 -0.1929
  120OSM    H5F12689   2.756   0.518   7.228 -0.4339 -0.8517 -0.6352
  120OSM    H5G12690   2.915   0.578   7.291 -3.3236  1.5318  0.0842
  120OSM    C6F12691   2.816   0.429   7.407 -0.5517  0.0900 -0.3850
  120OSM    H6F12692   2.905   0.381   7.453  1.5096  2.0907 -1.9838
  120OSM    H6G12693   2.735   0.354   7.397 -1.0786  0.9010 -3.1174
  120OSM    C7F12694   2.758   0.528   7.508  0.3655  0.6339  0.3415
  120OSM    H7F12695   2.847   0.594   7.519  0.5787  0.5851 -0.9113
  120OSM    H7G12696   2.739   0.483   7.607  1.0285 -0.6814 -0.1026
  120OSM    C8F12697   2.631   0.590   7.456  0.0948 -0.7223  0.0761
  120OSM    H8F12698   2.549   0.524   7.420 -1.1541  0.7413  0.1082
  120OSM    H8G12699   2.662   0.647   7.366  4.2651 -0.5337  1.4437
  120OSM    C9F12700   2.575   0.693   7.552  0.7268  0.0762  0.1323
  120OSM    H9F12701   2.596   0.795   7.518 -1.0044  0.4808  0.1730
  120OSM   C10F12702   2.495   0.674   7.664 -0.4130  0.1788  0.5905
  120OSM   H10F12703   2.455   0.762   7.716  1.9061  0.4796  1.9927
  120OSM   C11F12704   2.462   0.546   7.721  0.6825  1.0116 -0.1657
  120OSM   H11F12705   2.546   0.474   7.710 -1.4766 -1.7428 -0.0095
  120OSM   H11G12706   2.361   0.515   7.684 -1.2450  0.9480  4.5144
  120OSM   C12F12707   2.437   0.546   7.867 -0.4141 -0.0567  0.0642
  120OSM   H12F12708   2.415   0.440   7.893  0.3743 -1.1954 -3.4086
  120OSM   H12G12709   2.352   0.615   7.889 -0.7690 -0.3636 -0.3288
  120OSM   C13F12710   2.560   0.598   7.946  0.1836  0.5965 -0.4008
  120OSM   H13F12711   2.572   0.704   7.915 -2.1748  0.6862 -1.1777
  120OSM   H13G12712   2.653   0.546   7.912 -0.6525  0.4138 -2.5785
  120OSM   C14F12713   2.540   0.595   8.099 -0.4617  0.0152  0.0294
  120OSM   H14F12714   2.549   0.489   8.131  1.8361  0.5064  1.2480
  120OSM   H14G12715   2.440   0.637   8.122 -2.3964 -3.1317 -1.8149
  120OSM   C15F12716   2.648   0.666   8.177 -0.2291  0.9205 -0.3246
  120OSM   H15F12717   2.639   0.769   8.138 -2.9854  0.9848  0.2626
  120OSM   H15G12718   2.753   0.633   8.167 -0.0755  1.7492 -1.7046
  120OSM   C16F12719   2.603   0.662   8.323 -0.0321 -0.0492 -0.7027
  120OSM   H16F12720   2.609   0.555   8.355 -0.0546 -0.0641 -0.7481
  120OSM   H16G12721   2.498   0.698   8.324 -0.0014  0.0424 -0.7507
  120OSM   C17F12722   2.691   0.744   8.427  1.0173 -0.1633 -0.1220
  120OSM   H17F12723   2.642   0.721   8.524  0.1854  0.4222 -0.3872
  120OSM   H17G12724   2.667   0.851   8.405 -3.8467 -1.1088 -0.5302
  120OSM   C18F12725   2.838   0.715   8.442  0.5123  0.2584 -0.0795
  120OSM   H18F12726   2.883   0.799   8.498 -0.8854  0.7281  0.3871
  120OSM   H18G12727   2.875   0.727   8.338 -0.7533  2.0873 -0.3749
  120OSM   H18H12728   2.877   0.618   8.478  0.8208  0.4105 -0.0020
  121OSM      N12729   6.749   3.459   5.991  0.3037 -0.8387 -0.6908
  121OSM    C1512730   6.845   3.576   6.013 -0.1481  0.1902  0.7363
  121OSM   H15A12731   6.858   3.633   5.922 -2.1596  0.0237  0.2948
  121OSM   H15B12732   6.942   3.540   6.045  0.9401  2.5090  0.2626
  121OSM   H15C12733   6.809   3.639   6.094 -1.4920  0.2190  0.1462
  121OSM    C1412734   6.610   3.513   5.963  0.1168  0.4722  0.7240
  121OSM   H14A12735   6.608   3.588   5.886 -1.3722 -1.1427 -0.9156
  121OSM   H14B12736   6.587   3.559   6.058  0.1101 -1.0165  1.4827
  121OSM   H14C12737   6.528   3.442   5.958  0.5410 -0.0181  0.5955
  121OSM    C1312738   6.787   3.382   5.869  0.0462 -0.3668  0.3625
  121OSM   H13A12739   6.787   3.449   5.785 -2.1355  0.0358  0.6239
  121OSM   H13B12740   6.714   3.306   5.845 -0.1525  0.3365 -1.3956
  121OSM   H13C12741   6.875   3.321   5.888 -0.5010 -2.1035 -2.2082
  121OSM    C1212742   6.759   3.373   6.116 -0.0129 -0.2398  0.4463
  121OSM   H12A12743   6.858   3.332   6.123 -0.3880 -1.3897 -0.5916
  121OSM   H12B12744   6.695   3.288   6.098 -1.2671  0.6459  0.5828
  121OSM    C1112745   6.726   3.442   6.251 -0.2494  0.0329 -0.2055
  121OSM   H11A12746   6.783   3.536   6.266  1.5607 -0.9704 -0.5575
  121OSM   H11B12747   6.769   3.381   6.332 -1.2013  1.0659  1.1277
  121OSM      P12748   6.472   3.364   6.307 -0.2445  0.2558  0.1300
  121OSM    O1312749   6.338   3.424   6.286 -0.1909 -0.4206 -0.3985
  121OSM    O1412750   6.495   3.240   6.234  0.2169 -0.5300 -0.9503
  121OSM    O1112751   6.508   3.335   6.459  0.3751  0.0460  0.6173
  121OSM    O1212752   6.582   3.470   6.256  0.2248 -0.7270 -0.5284
  121OSM    C1S12753   6.519   3.442   6.552  0.1661  0.2523  0.6314
  121OSM    H1S12754   6.416   3.481   6.565  0.0691  0.2015  0.0596
  121OSM    H1T12755   6.579   3.528   6.514 -0.7800  0.8832  0.5499
  121OSM     NF12756   6.584   3.512   6.777  0.1769  0.0348 -0.4181
  121OSM    HNF12757   6.676   3.544   6.797  0.9421 -2.8630  1.3498
  121OSM    C2S12758   6.577   3.394   6.691 -1.1359 -0.6511  1.0372
  121OSM    H2S12759   6.503   3.320   6.730 -1.8903  0.7126  2.2833
  121OSM    C3S12760   6.722   3.328   6.674 -0.0897  0.4529 -1.2195
  121OSM    H3S12761   6.803   3.404   6.665  0.5527  0.2029  1.5956
  121OSM     O312762   6.737   3.243   6.559  0.4406 -0.0685  0.5712
  121OSM    HO312763   6.659   3.274   6.511  1.1765  1.8334  0.5321
  121OSM    C4S12764   6.765   3.256   6.802 -0.2924 -0.2664 -0.0270
  121OSM    H4S12765   6.826   3.322   6.866  0.9638 -0.6904 -0.7570
  121OSM    C5S12766   6.728   3.130   6.840  0.4237  0.1580  0.5704
  121OSM    H5S12767   6.679   3.059   6.772  0.5391 -0.2215  0.8788
  121OSM    C6S12768   6.768   3.075   6.973 -1.2600 -0.0484 -0.1365
  121OSM    H6S12769   6.872   3.105   6.999 -0.8383  1.1659 -2.8724
  121OSM    H6T12770   6.776   2.964   6.971  3.6653  0.0711  0.7266
  121OSM    C7S12771   6.663   3.113   7.078  0.9129 -0.7155  0.0610
  121OSM    H7S12772   6.566   3.090   7.028 -0.1265  2.9605  0.0898
  121OSM    H7T12773   6.646   3.219   7.108 -1.8543 -0.5601 -1.6836
  121OSM    C8S12774   6.656   3.028   7.206 -0.6169  0.1738 -0.3373
  121OSM    H8S12775   6.676   2.923   7.178 -0.2026  0.5711 -1.5792
  121OSM    H8T12776   6.554   3.028   7.251 -0.6344 -0.0566 -0.3737
  121OSM    C9S12777   6.769   3.074   7.297  0.5446  0.3664 -0.3074
  121OSM    H9S12778   6.766   3.185   7.295 -0.7590  0.4260  1.8741
  121OSM    H9T12779   6.855   3.041   7.235  0.7104 -0.8309  0.5208
  121OSM   C10S12780   6.767   3.010   7.437 -1.4598  0.2333 -0.2734
  121OSM   H10S12781   6.866   3.035   7.480 -1.0900 -3.0953  1.0999
  121OSM   H10T12782   6.750   2.901   7.425  1.1641 -0.3418  0.6827
  121OSM   C11S12783   6.670   3.083   7.536  0.2865  1.2373  0.0956
  121OSM   H11S12784   6.570   3.042   7.514  0.0988 -1.2367  4.4014
  121OSM   H11T12785   6.676   3.194   7.534  0.7794  1.2421  1.1447
  121OSM   C12S12786   6.698   3.040   7.681 -0.3142 -0.0188  0.2869
  121OSM   H12S12787   6.809   3.039   7.678 -0.3378 -0.3182 -1.9841
  121OSM   H12T12788   6.668   2.938   7.714 -1.6529  0.7344  1.5356
  121OSM   C13S12789   6.646   3.140   7.789  0.3840  0.1191 -0.1012
  121OSM   H13S12790   6.537   3.116   7.792  0.4414 -0.0386  1.2133
  121OSM   H13T12791   6.634   3.246   7.757  2.1833  0.0190 -1.2272
  121OSM   C14S12792   6.702   3.126   7.932 -0.2186  0.2976  0.5697
  121OSM   H14S12793   6.663   3.209   7.996 -0.7455 -0.2547  0.9864
  121OSM   H14T12794   6.811   3.146   7.935 -0.4876  2.5171 -1.7701
  121OSM   C15S12795   6.667   2.988   8.001 -0.5127  0.8683 -0.2678
  121OSM   H15S12796   6.698   2.903   7.938  2.1143  0.2560  1.6923
  121OSM   H15T12797   6.556   2.989   7.998 -0.5703 -0.4543  0.7053
  121OSM   C16S12798   6.705   2.978   8.150 -0.4981 -0.2785 -0.1826
  121OSM   H16S12799   6.676   3.071   8.205 -2.6440  1.1512 -3.4426
  121OSM   H16T12800   6.815   2.980   8.161 -0.5539  0.6426  0.3466
  121OSM   C17S12801   6.642   2.861   8.221  0.9943  0.3992 -0.1845
  121OSM   H17S12802   6.664   2.765   8.170  0.8008  1.1966 -1.8680
  121OSM   H17T12803   6.532   2.872   8.207  0.7395  1.8752  2.3139
  121OSM   C18S12804   6.665   2.852   8.368 -0.0277  0.1922  0.0274
  121OSM   H18S12805   6.706   2.946   8.411  0.6651 -0.6913  1.3689
  121OSM   H18T12806   6.740   2.773   8.391 -0.6028  0.1564  1.8753
  121OSM   H18U12807   6.580   2.813   8.427  0.4332 -0.6139  0.1769
  121OSM    C1F12808   6.476   3.568   6.828 -0.0654 -0.7149 -0.3382
  121OSM     OF12809   6.365   3.520   6.825  0.3465  0.5465  0.3522
  121OSM    C2F12810   6.488   3.705   6.896  0.5117  0.5411 -0.1873
  121OSM    H2F12811   6.465   3.787   6.824  1.7003  0.2405 -0.9378
  121OSM    H2G12812   6.596   3.713   6.924  0.5527 -1.8687  0.5414
  121OSM    C3F12813   6.382   3.722   7.007  0.4339 -0.5244 -0.4058
  121OSM    H3F12814   6.407   3.641   7.079 -0.6946 -1.2075 -0.7753
  121OSM    H3G12815   6.277   3.701   6.978 -0.1398  1.6562 -0.1366
  121OSM    C4F12816   6.392   3.846   7.093  0.2677 -0.2820 -0.4885
  121OSM    H4F12817   6.339   3.919   7.028  1.1478 -0.8794 -1.9064
  121OSM    H4G12818   6.490   3.891   7.119  0.4014 -0.3529 -0.8691
  121OSM    C5F12819   6.312   3.830   7.230 -0.5009  0.2997 -0.3103
  121OSM    H5F12820   6.375   3.754   7.281 -0.9670 -1.5340 -2.3160
  121OSM    H5G12821   6.208   3.789   7.225  0.2288 -1.7592  0.3267
  121OSM    C6F12822   6.296   3.954   7.317  0.6141  0.1915 -0.2330
  121OSM    H6F12823   6.219   4.020   7.270 -1.3031 -0.3997  1.9456
  121OSM    H6G12824   6.394   4.007   7.311  1.0949 -0.7109 -0.4674
  121OSM    C7F12825   6.256   3.933   7.469  0.0609 -0.5735 -0.2872
  121OSM    H7F12826   6.314   3.848   7.510  0.7814 -0.3693 -0.8721
  121OSM    H7G12827   6.156   3.885   7.469  1.5896 -4.0051 -0.3617
  121OSM    C8F12828   6.277   4.060   7.558  0.2772 -0.4815 -0.4572
  121OSM    H8F12829   6.177   4.080   7.603 -0.3235 -0.4278 -1.7895
  121OSM    H8G12830   6.310   4.148   7.499  1.2920 -1.1875 -0.9654
  121OSM    C9F12831   6.371   4.032   7.668 -0.5287  0.7639  0.4451
  121OSM    H9F12832   6.356   3.936   7.720 -1.9939  1.2140  0.8982
  121OSM   C10F12833   6.473   4.109   7.708  0.2941 -0.4312 -0.8583
  121OSM   H10F12834   6.546   4.059   7.774 -2.2693 -1.4116  1.4069
  121OSM   C11F12835   6.498   4.253   7.665 -0.7777  0.0013 -0.2532
  121OSM   H11F12836   6.455   4.283   7.567  0.3089  2.5135 -0.0450
  121OSM   H11G12837   6.609   4.258   7.660 -0.7633 -1.0694 -1.3939
  121OSM   C12F12838   6.445   4.351   7.771 -0.2708  0.0909  0.0510
  121OSM   H12F12839   6.334   4.353   7.785 -0.1208 -0.3463  1.4968
  121OSM   H12G12840   6.481   4.450   7.738 -0.4537  1.7033  4.0603
  121OSM   C13F12841   6.500   4.329   7.916  0.1730 -0.4077 -0.6361
  121OSM   H13F12842   6.611   4.328   7.902  0.4550  1.3826  1.0242
  121OSM   H13G12843   6.484   4.228   7.958  6.0530 -1.1259  0.8009
  121OSM   C14F12844   6.457   4.431   8.020  0.2142  0.1323 -0.3615
  121OSM   H14F12845   6.348   4.434   8.041  0.4612 -2.6732  1.8820
  121OSM   H14G12846   6.482   4.529   7.973 -1.1357  1.8773  2.2613
  121OSM   C15F12847   6.532   4.408   8.154  0.6912 -0.1321 -0.1250
  121OSM   H15F12848   6.639   4.433   8.133  0.3717  2.1577  0.7046
  121OSM   H15G12849   6.530   4.306   8.197  1.7458  0.4258  1.3045
  121OSM   C16F12850   6.475   4.495   8.263 -0.8645 -0.7306 -0.7254
  121OSM   H16F12851   6.539   4.458   8.346 -0.9459 -2.5033 -1.3993
  121OSM   H16G12852   6.369   4.487   8.295  0.2283 -0.5188  3.5250
  121OSM   C17F12853   6.519   4.648   8.255  0.1578  0.1500  0.0061
  121OSM   H17F12854   6.624   4.647   8.218  0.1599  0.0782  0.0129
  121OSM   H17G12855   6.532   4.689   8.357 -1.8275 -1.8010  1.1318
  121OSM   C18F12856   6.430   4.736   8.162  0.7516  0.0389  0.0378
  121OSM   H18F12857   6.461   4.842   8.152  0.6058  0.0057 -0.8546
  121OSM   H18G12858   6.322   4.730   8.186  0.6076 -3.4400 -0.8385
  121OSM   H18H12859   6.417   4.689   8.062 -0.4702 -1.0170  0.6601
  122OSM      N12860   5.355   5.709   6.305  0.2479 -1.4150  1.0986
  122OSM    C1512861   5.359   5.726   6.449  0.2720  0.0799  0.0049
  122OSM   H15A12862   5.266   5.733   6.505  0.7590  0.8204  0.7545
  122OSM   H15B12863   5.402   5.823   6.472 -0.4898  0.5635 -0.5241
  122OSM   H15C12864   5.413   5.647   6.499  0.4550 -0.9223 -1.7236
  122OSM    C1412865   5.494   5.678   6.258 -0.7204 -0.4669 -0.4856
  122OSM   H14A12866   5.505   5.661   6.152 -2.7707 -2.6237 -0.4532
  122OSM   H14B12867   5.524   5.581   6.295  1.3649 -0.5864 -2.2581
  122OSM   H14C12868   5.567   5.749   6.294  3.3431 -3.9177 -1.0024
  122OSM    C1312869   5.265   5.595   6.268  0.1607  0.1756 -0.3090
  122OSM   H13A12870   5.318   5.501   6.279 -0.1834  0.1436  1.2306
  122OSM   H13B12871   5.231   5.613   6.167 -2.8717  2.2293  0.9425
  122OSM   H13C12872   5.180   5.606   6.334  0.8286 -0.0931  0.6262
  122OSM    C1212873   5.299   5.835   6.245 -0.3392 -0.7401 -0.1234
  122OSM   H12A12874   5.373   5.914   6.250 -0.9989 -0.0562 -0.8936
  122OSM   H12B12875   5.215   5.865   6.305  0.9646  1.1532  0.8320
  122OSM    C1112876   5.259   5.814   6.095 -0.5786  0.2251 -0.3065
  122OSM   H11A12877   5.345   5.773   6.039 -0.6793 -1.8814  0.9524
  122OSM   H11B12878   5.251   5.920   6.062 -1.1436  1.1951  2.6306
  122OSM      P12879   5.003   5.794   6.117 -0.3112 -0.4336 -0.4399
  122OSM    O1312880   4.967   5.919   6.045 -0.7356 -0.1317  0.2718
  122OSM    O1412881   4.908   5.684   6.119 -0.0967  0.0823 -0.2311
  122OSM    O1112882   5.034   5.838   6.261  0.1802 -0.2981  0.1958
  122OSM    O1212883   5.138   5.743   6.066  0.1325 -0.0138 -0.6136
  122OSM    C1S12884   4.982   5.778   6.378 -0.2489 -0.3583  0.3346
  122OSM    H1S12885   5.038   5.682   6.387 -1.2264 -1.0301 -0.4088
  122OSM    H1T12886   4.879   5.740   6.364 -0.3649 -0.1520  0.6239
  122OSM     NF12887   4.937   5.779   6.616 -0.2027 -0.3423  0.0583
  122OSM    HNF12888   4.840   5.771   6.634  0.1848 -2.4631  1.5713
  122OSM    C2S12889   4.985   5.864   6.501  0.5584  0.0941  0.6097
  122OSM    H2S12890   5.088   5.902   6.517  0.8916 -0.8628  0.8086
  122OSM    C3S12891   4.901   5.987   6.471 -0.0847 -0.4413  0.1797
  122OSM    H3S12892   4.796   5.956   6.452  0.0059 -1.3557  1.0802
  122OSM     O312893   4.940   6.045   6.348  0.3904  0.4131  0.2618
  122OSM    HO312894   5.001   5.983   6.307 -1.4403 -0.0551 -1.9171
  122OSM    C4S12895   4.904   6.086   6.585 -0.0227  0.5142  0.1200
  122OSM    H4S12896   4.996   6.144   6.598 -0.4441  0.9001  1.6113
  122OSM    C5S12897   4.811   6.103   6.685  0.7136  0.1418 -0.0190
  122OSM    H5S12898   4.731   6.028   6.696  0.1354  0.8720  0.9430
  122OSM    C6S12899   4.809   6.198   6.793 -0.3218  0.2263  0.4021
  122OSM    H6S12900   4.840   6.298   6.755  0.4647 -0.1711 -0.0133
  122OSM    H6T12901   4.886   6.178   6.870  0.1472  2.3699  0.5568
  122OSM    C7S12902   4.668   6.194   6.856 -0.3478 -0.1114  0.2793
  122OSM    H7S12903   4.630   6.090   6.860  0.2659 -0.3349  0.5477
  122OSM    H7T12904   4.601   6.247   6.785 -0.7581  1.9617  2.0892
  122OSM    C8S12905   4.654   6.256   6.997 -0.2257  0.2910 -0.0548
  122OSM    H8S12906   4.548   6.251   7.031  0.0617  0.8335  0.9814
  122OSM    H8T12907   4.669   6.365   6.980 -1.0263  0.3013 -0.7713
  122OSM    C9S12908   4.745   6.188   7.105  0.6907 -0.0525 -0.3609
  122OSM    H9S12909   4.851   6.185   7.075  0.5344  0.2855 -0.9535
  122OSM    H9T12910   4.702   6.089   7.132 -0.1718  0.6723  1.0663
  122OSM   C10S12911   4.746   6.266   7.229 -0.0500  0.9939  0.1367
  122OSM   H10S12912   4.642   6.275   7.266 -0.4523  0.9126 -0.9407
  122OSM   H10T12913   4.804   6.359   7.213  0.4115  0.3204 -2.7219
  122OSM   C11S12914   4.821   6.192   7.342  0.1847 -1.0521 -0.6130
  122OSM   H11S12915   4.927   6.195   7.312  1.0251 -1.2546  2.0738
  122OSM   H11T12916   4.785   6.088   7.355 -0.0802 -0.6245  3.3533
  122OSM   C12S12917   4.816   6.265   7.477 -0.3190 -0.8205 -0.2257
  122OSM   H12S12918   4.708   6.277   7.498 -0.4823 -1.1636 -0.8515
  122OSM   H12T12919   4.868   6.361   7.458 -0.7316 -0.6110 -0.3066
  122OSM   C13S12920   4.892   6.188   7.581 -0.4828  0.6765  0.6145
  122OSM   H13S12921   5.002   6.178   7.573 -0.2564  2.1188  1.4790
  122OSM   H13T12922   4.857   6.083   7.582 -0.0999  0.5426  1.5082
  122OSM   C14S12923   4.870   6.230   7.728 -0.1641  0.3422 -0.5410
  122OSM   H14S12924   4.763   6.206   7.749 -0.6019  1.5318 -1.2960
  122OSM   H14T12925   4.877   6.341   7.734 -1.0759  0.5361 -2.3869
  122OSM   C15S12926   4.972   6.179   7.835 -0.0246 -0.5547 -0.1258
  122OSM   H15S12927   5.075   6.202   7.799  0.4262 -0.5459  1.1322
  122OSM   H15T12928   4.960   6.068   7.840 -0.2731 -0.4768  1.1447
  122OSM   C16S12929   4.950   6.238   7.975 -0.4038  0.0389 -0.3136
  122OSM   H16S12930   4.849   6.214   8.015 -0.2684  0.7030  0.4437
  122OSM   H16T12931   4.967   6.346   7.957  0.3195  0.1049  0.7183
  122OSM   C17S12932   5.056   6.185   8.068 -0.8585  0.2811  0.3799
  122OSM   H17S12933   5.158   6.211   8.034 -0.5807  0.4083  1.2764
  122OSM   H17T12934   5.044   6.075   8.067  1.7147 -0.0568 -0.4920
  122OSM   C18S12935   5.044   6.240   8.213  0.4847 -0.1331 -0.3833
  122OSM   H18S12936   4.938   6.220   8.237 -0.5094 -0.3297 -4.2143
  122OSM   H18T12937   5.055   6.351   8.214  1.0463 -0.1355 -2.2792
  122OSM   H18U12938   5.114   6.200   8.290  2.4841  1.2810 -1.3720
  122OSM    C1F12939   5.011   5.690   6.686  0.9943  0.3905 -0.4785
  122OSM     OF12940   5.129   5.677   6.660  0.0040  0.5559  0.5145
  122OSM    C2F12941   4.929   5.615   6.791 -0.0986  0.2651  0.0303
  122OSM    H2F12942   4.844   5.572   6.733 -0.2554 -0.5879  0.8667
  122OSM    H2G12943   4.888   5.694   6.858 -0.6678  1.2968 -1.4722
  122OSM    C3F12944   5.014   5.504   6.868  0.3201 -0.2559 -0.1408
  122OSM    H3F12945   5.086   5.457   6.798 -0.9653 -0.1749 -1.5596
  122OSM    H3G12946   4.945   5.432   6.917  0.1007  0.6712  0.9823
  122OSM    C4F12947   5.101   5.573   6.980 -0.1082  0.2503 -1.0282
  122OSM    H4F12948   5.048   5.630   7.059 -0.3254 -1.4766  0.1217
  122OSM    H4G12949   5.166   5.644   6.924  1.3590  0.2664  0.6085
  122OSM    C5F12950   5.189   5.463   7.050  0.3473  0.1793  0.2474
  122OSM    H5F12951   5.279   5.512   7.095 -1.2347  3.2996  0.3142
  122OSM    H5G12952   5.232   5.398   6.971 -0.1404  0.1544  0.0022
  122OSM    C6F12953   5.109   5.388   7.156  0.1198 -0.5886  0.3334
  122OSM    H6F12954   5.020   5.352   7.101  0.0395 -2.5285  1.6520
  122OSM    H6G12955   5.082   5.469   7.227  1.4916  0.2100 -0.0071
  122OSM    C7F12956   5.188   5.280   7.226 -0.1324  0.1623 -0.3856
  122OSM    H7F12957   5.279   5.323   7.272 -0.1143  1.3753 -1.5045
  122OSM    H7G12958   5.219   5.209   7.147 -0.4543  1.1438 -1.4277
  122OSM    C8F12959   5.119   5.215   7.346  0.3424 -0.5894  0.2178
  122OSM    H8F12960   5.017   5.191   7.309  0.7195 -2.3937  0.2567
  122OSM    H8G12961   5.096   5.288   7.427 -0.3456 -2.6092  1.9476
  122OSM    C9F12962   5.171   5.084   7.400 -0.6538  0.3253  0.1149
  122OSM    H9F12963   5.124   5.000   7.347 -0.7709  0.5056 -0.0707
  122OSM   C10F12964   5.239   5.066   7.513  1.2424 -0.2710  0.0923
  122OSM   H10F12965   5.257   4.962   7.545  1.9590  0.1930  1.2564
  122OSM   C11F12966   5.275   5.176   7.607 -0.6896 -0.2707  0.9332
  122OSM   H11F12967   5.211   5.266   7.594 -0.5254 -0.4116 -1.2759
  122OSM   H11G12968   5.384   5.201   7.615 -0.1745 -1.7425 -0.8140
  122OSM   C12F12969   5.244   5.131   7.753  0.4045  0.2452  0.0257
  122OSM   H12F12970   5.256   5.220   7.820 -3.0834 -0.6081  2.0180
  122OSM   H12G12971   5.317   5.057   7.793  0.1899  0.7109  1.3280
  122OSM   C13F12972   5.100   5.080   7.777  0.8118  0.4666  0.3279
  122OSM   H13F12973   5.085   5.010   7.693  0.0233  1.0067  0.0089
  122OSM   H13G12974   5.033   5.163   7.747 -0.6941  0.7244  3.9103
  122OSM   C14F12975   5.062   5.039   7.921 -0.0185 -0.2048  0.2676
  122OSM   H14F12976   5.140   4.968   7.957 -0.8047 -0.4490  1.5404
  122OSM   H14G12977   4.962   4.992   7.917 -1.1176  2.0170  0.5241
  122OSM   C15F12978   5.063   5.147   8.025  0.3027  0.0445 -0.5739
  122OSM   H15F12979   4.984   5.223   8.007 -0.6644 -0.3309  1.7757
  122OSM   H15G12980   5.155   5.209   8.025 -0.9741  2.1007  1.2690
  122OSM   C16F12981   5.044   5.097   8.175  0.3583 -0.3971  0.7888
  122OSM   H16F12982   4.949   5.039   8.181  0.8194 -1.2815 -0.0249
  122OSM   H16G12983   5.038   5.184   8.243  1.4364  1.3957 -1.2587
  122OSM   C17F12984   5.162   5.024   8.234 -0.5587  0.4782 -0.6268
  122OSM   H17F12985   5.181   4.924   8.190  0.8841 -0.1679  1.3673
  122OSM   H17G12986   5.129   4.981   8.330 -0.1013 -2.2618 -1.6092
  122OSM   C18F12987   5.288   5.108   8.257 -0.8612  0.0684 -0.0729
  122OSM   H18F12988   5.287   5.164   8.353  0.3669  1.1824 -0.6732
  122OSM   H18G12989   5.310   5.169   8.166 -1.5274 -0.3705 -0.5335
  122OSM   H18H12990   5.370   5.035   8.275 -0.1282  1.3472  2.2393
  123OSM      N12991   2.011   1.802   6.672 -0.3112  0.4639  0.3869
  123OSM    C1512992   1.876   1.811   6.739  0.1670  0.2166  1.0056
  123OSM   H15A12993   1.884   1.777   6.841 -2.0095 -3.4810  0.1344
  123OSM   H15B12994   1.818   1.737   6.686 -0.0504 -0.5716  2.2772
  123OSM   H15C12995   1.823   1.905   6.742 -0.0540  0.1167  0.3419
  123OSM    C1412996   1.997   1.876   6.546 -0.1973 -0.0798  0.7844
  123OSM   H14A12997   2.093   1.877   6.496 -0.8387  1.9328 -0.5176
  123OSM   H14B12998   1.974   1.981   6.557  0.4771  0.0937  0.5797
  123OSM   H14C12999   1.924   1.830   6.481 -0.2668  1.0458  0.0318
  123OSM    C1313000   2.100   1.887   6.758  0.2782  0.1242  0.2314
  123OSM   H13A13001   2.103   1.871   6.865  0.7748 -2.1752 -0.0936
  123OSM   H13B13002   2.069   1.990   6.748 -0.3865 -0.2070 -1.3514
  123OSM   H13C13003   2.205   1.887   6.732  0.6008 -1.5840  1.3921
  123OSM    C1213004   2.062   1.664   6.647  0.8629 -0.2678  0.7200
  123OSM   H12A13005   2.067   1.616   6.744 -0.1220 -0.7610  0.5374
  123OSM   H12B13006   2.166   1.671   6.616  1.6085  3.0180  3.3951
  123OSM    C1113007   1.969   1.570   6.573  0.1860  0.6986  0.2917
  123OSM   H11A13008   2.026   1.475   6.565 -0.2418  0.3535  1.1778
  123OSM   H11B13009   1.948   1.593   6.466 -0.5123 -2.0037 -0.2383
  123OSM      P13010   1.828   1.454   6.752  0.5050  0.0094  0.2882
  123OSM    O1313011   1.905   1.331   6.723 -0.4329  0.5830 -0.0070
  123OSM    O1413012   1.851   1.522   6.879  0.2843  0.3999 -0.2433
  123OSM    O1113013   1.679   1.400   6.730 -0.2953 -0.6928 -0.1294
  123OSM    O1213014   1.846   1.555   6.633  0.7670 -0.7855  0.4097
  123OSM    C1S13015   1.636   1.287   6.796  0.0754  0.0298  0.0598
  123OSM    H1S13016   1.719   1.215   6.814 -0.2845 -0.2957  0.4372
  123OSM    H1T13017   1.568   1.232   6.728  0.7569 -0.7544 -0.0128
  123OSM     NF13018   1.508   1.175   6.962  0.2368 -0.2947 -0.2234
  123OSM    HNF13019   1.410   1.161   6.950  0.8067 -3.4630 -2.4828
  123OSM    C2S13020   1.552   1.307   6.923 -0.3984  0.1420  1.0260
  123OSM    H2S13021   1.614   1.355   7.001  1.2709  0.2738 -0.3181
  123OSM    C3S13022   1.428   1.390   6.896 -0.4380 -0.4469  0.3917
  123OSM    H3S13023   1.368   1.333   6.823 -1.4106  0.2031  0.6646
  123OSM     O313024   1.451   1.519   6.831 -0.4875  0.7576  0.2017
  123OSM    HO313025   1.519   1.495   6.767 -2.9151 -0.6390 -2.0806
  123OSM    C4S13026   1.355   1.415   7.023 -0.2335  0.3322  0.1049
  123OSM    H4S13027   1.408   1.467   7.105 -0.1263  1.3890 -0.6211
  123OSM    C5S13028   1.233   1.371   7.049  0.3179 -0.7355 -0.3831
  123OSM    H5S13029   1.177   1.303   6.983 -1.2889 -2.3039  2.4333
  123OSM    C6S13030   1.156   1.403   7.179 -0.1438 -0.2153  0.1083
  123OSM    H6S13031   1.056   1.354   7.178  0.0058 -0.5267  0.0698
  123OSM    H6T13032   1.134   1.512   7.185  1.1665  0.1145 -0.7121
  123OSM    C7S13033   1.238   1.360   7.297 -0.3699  0.9513  0.0514
  123OSM    H7S13034   1.335   1.414   7.304  1.1352 -1.4412 -1.0374
  123OSM    H7T13035   1.268   1.254   7.299 -0.4105  0.9448  0.4267
  123OSM    C8S13036   1.173   1.372   7.436 -0.3760 -0.3675  0.9399
  123OSM    H8S13037   1.082   1.309   7.448 -1.3499  0.8601  0.3115
  123OSM    H8T13038   1.135   1.476   7.444  1.7285  0.4892  0.3780
  123OSM    C9S13039   1.256   1.333   7.558 -0.7019  0.0107  0.6986
  123OSM    H9S13040   1.357   1.379   7.549 -0.5774 -0.4403 -0.5285
  123OSM    H9T13041   1.292   1.227   7.557  3.3851  1.2140 -0.5569
  123OSM   C10S13042   1.186   1.352   7.695  0.3933 -0.5789 -0.0828
  123OSM   H10S13043   1.081   1.316   7.700  0.6001 -1.4817 -1.6474
  123OSM   H10T13044   1.173   1.459   7.721 -1.2371 -1.7010  4.8725
  123OSM   C11S13045   1.258   1.291   7.805 -0.3367  0.0317 -0.2684
  123OSM   H11S13046   1.341   1.362   7.824 -0.9200  0.6309  0.1143
  123OSM   H11T13047   1.301   1.191   7.782 -0.5914 -0.1196 -0.0962
  123OSM   C12S13048   1.175   1.286   7.929 -0.0142 -0.0852 -0.0736
  123OSM   H12S13049   1.089   1.216   7.922  1.0268 -1.4027 -0.1382
  123OSM   H12T13050   1.128   1.385   7.943 -1.6116 -0.8534  0.1366
  123OSM   C13S13051   1.258   1.250   8.057 -0.8539  0.2185  0.3199
  123OSM   H13S13052   1.362   1.283   8.040 -1.2251  0.5523 -1.4495
  123OSM   H13T13053   1.251   1.140   8.069 -0.5193  0.2278  0.6081
  123OSM   C14S13054   1.196   1.306   8.184 -0.4060  0.0947  0.2918
  123OSM   H14S13055   1.094   1.267   8.203 -0.1561 -0.0264  1.4843
  123OSM   H14T13056   1.173   1.414   8.170  0.2758  0.2967  0.6795
  123OSM   C15S13057   1.267   1.280   8.320 -0.4743 -0.4421 -1.0581
  123OSM   H15S13058   1.370   1.322   8.313 -1.3067  2.2321  1.1147
  123OSM   H15T13059   1.270   1.172   8.346 -1.8505 -0.9287 -2.7683
  123OSM   C16S13060   1.205   1.354   8.440  0.2091 -0.0098  0.0362
  123OSM   H16S13061   1.100   1.323   8.457  0.3971 -0.6910 -0.0415
  123OSM   H16T13062   1.201   1.463   8.418 -0.2111 -0.5758 -3.1074
  123OSM   C17S13063   1.274   1.334   8.576 -0.1846  0.1112 -0.0977
  123OSM   H17S13064   1.382   1.332   8.549  0.2733 -2.2425  1.6195
  123OSM   H17T13065   1.257   1.232   8.616 -3.9256  1.3916  2.1661
  123OSM   C18S13066   1.233   1.432   8.685 -0.4955  0.2513 -0.1600
  123OSM   H18S13067   1.171   1.518   8.653 -1.7359 -0.1525  1.0329
  123OSM   H18T13068   1.323   1.461   8.744  0.2385 -0.2724 -0.9944
  123OSM   H18U13069   1.168   1.373   8.754  2.5030  1.0479  3.7052
  123OSM    C1F13070   1.597   1.084   7.017 -0.3018  0.5979  0.4084
  123OSM     OF13071   1.716   1.113   7.036  0.2294 -0.4212  0.1648
  123OSM    C2F13072   1.531   0.944   7.027  0.6117 -0.5586  0.3297
  123OSM    H2F13073   1.616   0.878   7.000 -0.0986 -0.8255 -1.3426
  123OSM    H2G13074   1.451   0.934   6.951  0.7355  1.8597 -0.1955
  123OSM    C3F13075   1.480   0.893   7.164 -0.8305 -0.1188  0.0998
  123OSM    H3F13076   1.561   0.911   7.238  0.7130 -0.6275 -1.3858
  123OSM    H3G13077   1.481   0.783   7.145  0.8503  0.0469 -1.0846
  123OSM    C4F13078   1.345   0.954   7.201  0.1206  0.4752  0.3110
  123OSM    H4F13079   1.263   0.903   7.146 -0.4638  0.5030  1.1394
  123OSM    H4G13080   1.338   1.056   7.157  0.8159  0.9209  1.1926
  123OSM    C5F13081   1.315   0.934   7.351 -0.3670 -0.8580 -0.4305
  123OSM    H5F13082   1.219   0.984   7.375 -0.4985 -1.4875  0.3680
  123OSM    H5G13083   1.403   0.981   7.400 -0.1121 -1.2095 -0.5450
  123OSM    C6F13084   1.321   0.784   7.391 -0.2402  0.6650  0.0672
  123OSM    H6F13085   1.427   0.751   7.393 -0.0760  1.1229  3.2993
  123OSM    H6G13086   1.276   0.721   7.311 -0.1584 -0.8023  1.1390
  123OSM    C7F13087   1.241   0.765   7.519  0.5245 -0.4287  0.3329
  123OSM    H7F13088   1.139   0.799   7.491  0.2448 -0.1842  1.5895
  123OSM    H7G13089   1.267   0.831   7.604  0.4931  0.8760 -0.6433
  123OSM    C8F13090   1.222   0.619   7.566  0.1926 -0.0918  0.3357
  123OSM    H8F13091   1.175   0.621   7.666 -1.3393 -3.2572 -0.1951
  123OSM    H8G13092   1.326   0.588   7.588  0.1818 -0.7302 -0.4671
  123OSM    C9F13093   1.144   0.532   7.468 -0.6024  0.0999  0.8412
  123OSM    H9F13094   1.048   0.579   7.441 -0.5985 -0.2231  0.2589
  123OSM   C10F13095   1.165   0.405   7.432 -0.3574  0.2571  0.0795
  123OSM   H10F13096   1.106   0.367   7.347  0.6844  0.8601 -0.9446
  123OSM   C11F13097   1.273   0.309   7.477  0.2773 -0.3023  0.6376
  123OSM   H11F13098   1.368   0.357   7.508 -1.3867  2.4860  1.9157
  123OSM   H11G13099   1.310   0.250   7.391 -0.5082 -0.5024  0.4292
  123OSM   C12F13100   1.232   0.210   7.591  0.6129  0.4432  0.0173
  123OSM   H12F13101   1.312   0.138   7.618  0.9025  0.2601 -1.2599
  123OSM   H12G13102   1.146   0.158   7.544  1.2718 -0.1947 -0.5088
  123OSM   C13F13103   1.184   0.281   7.715 -0.6599  0.0661 -0.8812
  123OSM   H13F13104   1.096   0.344   7.690 -0.4816  0.8332  0.3115
  123OSM   H13G13105   1.262   0.357   7.740  0.6264 -0.7229 -2.2879
  123OSM   C14F13106   1.158   0.199   7.840 -0.1565  0.0189 -0.1430
  123OSM   H14F13107   1.243   0.175   7.908  1.1755 -1.3546 -2.1897
  123OSM   H14G13108   1.113   0.104   7.806  1.8961 -1.1045  0.1136
  123OSM   C15F13109   1.061   0.272   7.936 -0.4169 -0.3978  0.4811
  123OSM   H15F13110   0.968   0.286   7.876  0.9530  2.4286 -1.2067
  123OSM   H15G13111   1.093   0.376   7.959 -1.0178  0.1837 -1.1403
  123OSM   C16F13112   1.039   0.195   8.067  0.5353 -0.3638  0.3202
  123OSM   H16F13113   1.141   0.183   8.109  0.6937 -0.3624 -0.0583
  123OSM   H16G13114   0.990   0.095   8.068  1.0296 -0.6087  1.3890
  123OSM   C17F13115   0.960   0.276   8.174 -0.0079  0.4152  0.2180
  123OSM   H17F13116   1.005   0.377   8.183 -0.3797  0.6152 -0.1501
  123OSM   H17G13117   0.975   0.228   8.273 -2.0191  0.1489  0.4356
  123OSM   C18F13118   0.806   0.304   8.140 -0.0913  0.2461  0.2773
  123OSM   H18F13119   0.805   0.351   8.039  1.5879 -0.7396 -0.2388
  123OSM   H18G13120   0.752   0.367   8.214  1.4554 -0.1148  1.7799
  123OSM   H18H13121   0.756   0.206   8.129 -0.6111  0.5030  0.2970
  124OSM      N13122   3.656   3.179   5.907 -0.1308  0.3626 -0.5384
  124OSM    C1513123   3.729   3.300   5.848  0.1630 -0.1730 -0.1579
  124OSM   H15A13124   3.813   3.267   5.790  0.5663  2.3561 -1.1445
  124OSM   H15B13125   3.769   3.363   5.926  0.0997 -0.7567  0.3518
  124OSM   H15C13126   3.679   3.354   5.769 -0.7316  0.0776  0.5578
  124OSM    C1413127   3.534   3.231   5.980  0.5124 -0.5695 -0.2862
  124OSM   H14A13128   3.484   3.296   5.910  1.0858 -0.7452 -0.8650
  124OSM   H14B13129   3.559   3.288   6.068 -1.5233 -1.7272  1.1243
  124OSM   H14C13130   3.465   3.157   6.017 -1.7478  1.5535 -0.0034
  124OSM    C1313131   3.609   3.088   5.799 -0.2191 -0.3926 -0.0346
  124OSM   H13A13132   3.564   2.998   5.837  2.7235 -1.7090  0.6445
  124OSM   H13B13133   3.700   3.054   5.750  0.3087  0.4217  0.3583
  124OSM   H13C13134   3.551   3.139   5.723  0.0476  0.1787  0.1351
  124OSM    C1213135   3.749   3.101   6.000 -0.7702 -0.2874 -0.0206
  124OSM   H12A13136   3.821   3.057   5.933 -1.4903 -0.7064 -0.5358
  124OSM   H12B13137   3.699   3.021   6.051 -2.0376  0.2989 -0.3038
  124OSM    C1113138   3.835   3.188   6.100 -0.3745  0.5878  0.8481
  124OSM   H11A13139   3.873   3.114   6.173 -0.8596 -1.0056 -0.4589
  124OSM   H11B13140   3.778   3.257   6.166  2.1035  1.3554  2.3506
  124OSM      P13141   4.068   3.167   5.980  0.0338 -0.0961  0.2038
  124OSM    O1313142   4.016   3.054   5.902 -0.3744  0.4099  0.5007
  124OSM    O1413143   4.162   3.260   5.906 -0.0534  0.5549 -0.5976
  124OSM    O1113144   4.133   3.105   6.103 -0.6100  0.9084 -0.5727
  124OSM    O1213145   3.941   3.251   6.025 -0.3607  0.0154  0.3413
  124OSM    C1S13146   4.221   3.180   6.196  0.7902 -0.3248 -0.3227
  124OSM    H1S13147   4.197   3.289   6.201 -1.8426 -0.8079 -0.8934
  124OSM    H1T13148   4.325   3.177   6.156  1.5501  0.4885  1.4634
  124OSM     NF13149   4.295   3.223   6.439  0.1590 -0.3559  0.0693
  124OSM    HNF13150   4.378   3.178   6.471 -0.5560 -2.0851 -0.3964
  124OSM    C2S13151   4.214   3.133   6.344  0.1865 -0.1521  0.0652
  124OSM    H2S13152   4.107   3.132   6.375  0.2481 -1.2394  0.2772
  124OSM    C3S13153   4.258   2.982   6.354 -0.9875 -0.3700 -0.3194
  124OSM    H3S13154   4.366   2.982   6.326 -1.3110 -0.1474 -1.6145
  124OSM     O313155   4.194   2.894   6.260 -0.5186  0.4688 -0.4353
  124OSM    HO313156   4.158   2.954   6.194 -0.3306  1.2995  0.1944
  124OSM    C4S13157   4.243   2.916   6.493 -0.0474  0.2001 -0.8781
  124OSM    H4S13158   4.305   2.961   6.572  0.2576 -2.6855  0.6668
  124OSM    C5S13159   4.163   2.812   6.530 -0.1135 -0.0607 -0.0042
  124OSM    H5S13160   4.086   2.771   6.463  0.9770 -1.5545 -0.3923
  124OSM    C6S13161   4.158   2.750   6.667  0.0213 -0.7187 -0.4811
  124OSM    H6S13162   4.243   2.790   6.726 -0.4249 -2.4093  1.4158
  124OSM    H6T13163   4.171   2.639   6.666  0.8985 -0.6289 -0.1736
  124OSM    C7S13164   4.022   2.785   6.735 -0.0474  0.3151 -0.0895
  124OSM    H7S13165   3.940   2.755   6.666  0.7314  1.8455 -1.7540
  124OSM    H7T13166   4.028   2.896   6.744  0.0467  0.2222  1.1677
  124OSM    C8S13167   4.015   2.718   6.871 -0.3405 -0.9582 -0.3545
  124OSM    H8S13168   4.001   2.608   6.859 -1.3352 -0.7556 -1.2211
  124OSM    H8T13169   3.930   2.754   6.933 -0.5386  0.6202 -1.4778
  124OSM    C9S13170   4.138   2.739   6.955  0.0873  0.2773  0.8952
  124OSM    H9S13171   4.130   2.847   6.981 -0.2857  0.4812 -0.0349
  124OSM    H9T13172   4.234   2.709   6.907  1.5104  3.6725  1.3445
  124OSM   C10S13173   4.117   2.656   7.085 -0.0226  0.3345 -0.2394
  124OSM   H10S13174   4.192   2.575   7.097  1.1952  1.3926 -0.3353
  124OSM   H10T13175   4.009   2.630   7.081 -0.4281  1.8194  0.3550
  124OSM   C11S13176   4.127   2.747   7.211 -0.1999 -0.4853  0.4679
  124OSM   H11S13177   4.065   2.839   7.202 -0.5375 -0.7966 -0.4972
  124OSM   H11T13178   4.233   2.782   7.216 -0.0979 -0.8205  0.7214
  124OSM   C12S13179   4.104   2.676   7.349 -0.9762  0.2985  0.3503
  124OSM   H12S13180   4.195   2.612   7.355 -1.3388 -0.5648 -2.3027
  124OSM   H12T13181   4.011   2.616   7.360  0.3301 -1.3791  4.1444
  124OSM   C13S13182   4.115   2.766   7.478  0.6880  0.6621 -0.2475
  124OSM   H13S13183   4.037   2.845   7.484  0.2881  0.2265  0.4139
  124OSM   H13T13184   4.218   2.806   7.493  2.3413 -2.0132 -3.2322
  124OSM   C14S13185   4.098   2.677   7.600 -0.3085  0.2005  0.0985
  124OSM   H14S13186   4.178   2.600   7.600  2.1092  2.5697 -0.7797
  124OSM   H14T13187   4.012   2.607   7.592  0.5191 -0.7612 -0.6786
  124OSM   C15S13188   4.104   2.748   7.731 -0.0875 -0.6509 -0.4527
  124OSM   H15S13189   4.013   2.812   7.740 -0.4510 -1.1694 -0.4007
  124OSM   H15T13190   4.188   2.822   7.734 -0.9221  0.3298 -0.7215
  124OSM   C16S13191   4.112   2.654   7.854  0.3703 -0.0548 -0.5370
  124OSM   H16S13192   4.179   2.566   7.840  1.4578  0.2156  2.3758
  124OSM   H16T13193   4.022   2.593   7.878  0.0959  0.3359 -0.5760
  124OSM   C17S13194   4.151   2.719   7.985  0.1206  0.1106  0.4811
  124OSM   H17S13195   4.248   2.774   7.979  0.8782 -1.2107  0.3757
  124OSM   H17T13196   4.165   2.641   8.062 -0.5825 -0.6332 -0.1356
  124OSM   C18S13197   4.044   2.816   8.036  0.0380  0.1496 -0.4571
  124OSM   H18S13198   4.070   2.861   8.135  1.4319 -1.1572 -0.2041
  124OSM   H18T13199   3.938   2.783   8.038  0.5253 -1.4841  1.5818
  124OSM   H18U13200   4.035   2.902   7.966 -3.6918 -0.3687 -0.8113
  124OSM    C1F13201   4.288   3.355   6.456  0.6113  0.2729  0.1436
  124OSM     OF13202   4.203   3.421   6.398  0.0890  0.0495 -0.1254
  124OSM    C2F13203   4.390   3.418   6.554  0.1519 -0.6428 -0.6065
  124OSM    H2F13204   4.482   3.442   6.496  0.4189 -3.1945 -1.3298
  124OSM    H2G13205   4.403   3.346   6.637  0.5292  1.5139  1.3061
  124OSM    C3F13206   4.348   3.553   6.622  0.6150 -0.1069 -0.7910
  124OSM    H3F13207   4.245   3.549   6.664  0.8577  3.0196  0.3604
  124OSM    H3G13208   4.342   3.633   6.545  1.2382  1.3307  0.6069
  124OSM    C4F13209   4.442   3.596   6.733  0.3216 -0.3619 -0.3473
  124OSM    H4F13210   4.432   3.706   6.743 -1.2341 -0.3955 -1.2229
  124OSM    H4G13211   4.548   3.577   6.706  0.3865  1.4198 -1.5291
  124OSM    C5F13212   4.410   3.522   6.862 -0.2189  0.7369 -0.2439
  124OSM    H5F13213   4.412   3.415   6.833 -0.7862  0.9213 -0.9736
  124OSM    H5G13214   4.310   3.551   6.901  0.2153  0.8251  0.8562
  124OSM    C6F13215   4.521   3.539   6.970  0.9282 -0.3399 -0.3224
  124OSM    H6F13216   4.525   3.641   7.012 -1.2026 -0.2786 -0.1731
  124OSM    H6G13217   4.622   3.515   6.929  0.8430 -0.1804 -0.6337
  124OSM    C7F13218   4.498   3.454   7.093  0.2149  0.0793  0.0114
  124OSM    H7F13219   4.484   3.349   7.060  4.2787  0.0024 -2.0915
  124OSM    H7G13220   4.411   3.478   7.158  0.4779  1.4291 -0.0929
  124OSM    C8F13221   4.629   3.442   7.175 -0.3839  0.1846 -1.1194
  124OSM    H8F13222   4.644   3.548   7.205 -0.0545 -0.1856  0.0551
  124OSM    H8G13223   4.717   3.419   7.112  2.4748 -1.0426  2.8985
  124OSM    C9F13224   4.623   3.332   7.286  0.2631 -0.2169 -0.0864
  124OSM    H9F13225   4.607   3.228   7.253 -2.4376 -0.8128  2.6562
  124OSM   C10F13226   4.621   3.343   7.423 -0.1470  0.0811 -0.1501
  124OSM   H10F13227   4.611   3.255   7.488 -0.9697  0.6677  0.5481
  124OSM   C11F13228   4.621   3.466   7.503  0.3850 -0.2562 -0.8053
  124OSM   H11F13229   4.566   3.547   7.450 -1.7849 -1.1458 -0.0123
  124OSM   H11G13230   4.723   3.505   7.524  0.4608 -0.2263 -1.2198
  124OSM   C12F13231   4.552   3.454   7.647 -0.0391 -0.1192 -0.1707
  124OSM   H12F13232   4.463   3.389   7.633 -0.6034  0.6627 -0.2655
  124OSM   H12G13233   4.525   3.553   7.688 -1.8995 -0.4325 -0.5587
  124OSM   C13F13234   4.638   3.403   7.761  0.5622  0.4151  0.4295
  124OSM   H13F13235   4.732   3.461   7.769  1.2909 -0.8293  1.0805
  124OSM   H13G13236   4.673   3.303   7.726  0.3019  1.3121 -2.7497
  124OSM   C14F13237   4.574   3.405   7.901  0.2307  0.4174  0.3236
  124OSM   H14F13238   4.479   3.349   7.899  1.1424 -1.2221 -2.6764
  124OSM   H14G13239   4.571   3.509   7.942 -1.2112  0.6072 -0.2290
  124OSM   C15F13240   4.654   3.329   8.015  0.4253 -0.0439  0.5251
  124OSM   H15F13241   4.665   3.222   7.988  0.1886 -0.4713  2.0230
  124OSM   H15G13242   4.592   3.337   8.107 -0.1230  0.3007  0.1295
  124OSM   C16F13243   4.794   3.388   8.043  0.3318  0.1647  0.0941
  124OSM   H16F13244   4.783   3.497   8.063  0.8471  0.5213 -1.4057
  124OSM   H16G13245   4.856   3.379   7.951 -0.6588 -0.6457 -0.5160
  124OSM   C17F13246   4.849   3.324   8.170  0.0465 -0.8759  0.1043
  124OSM   H17F13247   4.877   3.223   8.133  1.3008 -0.4167 -0.2436
  124OSM   H17G13248   4.779   3.323   8.256 -1.6914  2.7741 -1.0712
  124OSM   C18F13249   4.981   3.387   8.229 -0.6416  0.2693  0.1546
  124OSM   H18F13250   5.004   3.330   8.322  1.0441 -1.0417 -0.9866
  124OSM   H18G13251   4.969   3.497   8.229 -0.8599  0.2999 -2.2418
  124OSM   H18H13252   5.060   3.362   8.155  1.5871  1.8390  1.8935
  125OSM      N13253   6.114   2.542   6.480  0.4130 -0.2489 -0.0418
  125OSM    C1513254   6.024   2.603   6.376  0.0411 -0.2726  0.0710
  125OSM   H15A13255   6.077   2.660   6.302 -2.4553  0.9242 -0.9121
  125OSM   H15B13256   5.962   2.675   6.427 -1.3529  0.6695 -2.7529
  125OSM   H15C13257   5.962   2.528   6.328  0.5545 -2.5604  2.6931
  125OSM    C1413258   6.037   2.452   6.572  0.1446  0.4094  0.7024
  125OSM   H14A13259   5.957   2.499   6.627 -0.2017  1.6732 -0.7830
  125OSM   H14B13260   6.092   2.429   6.662 -0.9241  1.1112  1.5623
  125OSM   H14C13261   6.004   2.365   6.517  0.5656  1.0892 -0.6902
  125OSM    C1313262   6.220   2.459   6.419  0.3521  0.1036 -0.3996
  125OSM   H13A13263   6.185   2.376   6.360  0.5669  0.5142 -1.1167
  125OSM   H13B13264   6.282   2.438   6.505  0.8115  0.2736 -0.6850
  125OSM   H13C13265   6.279   2.527   6.358 -0.4878  1.8932  0.6980
  125OSM    C1213266   6.177   2.655   6.563 -0.5771  0.3441 -0.1606
  125OSM   H12A13267   6.252   2.699   6.499  0.7194  0.6370  1.4954
  125OSM   H12B13268   6.233   2.604   6.640  1.0214  0.3771 -1.2510
  125OSM    C1113269   6.086   2.769   6.617  0.0246  0.2399 -0.8414
  125OSM   H11A13270   6.135   2.817   6.705 -0.1635 -1.1022  0.0250
  125OSM   H11B13271   5.997   2.726   6.668  1.3864 -1.7415 -0.0294
  125OSM      P13272   6.097   3.011   6.499  0.1775  0.8862  0.1610
  125OSM    O1313273   6.206   3.038   6.393 -0.1282 -0.1479 -0.2169
  125OSM    O1413274   5.973   3.091   6.477  0.0636  0.1984  0.2092
  125OSM    O1113275   6.170   3.047   6.632  0.1567 -0.3739  0.1829
  125OSM    O1213276   6.057   2.852   6.507 -0.5190  0.2211 -0.5501
  125OSM    C1S13277   6.174   3.189   6.667  0.6447  0.5390  0.5825
  125OSM    H1S13278   6.087   3.243   6.623 -0.0135 -0.5460  0.4943
  125OSM    H1T13279   6.261   3.231   6.613 -0.7577  0.2109 -2.0860
  125OSM     NF13280   6.132   3.338   6.856  0.3549 -0.0366  0.2282
  125OSM    HNF13281   6.213   3.396   6.862  1.3152 -1.0304 -1.8501
  125OSM    C2S13282   6.169   3.205   6.819 -0.3570 -0.0506 -0.2196
  125OSM    H2S13283   6.099   3.130   6.862  0.4330  0.1639  1.5215
  125OSM    C3S13284   6.304   3.162   6.895  1.0482  0.7998  0.7451
  125OSM    H3S13285   6.379   3.237   6.861 -0.0984  0.4410 -3.0126
  125OSM     O313286   6.341   3.027   6.855 -0.3489  0.2503  0.2396
  125OSM    HO313287   6.292   3.013   6.774 -0.4201 -1.8120  0.6056
  125OSM    C4S13288   6.284   3.179   7.043  1.0531 -0.0539 -0.3104
  125OSM    H4S13289   6.199   3.117   7.073  2.1319 -1.4585 -0.0659
  125OSM    C5S13290   6.342   3.263   7.125 -0.2393  0.1956  0.3867
  125OSM    H5S13291   6.427   3.326   7.093  0.2142 -0.9186 -0.6797
  125OSM    C6S13292   6.305   3.300   7.268 -0.3473  0.3419  0.2406
  125OSM    H6S13293   6.227   3.379   7.270  2.3494  3.1764  0.8479
  125OSM    H6T13294   6.389   3.352   7.319  0.5278 -2.7777  2.2864
  125OSM    C7S13295   6.257   3.195   7.363 -0.4370 -0.0120  0.1282
  125OSM    H7S13296   6.328   3.109   7.357  0.1590  0.5264 -0.6456
  125OSM    H7T13297   6.157   3.173   7.321 -1.0407  4.8696 -1.5432
  125OSM    C8S13298   6.254   3.252   7.507  0.0206 -0.3560 -0.0231
  125OSM    H8S13299   6.254   3.363   7.513 -4.0775 -0.3315  3.3579
  125OSM    H8T13300   6.335   3.211   7.572 -0.2854 -0.3493  0.3658
  125OSM    C9S13301   6.126   3.217   7.581 -0.2122  0.1383  0.3522
  125OSM    H9S13302   6.107   3.110   7.605  0.7356  0.0890  0.9458
  125OSM    H9T13303   6.045   3.252   7.514  0.9364  1.6668 -0.2783
  125OSM   C10S13304   6.113   3.291   7.716  0.0953 -0.1097  0.7062
  125OSM   H10S13305   6.009   3.276   7.751 -0.0489  2.0975  1.3595
  125OSM   H10T13306   6.122   3.402   7.718  0.3487 -0.0953 -0.6269
  125OSM   C11S13307   6.195   3.241   7.839  0.4229 -0.2702  0.1685
  125OSM   H11S13308   6.303   3.247   7.814  0.0688  0.3401 -1.3055
  125OSM   H11T13309   6.176   3.132   7.838  1.7235 -0.5886 -2.8960
  125OSM   C12S13310   6.158   3.299   7.981 -0.0036  0.4406  0.1900
  125OSM   H12S13311   6.053   3.279   8.013  0.3268 -4.4739 -0.9470
  125OSM   H12T13312   6.164   3.409   7.978  2.4298  0.3642  0.4458
  125OSM   C13S13313   6.247   3.250   8.089  0.0475  0.5920  0.0938
  125OSM   H13S13314   6.308   3.335   8.127  1.6423  0.3186 -1.6787
  125OSM   H13T13315   6.321   3.172   8.062 -0.4631 -0.5455  1.7984
  125OSM   C14S13316   6.167   3.191   8.211 -0.2613  0.1599 -0.3553
  125OSM   H14S13317   6.080   3.126   8.191 -0.3126 -0.3789  1.3857
  125OSM   H14T13318   6.119   3.270   8.273 -1.4780 -0.1141 -0.9271
  125OSM   C15S13319   6.263   3.108   8.308 -0.0412 -0.6586 -0.1858
  125OSM   H15S13320   6.293   3.024   8.241  0.9571 -0.4847  0.0259
  125OSM   H15T13321   6.197   3.071   8.389 -3.2954 -0.6588 -2.6185
  125OSM   C16S13322   6.393   3.176   8.355  0.0796 -1.4417 -0.1546
  125OSM   H16S13323   6.442   3.199   8.258 -0.0602  1.0333  0.2771
  125OSM   H16T13324   6.454   3.096   8.401  2.5754 -0.1932 -1.0934
  125OSM   C17S13325   6.371   3.307   8.438  0.1134 -0.3920  0.5713
  125OSM   H17S13326   6.333   3.378   8.362  0.7041 -1.6271 -0.9394
  125OSM   H17T13327   6.473   3.342   8.467 -0.3539  0.6999  0.9176
  125OSM   C18S13328   6.278   3.292   8.556 -0.2439  0.3186  0.2907
  125OSM   H18S13329   6.321   3.222   8.630 -0.7003  0.2248  0.4671
  125OSM   H18T13330   6.175   3.263   8.527 -0.3027  0.7945  0.0133
  125OSM   H18U13331   6.275   3.394   8.599 -2.2653  0.5035 -0.2288
  125OSM    C1F13332   6.014   3.402   6.828 -0.4365  0.5187 -0.1671
  125OSM     OF13333   5.919   3.345   6.782  0.1715  0.2981 -0.1976
  125OSM    C2F13334   6.013   3.548   6.841 -0.5283  0.0635 -0.5442
  125OSM    H2F13335   5.970   3.583   6.745 -2.0426  0.1973  0.1685
  125OSM    H2G13336   6.114   3.592   6.854 -0.1629 -0.7082 -0.6611
  125OSM    C3F13337   5.915   3.596   6.948 -0.0421  0.8264  0.1096
  125OSM    H3F13338   5.810   3.570   6.921 -0.0257  1.3514 -0.4886
  125OSM    H3G13339   5.929   3.706   6.960  1.8506  0.4886  1.4324
  125OSM    C4F13340   5.934   3.543   7.097 -0.0081 -0.3021 -0.1346
  125OSM    H4F13341   6.039   3.546   7.133  0.2013 -2.6044 -0.3660
  125OSM    H4G13342   5.910   3.434   7.095  1.3430 -0.6216 -1.2567
  125OSM    C5F13343   5.840   3.623   7.196 -0.5500 -0.4842  0.7683
  125OSM    H5F13344   5.739   3.637   7.151 -0.2913 -3.7176 -1.1726
  125OSM    H5G13345   5.878   3.723   7.222  0.8036 -0.9321  0.6152
  125OSM    C6F13346   5.839   3.548   7.333  0.1369 -0.0689  0.6275
  125OSM    H6F13347   5.811   3.444   7.307  3.0615 -1.9206  4.1114
  125OSM    H6G13348   5.757   3.594   7.392 -0.4852 -1.5419  0.9444
  125OSM    C7F13349   5.969   3.556   7.415  0.0043  0.6887  0.8041
  125OSM    H7F13350   6.049   3.619   7.370  1.0337 -1.0105  0.1517
  125OSM    H7G13351   6.022   3.459   7.426 -2.1923 -0.4117  2.3838
  125OSM    C8F13352   5.935   3.598   7.563 -0.7926 -0.1721 -0.1335
  125OSM    H8F13353   6.030   3.587   7.619 -1.9996 -1.4309  1.7911
  125OSM    H8G13354   5.856   3.534   7.607  1.0833 -1.0867  2.1294
  125OSM    C9F13355   5.889   3.741   7.581 -0.4049  0.5885 -0.8672
  125OSM    H9F13356   5.836   3.790   7.499 -1.3937  0.3801 -0.3652
  125OSM   C10F13357   5.915   3.809   7.698 -0.1580  0.4431  0.3885
  125OSM   H10F13358   5.888   3.916   7.705  2.5380  1.0787  3.0362
  125OSM   C11F13359   5.987   3.758   7.827 -0.9602 -0.1438 -0.5166
  125OSM   H11F13360   6.022   3.653   7.822  0.9687  0.5006 -2.1885
  125OSM   H11G13361   5.917   3.761   7.913 -1.9153 -0.0262 -1.2890
  125OSM   C12F13362   6.119   3.842   7.861  0.4037  0.1184  0.3816
  125OSM   H12F13363   6.187   3.838   7.773  0.2143 -0.3633  0.2493
  125OSM   H12G13364   6.175   3.811   7.951  2.6838  0.6492 -0.7754
  125OSM   C13F13365   6.104   3.992   7.890  0.6049 -1.0030 -0.0070
  125OSM   H13F13366   6.047   4.037   7.806  0.7501 -0.2413  0.2913
  125OSM   H13G13367   6.205   4.039   7.899  0.3144 -0.4286  0.2877
  125OSM   C14F13368   6.032   4.025   8.015 -0.7717  0.0705  0.3158
  125OSM   H14F13369   6.083   3.987   8.106  0.7451  0.0126 -0.5425
  125OSM   H14G13370   5.929   3.985   8.004 -0.8222  0.5609 -1.0636
  125OSM   C15F13371   6.003   4.179   8.033  0.5073  0.5960 -0.6492
  125OSM   H15F13372   6.101   4.232   8.035  1.5533 -1.2619  0.8669
  125OSM   H15G13373   5.963   4.187   8.137  2.7633  1.3537  0.2250
  125OSM   C16F13374   5.906   4.242   7.932 -1.0537 -0.3743 -0.1570
  125OSM   H16F13375   5.824   4.184   7.884 -2.8195  0.8981  1.1914
  125OSM   H16G13376   5.973   4.258   7.844  1.8995 -1.6458  1.6901
  125OSM   C17F13377   5.856   4.385   7.979 -0.6571  0.1060 -0.3224
  125OSM   H17F13378   5.788   4.345   8.058 -0.9410 -0.7093 -0.9717
  125OSM   H17G13379   5.786   4.416   7.899 -0.1920 -1.7928 -1.5138
  125OSM   C18F13380   5.956   4.486   8.025 -0.8089 -0.1321  0.1450
  125OSM   H18F13381   6.022   4.515   7.941 -1.1638 -0.0948 -0.1230
  125OSM   H18G13382   6.021   4.443   8.104 -1.0202 -0.1658  0.3028
  125OSM   H18H13383   5.916   4.583   8.062  0.8613  0.6732 -0.0542
  126OSM      N13384   2.391   0.965   6.862 -0.9814  0.3180 -0.2721
  126OSM    C1513385   2.467   0.901   6.977 -0.2724 -0.2411  0.4681
  126OSM   H15A13386   2.568   0.877   6.946 -0.6731  2.1081 -3.2113
  126OSM   H15B13387   2.408   0.813   6.995 -1.3213  0.1374 -0.9526
  126OSM   H15C13388   2.463   0.977   7.054  0.2430  1.7645 -1.3771
  126OSM    C1413389   2.262   1.011   6.916 -0.3613  0.5989 -0.3966
  126OSM   H14A13390   2.212   0.926   6.960  0.5712  0.2727  0.0777
  126OSM   H14B13391   2.191   1.043   6.841 -2.0924 -1.2822  0.3480
  126OSM   H14C13392   2.271   1.092   6.987 -0.8115 -0.2695  0.6883
  126OSM    C1313393   2.470   1.083   6.820 -0.3326 -0.1748  0.1438
  126OSM   H13A13394   2.421   1.134   6.738  0.2891 -2.5514 -1.8202
  126OSM   H13B13395   2.561   1.052   6.771 -0.3675  0.7117 -0.5254
  126OSM   H13C13396   2.494   1.152   6.899 -1.2510  1.9521 -1.3231
  126OSM    C1213397   2.372   0.865   6.754 -0.3049 -0.3296  0.1494
  126OSM   H12A13398   2.319   0.912   6.673  0.2405 -0.5556 -0.3505
  126OSM   H12B13399   2.307   0.786   6.788 -0.7188  0.3443  0.9625
  126OSM    C1113400   2.502   0.805   6.690 -0.6806  0.7722  0.1172
  126OSM   H11A13401   2.466   0.728   6.617 -0.7971  0.3449  0.6185
  126OSM   H11B13402   2.552   0.747   6.771 -1.9211 -2.1659 -1.0530
  126OSM      P13403   2.692   0.878   6.521 -0.2920  0.3821 -0.0072
  126OSM    O1313404   2.679   0.733   6.477 -0.3283 -0.4543  0.0387
  126OSM    O1413405   2.671   0.980   6.413 -0.3462 -0.1234 -0.2284
  126OSM    O1113406   2.834   0.910   6.581  0.5453 -0.8086 -0.0706
  126OSM    O1213407   2.584   0.903   6.633  0.3444 -0.3446  0.4048
  126OSM    C1S13408   2.859   0.944   6.716 -0.0635 -0.1842  0.7949
  126OSM    H1S13409   2.788   0.906   6.793 -0.6329 -0.4264  0.1531
  126OSM    H1T13410   2.849   1.053   6.736  0.2030 -0.2141  1.1060
  126OSM     NF13411   3.005   0.905   6.907 -0.2567  0.2442 -0.2160
  126OSM    HNF13412   3.029   0.991   6.951 -1.9057  0.6087  0.0272
  126OSM    C2S13413   3.002   0.904   6.763  0.9840 -0.3165  0.2195
  126OSM    H2S13414   3.010   0.802   6.719 -0.2446 -1.7253  3.0289
  126OSM    C3S13415   3.104   1.007   6.702  0.2059 -0.4123  0.7677
  126OSM    H3S13416   3.084   1.104   6.754 -2.1809 -0.6306  0.3752
  126OSM     O313417   3.088   1.034   6.557  0.1270  0.0400 -0.1869
  126OSM    HO313418   3.007   0.988   6.533  0.9020 -0.9604 -0.9524
  126OSM    C4S13419   3.247   0.965   6.737  0.6756  0.9157  0.5371
  126OSM    H4S13420   3.276   0.873   6.683 -0.8300  0.1122  1.0290
  126OSM    C5S13421   3.321   1.019   6.831 -0.6840  0.0162 -0.7100
  126OSM    H5S13422   3.279   1.103   6.888 -0.8349  0.9018 -2.0772
  126OSM    C6S13423   3.451   0.974   6.870  0.4135 -0.1512 -0.4330
  126OSM    H6S13424   3.499   1.056   6.928  0.2995 -0.0813 -0.4361
  126OSM    H6T13425   3.514   0.966   6.778  2.2968 -0.5774  0.8293
  126OSM    C7S13426   3.454   0.852   6.974  0.1703  0.1982 -0.0168
  126OSM    H7S13427   3.559   0.822   6.995 -0.3788 -1.7395  0.1709
  126OSM    H7T13428   3.395   0.768   6.931  1.0844 -2.1068  2.8591
  126OSM    C8S13429   3.380   0.881   7.101  0.1634 -0.0020  0.0803
  126OSM    H8S13430   3.375   0.789   7.162 -0.2434 -0.3654 -0.4940
  126OSM    H8T13431   3.274   0.902   7.074  0.3901 -0.4797 -1.2220
  126OSM    C9S13432   3.421   1.004   7.189 -0.0998  0.1366 -0.2484
  126OSM    H9S13433   3.428   1.089   7.118  2.6509 -0.7118 -1.1178
  126OSM    H9T13434   3.526   0.992   7.223  0.2869  0.6054 -1.2695
  126OSM   C10S13435   3.333   1.034   7.312 -0.5064  0.3931 -0.3361
  126OSM   H10S13436   3.315   0.946   7.378  0.0632 -0.0675 -0.7852
  126OSM   H10T13437   3.233   1.059   7.270 -0.2929  2.3488  0.2429
  126OSM   C11S13438   3.384   1.137   7.415  0.1365  0.6682  0.1779
  126OSM   H11S13439   3.390   1.233   7.360 -2.8307 -0.0572 -1.6189
  126OSM   H11T13440   3.486   1.107   7.446  0.4254  1.3394 -0.1121
  126OSM   C12S13441   3.283   1.159   7.526 -0.9487 -0.0346 -0.6764
  126OSM   H12S13442   3.269   1.069   7.590 -0.5759  0.1216 -0.3642
  126OSM   H12T13443   3.187   1.191   7.481  0.8440  3.8215 -2.1692
  126OSM   C13S13444   3.340   1.274   7.616  0.1697 -0.0777 -0.0254
  126OSM   H13S13445   3.363   1.361   7.551 -1.3628  2.0122  2.0664
  126OSM   H13T13446   3.434   1.245   7.668 -0.4894  0.2727  1.4190
  126OSM   C14S13447   3.223   1.330   7.710  0.1876 -0.7134  0.2038
  126OSM   H14S13448   3.187   1.242   7.767  0.5006 -1.1657 -0.2936
  126OSM   H14T13449   3.165   1.371   7.625  0.8850  0.5155  0.2880
  126OSM   C15S13450   3.262   1.446   7.801 -0.3897  0.7977 -0.4572
  126OSM   H15S13451   3.174   1.501   7.842 -0.9053 -1.0151  1.0287
  126OSM   H15T13452   3.334   1.510   7.746  0.6294  1.2101  1.2718
  126OSM   C16S13453   3.337   1.403   7.927 -0.3417 -0.4778  0.3469
  126OSM   H16S13454   3.386   1.488   7.978 -0.0597 -0.7512  0.5367
  126OSM   H16T13455   3.410   1.321   7.909 -2.8139 -3.0171  1.0932
  126OSM   C17S13456   3.246   1.349   8.036  0.5874 -0.1406 -0.0369
  126OSM   H17S13457   3.170   1.278   7.995  0.1610  0.5503 -0.4827
  126OSM   H17T13458   3.182   1.434   8.070  1.4216 -0.2047  1.7574
  126OSM   C18S13459   3.324   1.291   8.158 -0.7453 -0.5364  0.0266
  126OSM   H18S13460   3.402   1.361   8.197 -0.4482 -2.4344  3.1690
  126OSM   H18T13461   3.377   1.197   8.133  1.9662  0.4927  1.4384
  126OSM   H18U13462   3.249   1.283   8.239 -1.1711  1.4668 -0.1125
  126OSM    C1F13463   2.945   0.819   6.988  0.0820  0.6964  0.7959
  126OSM     OF13464   2.904   0.715   6.937  0.0411  0.2592 -0.4390
  126OSM    C2F13465   2.948   0.861   7.125 -0.2518 -0.2050  0.1915
  126OSM    H2F13466   2.999   0.959   7.136 -0.0162 -0.2942 -0.1039
  126OSM    H2G13467   3.006   0.785   7.181 -2.4538 -2.0172  0.1491
  126OSM    C3F13468   2.803   0.878   7.186 -0.1232  0.4209  0.2366
  126OSM    H3F13469   2.755   0.778   7.186 -0.2754  0.4880 -0.4755
  126OSM    H3G13470   2.743   0.951   7.127  1.4684  2.3543  0.8998
  126OSM    C4F13471   2.809   0.938   7.322 -0.4902  0.1908 -0.4306
  126OSM    H4F13472   2.702   0.946   7.351 -0.8020 -1.7318 -0.9449
  126OSM    H4G13473   2.848   1.041   7.307  1.2367 -0.4973 -0.9546
  126OSM    C5F13474   2.899   0.861   7.422 -0.1880 -1.4900 -0.3797
  126OSM    H5F13475   3.003   0.837   7.392  0.2232 -2.0474  1.3609
  126OSM    H5G13476   2.845   0.767   7.448  0.1225 -1.8745 -1.1098
  126OSM    C6F13477   2.903   0.944   7.552 -0.3928  0.3845  0.1332
  126OSM    H6F13478   2.820   1.018   7.557  0.2443  1.1025  0.2769
  126OSM    H6G13479   2.990   1.014   7.551 -0.3094  0.3723 -3.3787
  126OSM    C7F13480   2.908   0.854   7.675 -0.4226  0.6659  0.0512
  126OSM    H7F13481   2.982   0.774   7.654 -1.9295 -0.3872 -1.4888
  126OSM    H7G13482   2.809   0.806   7.688 -0.2714  0.7663  1.7398
  126OSM    C8F13483   2.935   0.919   7.806  0.2043 -1.2254 -0.2403
  126OSM    H8F13484   2.855   0.996   7.812  2.2519  0.9187  1.8584
  126OSM    H8G13485   3.026   0.982   7.804 -0.6835  0.0773 -0.9576
  126OSM    C9F13486   2.919   0.831   7.918  0.1855  0.2619  0.4841
  126OSM    H9F13487   2.881   0.736   7.879 -0.0866 -0.0548  1.4988
  126OSM   C10F13488   2.966   0.854   8.039 -0.0269 -0.4360 -0.0266
  126OSM   H10F13489   2.957   0.772   8.113  1.6746  0.1619  0.9128
  126OSM   C11F13490   3.042   0.967   8.104 -0.0906 -0.3097 -0.6703
  126OSM   H11F13491   3.042   1.054   8.035 -0.4048  0.3379  0.1354
  126OSM   H11G13492   3.151   0.947   8.115  0.1077  1.0682  0.0353
  126OSM   C12F13493   2.994   1.013   8.237  0.3679  1.2011 -0.0929
  126OSM   H12F13494   3.055   1.100   8.269  1.2633 -0.1466  2.1066
  126OSM   H12G13495   2.997   0.938   8.320 -0.5892 -0.0800 -1.1717
  126OSM   C13F13496   2.849   1.054   8.242 -0.2819 -0.0302  1.1672
  126OSM   H13F13497   2.772   0.977   8.218 -0.3442  0.3901 -0.0499
  126OSM   H13G13498   2.841   1.135   8.166  0.9275 -0.1366  0.9083
  126OSM   C14F13499   2.806   1.112   8.375  0.0412 -0.2297 -0.2474
  126OSM   H14F13500   2.861   1.204   8.404 -1.2735  0.3586  0.4707
  126OSM   H14G13501   2.813   1.032   8.451 -0.6223  1.2081  1.4019
  126OSM   C15F13502   2.659   1.159   8.380 -0.3325 -0.1661 -0.6915
  126OSM   H15F13503   2.597   1.067   8.377 -1.4486  0.4689  1.1625
  126OSM   H15G13504   2.633   1.230   8.298 -0.9780  1.9108  1.2128
  126OSM   C16F13505   2.617   1.235   8.509  0.1528  0.2656 -0.2729
  126OSM   H16F13506   2.675   1.328   8.527 -0.3131  0.3395  0.9523
  126OSM   H16G13507   2.645   1.161   8.587 -0.1802 -1.5130 -1.7715
  126OSM   C17F13508   2.472   1.272   8.513  0.1241 -0.0140  0.4711
  126OSM   H17F13509   2.407   1.187   8.484 -1.2135  0.2206  2.5260
  126OSM   H17G13510   2.450   1.353   8.441 -4.0941 -0.3169  1.1344
  126OSM   C18F13511   2.429   1.326   8.646 -0.4126  0.1098  0.1494
  126OSM   H18F13512   2.321   1.351   8.647 -0.6927 -0.8119  3.4799
  126OSM   H18G13513   2.494   1.411   8.676 -0.8630  0.4052  0.2858
  126OSM   H18H13514   2.435   1.244   8.720  1.7258  1.2315  1.3307
  127OSM      N13515   1.480   1.545   6.070 -0.3003  0.5931 -0.2519
  127OSM    C1513516   1.366   1.535   5.972  0.3448 -0.3831  0.0519
  127OSM   H15A13517   1.404   1.534   5.871 -1.0198  2.0611 -0.5847
  127OSM   H15B13518   1.302   1.621   5.989  0.3632  0.6077 -3.8480
  127OSM   H15C13519   1.311   1.444   5.990 -0.2184 -0.4327 -1.7110
  127OSM    C1413520   1.417   1.544   6.203  0.3501  0.1579 -0.9101
  127OSM   H14A13521   1.353   1.630   6.220  1.7529  1.2926 -1.1485
  127OSM   H14B13522   1.491   1.560   6.280  0.9859  0.6219 -1.6076
  127OSM   H14C13523   1.356   1.458   6.229 -0.8601  1.4030  0.6228
  127OSM    C1313524   1.559   1.416   6.056  0.1876  0.4474 -0.3282
  127OSM   H13A13525   1.492   1.332   6.068 -2.7916  2.7325  0.2570
  127OSM   H13B13526   1.641   1.424   6.125  1.1313 -0.2400 -1.3291
  127OSM   H13C13527   1.608   1.397   5.961  0.2994  0.5123 -0.2850
  127OSM    C1213528   1.577   1.658   6.038  0.1653 -0.2162  0.1222
  127OSM   H12A13529   1.522   1.750   6.047 -2.4068 -1.7323  1.2102
  127OSM   H12B13530   1.601   1.659   5.933 -2.1332  1.4657 -0.4537
  127OSM    C1113531   1.701   1.672   6.130  0.0471  0.0951 -0.3164
  127OSM   H11A13532   1.769   1.753   6.096  0.2989  0.3368  0.7056
  127OSM   H11B13533   1.762   1.581   6.143 -0.6695 -0.4156 -0.4540
  127OSM      P13534   1.618   1.852   6.301  0.1167 -0.0982 -0.0516
  127OSM    O1313535   1.737   1.910   6.366 -0.2414 -0.8484 -0.5567
  127OSM    O1413536   1.560   1.939   6.193 -0.3980 -0.2841  0.8935
  127OSM    O1113537   1.501   1.811   6.397  0.3003 -0.2313 -0.1348
  127OSM    O1213538   1.648   1.707   6.257  0.3662  0.5667  0.6095
  127OSM    C1S13539   1.519   1.834   6.539  0.0921 -0.2503 -0.1278
  127OSM    H1S13540   1.572   1.929   6.564  0.4602 -0.2934 -0.7225
  127OSM    H1T13541   1.581   1.750   6.576  1.2216 -0.1029 -1.5959
  127OSM     NF13542   1.411   1.819   6.754  0.0913 -0.1973  0.6839
  127OSM    HNF13543   1.419   1.726   6.787 -0.7648  0.2191  2.1569
  127OSM    C2S13544   1.378   1.834   6.616 -0.1526 -0.0822  0.2407
  127OSM    H2S13545   1.343   1.938   6.596  3.2266  1.1021 -0.2627
  127OSM    C3S13546   1.281   1.731   6.553 -0.3869 -0.4514 -0.3895
  127OSM    H3S13547   1.335   1.635   6.545 -1.5577 -1.3373  1.6200
  127OSM     O313548   1.244   1.773   6.421 -0.0718 -0.0175  0.1019
  127OSM    HO313549   1.327   1.814   6.395  0.9497 -0.3179  2.5740
  127OSM    C4S13550   1.160   1.711   6.640 -0.0732 -0.2236 -0.5600
  127OSM    H4S13551   1.169   1.636   6.719  1.7477  0.2496 -0.2905
  127OSM    C5S13552   1.046   1.787   6.635 -1.0608 -0.5561  0.2469
  127OSM    H5S13553   1.058   1.866   6.559  2.3715  0.1992  1.3702
  127OSM    C6S13554   0.921   1.779   6.722 -0.1118 -0.2719 -0.4379
  127OSM    H6S13555   0.920   1.684   6.780 -0.6252 -0.0326 -0.0383
  127OSM    H6T13556   0.834   1.784   6.653 -0.1963  2.0737 -0.2476
  127OSM    C7S13557   0.910   1.883   6.834  0.0370  0.2127  0.1986
  127OSM    H7S13558   0.805   1.880   6.869 -0.0962 -2.0268 -0.2376
  127OSM    H7T13559   0.931   1.988   6.805  3.6487  0.3815  2.7130
  127OSM    C8S13560   1.012   1.868   6.953 -0.8524 -0.1249  0.1439
  127OSM    H8S13561   1.113   1.886   6.911 -0.3094 -1.6815  0.7386
  127OSM    H8T13562   1.001   1.764   6.990 -1.7196  0.1141  0.5874
  127OSM    C9S13563   0.969   1.961   7.069 -0.4043 -0.5341  0.5327
  127OSM    H9S13564   0.858   1.966   7.066 -0.3523  0.9454 -1.8148
  127OSM    H9T13565   0.985   2.066   7.034 -1.7298  0.0877  1.6695
  127OSM   C10S13566   1.030   1.932   7.206 -0.5756 -0.5697  0.2618
  127OSM   H10S13567   1.140   1.918   7.203 -0.6969 -1.8127  0.8215
  127OSM   H10T13568   1.006   1.826   7.227 -1.9173 -0.6911 -1.6037
  127OSM   C11S13569   0.982   2.010   7.328  0.4107  0.5955 -0.0841
  127OSM   H11S13570   0.872   1.996   7.333  0.5410 -1.1016 -1.1145
  127OSM   H11T13571   1.001   2.118   7.312 -3.9824  1.2505 -2.4005
  127OSM   C12S13572   1.019   1.951   7.465 -0.6602 -0.9237 -0.0654
  127OSM   H12S13573   1.129   1.942   7.465 -0.3577  1.7361 -0.5464
  127OSM   H12T13574   0.972   1.853   7.486 -0.4278 -1.0437 -0.1030
  127OSM   C13S13575   0.978   2.048   7.582 -0.4174  0.0260 -0.4041
  127OSM   H13S13576   0.873   2.026   7.610 -0.2795  0.6043  0.6359
  127OSM   H13T13577   0.983   2.156   7.555 -2.9095  0.7013  1.4002
  127OSM   C14S13578   1.065   2.021   7.707 -0.4968 -0.4077  0.1101
  127OSM   H14S13579   1.173   2.037   7.689 -0.8815  0.3694 -1.7815
  127OSM   H14T13580   1.047   1.913   7.725  0.8668 -0.6050  0.4057
  127OSM   C15S13581   1.022   2.100   7.833  0.1399  0.1645 -0.0734
  127OSM   H15S13582   0.917   2.069   7.853  0.4527 -0.8562  0.0664
  127OSM   H15T13583   1.014   2.208   7.810  1.8176  0.6500  1.4540
  127OSM   C16S13584   1.109   2.091   7.951 -0.0206 -0.0881 -0.6887
  127OSM   H16S13585   1.092   1.990   7.995 -0.2668 -0.2237 -1.0775
  127OSM   H16T13586   1.078   2.163   8.030 -3.1603 -1.8902 -0.0883
  127OSM   C17S13587   1.259   2.107   7.921 -0.1665  0.2604 -0.0994
  127OSM   H17S13588   1.291   2.202   7.873 -1.5301  1.2633  0.9012
  127OSM   H17T13589   1.308   2.020   7.872 -0.5863 -1.1633  1.9126
  127OSM   C18S13590   1.339   2.103   8.047  0.1723  0.5803 -0.8021
  127OSM   H18S13591   1.323   2.003   8.092 -1.2186  0.7152 -0.9514
  127OSM   H18T13592   1.294   2.177   8.117  1.5933  1.5251 -0.8452
  127OSM   H18U13593   1.445   2.132   8.037  0.1120  0.3516 -2.1902
  127OSM    C1F13594   1.456   1.921   6.828 -0.5823 -0.7078 -0.2442
  127OSM     OF13595   1.447   2.032   6.781 -0.0482  0.7900  0.3341
  127OSM    C2F13596   1.534   1.887   6.954 -0.5456 -0.1557  0.1937
  127OSM    H2F13597   1.636   1.932   6.960 -0.7942  0.4766 -0.2553
  127OSM    H2G13598   1.551   1.777   6.960  0.5659  0.0698  2.5014
  127OSM    C3F13599   1.449   1.934   7.080 -0.0148 -0.3650  0.1707
  127OSM    H3F13600   1.342   1.903   7.072  0.7121 -2.7167 -1.2975
  127OSM    H3G13601   1.457   2.044   7.083  1.1423 -0.4432  0.8820
  127OSM    C4F13602   1.502   1.891   7.221 -0.3393  0.2413  0.1685
  127OSM    H4F13603   1.603   1.928   7.248 -0.8574  1.0805  1.0150
  127OSM    H4G13604   1.507   1.780   7.233 -1.6767  0.1107 -0.3425
  127OSM    C5F13605   1.421   1.958   7.331  0.2569  0.2969  0.4241
  127OSM    H5F13606   1.327   1.905   7.355  0.2290  0.3903  0.5257
  127OSM    H5G13607   1.390   2.058   7.293  1.0550  0.0925 -0.7915
  127OSM    C6F13608   1.503   1.977   7.463  0.7830 -0.4686 -0.4414
  127OSM    H6F13609   1.442   2.021   7.545  0.5252  0.1656 -0.9668
  127OSM    H6G13610   1.580   2.056   7.449 -1.0581  1.4006 -0.5166
  127OSM    C7F13611   1.563   1.842   7.516 -0.1017  0.6654 -0.0513
  127OSM    H7F13612   1.609   1.871   7.613  2.3231 -2.3817 -0.1588
  127OSM    H7G13613   1.638   1.805   7.443 -0.5994  2.6611 -1.6884
  127OSM    C8F13614   1.453   1.731   7.558 -0.4508  0.3131 -0.1140
  127OSM    H8F13615   1.498   1.638   7.598  0.1356  0.2829 -0.8247
  127OSM    H8G13616   1.409   1.702   7.460  1.5070  0.9281 -1.2213
  127OSM    C9F13617   1.345   1.788   7.647 -0.0575 -0.3871 -0.8084
  127OSM    H9F13618   1.282   1.869   7.607  0.3738  0.3986  0.0554
  127OSM   C10F13619   1.313   1.743   7.772 -0.4369 -0.4573  0.2288
  127OSM   H10F13620   1.239   1.800   7.829 -0.4309 -0.5939  0.3753
  127OSM   C11F13621   1.378   1.630   7.844 -0.7057  0.1427 -0.2386
  127OSM   H11F13622   1.454   1.583   7.778  0.4015  2.0045 -0.3564
  127OSM   H11G13623   1.300   1.553   7.863 -0.0963 -0.4589 -0.1181
  127OSM   C12F13624   1.440   1.673   7.975 -0.8127 -0.1419  0.5262
  127OSM   H12F13625   1.361   1.713   8.043 -0.6625 -0.5732  0.9661
  127OSM   H12G13626   1.515   1.751   7.952 -0.2027 -1.3332 -1.7663
  127OSM   C13F13627   1.522   1.573   8.069  0.3855  0.1246 -0.3107
  127OSM   H13F13628   1.631   1.580   8.049  0.3666  2.2294  0.0977
  127OSM   H13G13629   1.475   1.472   8.060  0.0750  0.0879  1.3618
  127OSM   C14F13630   1.497   1.630   8.211 -0.2434 -0.0594 -0.5069
  127OSM   H14F13631   1.390   1.645   8.238  0.0007  1.1429 -0.1397
  127OSM   H14G13632   1.534   1.734   8.196  2.2220 -0.6349  1.0428
  127OSM   C15F13633   1.569   1.566   8.324  0.2352 -0.9461  0.1919
  127OSM   H15F13634   1.678   1.585   8.313  0.2604 -0.9990  0.3410
  127OSM   H15G13635   1.549   1.457   8.318 -0.2896 -0.8861  0.7341
  127OSM   C16F13636   1.527   1.618   8.458  0.9775 -0.2573  0.1988
  127OSM   H16F13637   1.418   1.601   8.466  0.9301  0.9426  2.7554
  127OSM   H16G13638   1.523   1.729   8.461  0.8202 -0.1307 -2.2832
  127OSM   C17F13639   1.602   1.548   8.576 -0.2448  0.2388  0.3484
  127OSM   H17F13640   1.595   1.440   8.552  0.7339  0.6568 -2.0444
  127OSM   H17G13641   1.549   1.558   8.674  1.1014  0.2071  1.1002
  127OSM   C18F13642   1.748   1.586   8.587 -0.6064 -0.0095 -0.1499
  127OSM   H18F13643   1.790   1.527   8.671 -2.9346 -0.4986  0.7297
  127OSM   H18G13644   1.775   1.692   8.610  0.2448 -0.2593  0.0405
  127OSM   H18H13645   1.793   1.555   8.490  0.3930  0.8649  0.0135
  128OSM      N13646   6.780   0.109   5.767 -0.1915  0.2780  0.6172
  128OSM    C1513647   6.818  -0.013   5.833  0.1667  0.4554 -0.0297
  128OSM   H15A13648   6.872  -0.073   5.760 -0.1402  1.1001 -0.8024
  128OSM   H15B13649   6.728  -0.062   5.868  1.2531 -1.1910  0.5694
  128OSM   H15C13650   6.888  -0.002   5.914  0.0112 -0.3296  0.2213
  128OSM    C1413651   6.890   0.152   5.677  0.0119  0.5138  0.6122
  128OSM   H14A13652   6.930   0.063   5.630 -0.9762  0.3656  0.0232
  128OSM   H14B13653   6.974   0.197   5.727  0.8661  0.5807 -0.8301
  128OSM   H14C13654   6.856   0.224   5.605  0.9376  1.0957  0.7384
  128OSM    C1313655   6.670   0.068   5.671 -0.1309 -0.6229  0.5825
  128OSM   H13A13656   6.707  -0.004   5.599 -0.8429  0.8734 -1.3681
  128OSM   H13B13657   6.636   0.146   5.606 -2.2459 -3.4381 -1.9784
  128OSM   H13C13658   6.583   0.026   5.719 -0.8227  0.4350  0.2798
  128OSM    C1213659   6.739   0.219   5.862  0.4580 -0.4825 -0.1265
  128OSM   H12A13660   6.725   0.309   5.803 -0.2763 -2.0083 -2.3687
  128OSM   H12B13661   6.810   0.232   5.943 -0.7946 -0.7313  1.0477
  128OSM    C1113662   6.607   0.198   5.935 -0.3895  0.6351 -0.2574
  128OSM   H11A13663   6.628   0.113   6.003 -0.5099  0.2500 -0.6922
  128OSM   H11B13664   6.532   0.171   5.858 -0.5374  1.5075 -0.4262
  128OSM      P13665   6.407   0.329   6.054 -0.5038  0.2220 -0.3403
  128OSM    O1313666   6.391   0.473   6.087  0.6166 -0.0477  0.1623
  128OSM    O1413667   6.328   0.283   5.938 -0.4805 -0.0615 -0.2543
  128OSM    O1113668   6.395   0.232   6.176  0.1595 -0.2680  0.6239
  128OSM    O1213669   6.561   0.304   6.014 -0.7061 -0.1407  0.5891
  128OSM    C1S13670   6.496   0.210   6.271 -0.0593 -0.0569 -0.3230
  128OSM    H1S13671   6.548   0.301   6.306  1.2120 -0.7175 -0.4498
  128OSM    H1T13672   6.586   0.157   6.234 -0.4509 -1.7420  0.9779
  128OSM     NF13673   6.536   0.112   6.495  0.1688 -0.2945 -0.1427
  128OSM    HNF13674   6.562   0.022   6.529  1.6593  0.0271 -0.3672
  128OSM    C2S13675   6.429   0.133   6.386 -0.7441  1.0540 -0.8509
  128OSM    H2S13676   6.349   0.196   6.429 -1.3938  0.3042 -0.9263
  128OSM    C3S13677   6.362  -0.003   6.335  0.0955 -0.2569  0.2230
  128OSM    H3S13678   6.438  -0.074   6.294 -1.2387 -1.1294 -0.8255
  128OSM     O313679   6.275   0.016   6.224  0.8485 -0.2622 -0.1714
  128OSM    HO313680   6.296   0.107   6.202 -1.6289  0.3807 -0.0920
  128OSM    C4S13681   6.283  -0.068   6.452  0.3396 -0.7798  0.7741
  128OSM    H4S13682   6.201  -0.008   6.494 -1.8217 -3.6385  0.9975
  128OSM    C5S13683   6.286  -0.195   6.501 -0.4899  0.1816  0.1254
  128OSM    H5S13684   6.354  -0.268   6.456 -0.3821  1.1001 -1.2650
  128OSM    C6S13685   6.198  -0.237   6.619 -0.9320  0.3042  0.3393
  128OSM    H6S13686   6.166  -0.343   6.607 -1.7571  0.7842 -2.5006
  128OSM    H6T13687   6.106  -0.174   6.622 -0.2931  1.2153  1.7904
  128OSM    C7S13688   6.264  -0.207   6.756  0.6597 -0.1012 -0.1013
  128OSM    H7S13689   6.285  -0.098   6.755 -2.6287  0.6907  2.0140
  128OSM    H7T13690   6.357  -0.266   6.776  1.4884  0.8935 -0.8939
  128OSM    C8S13691   6.168  -0.232   6.880  0.8249  0.5703  0.0119
  128OSM    H8S13692   6.115  -0.328   6.862 -2.3025  1.7286  2.1018
  128OSM    H8T13693   6.095  -0.149   6.874  1.0567  1.0080  2.2408
  128OSM    C9S13694   6.239  -0.239   7.018  0.0902  0.0595  0.0129
  128OSM    H9S13695   6.318  -0.162   7.033  0.9971 -1.0875  1.5082
  128OSM    H9T13696   6.292  -0.337   7.016 -1.5810 -0.8806 -1.7321
  128OSM   C10S13697   6.140  -0.244   7.131  0.2971 -0.8905  0.1047
  128OSM   H10S13698   6.095  -0.345   7.135  0.3831 -0.8956  2.2727
  128OSM   H10T13699   6.071  -0.168   7.089  1.0994  0.2623  0.8069
  128OSM   C11S13700   6.185  -0.191   7.265 -0.5510  0.2594  0.5456
  128OSM   H11S13701   6.225  -0.088   7.249  0.5719  0.0895  2.0349
  128OSM   H11T13702   6.270  -0.250   7.306 -0.7134 -0.1488  0.2985
  128OSM   C12S13703   6.072  -0.194   7.365 -0.0366 -0.0809  0.2240
  128OSM   H12S13704   6.021  -0.292   7.361  0.0260 -0.0787 -1.6288
  128OSM   H12T13705   5.997  -0.114   7.343 -0.2412 -0.4265 -0.3490
  128OSM   C13S13706   6.118  -0.167   7.510  0.3464 -0.7663 -0.4944
  128OSM   H13S13707   6.164  -0.066   7.497  0.4502 -0.7460  0.0227
  128OSM   H13T13708   6.191  -0.239   7.551  0.3777 -0.9513 -0.8699
  128OSM   C14S13709   6.006  -0.168   7.617 -0.4785  0.3137  0.1029
  128OSM   H14S13710   5.989  -0.278   7.623  1.0688  0.0788  0.9077
  128OSM   H14T13711   5.913  -0.110   7.598 -0.7980  0.5738  2.2237
  128OSM   C15S13712   6.057  -0.118   7.755  0.1428 -0.0627  0.3585
  128OSM   H15S13713   6.070  -0.009   7.740 -1.0357 -0.2353 -2.5282
  128OSM   H15T13714   6.145  -0.174   7.793  1.3693  2.1631  0.9779
  128OSM   C16S13715   5.944  -0.129   7.857  0.8345 -0.1441  0.2887
  128OSM   H16S13716   5.902  -0.232   7.862  2.3878 -0.7723  1.0948
  128OSM   H16T13717   5.869  -0.053   7.825  0.1751 -0.0458  1.9671
  128OSM   C17S13718   5.967  -0.086   8.006 -0.3598  0.2348  0.3356
  128OSM   H17S13719   6.025  -0.169   8.053 -0.2212 -0.4952 -1.0621
  128OSM   H17T13720   5.865  -0.078   8.049 -0.9656  0.2259 -1.0524
  128OSM   C18S13721   6.051   0.047   8.018 -0.0906  0.2770  0.1914
  128OSM   H18S13722   6.152   0.038   7.972  0.7657 -0.3681  2.0944
  128OSM   H18T13723   6.072   0.079   8.122  1.0145  1.1544 -0.2858
  128OSM   H18U13724   5.998   0.126   7.961  0.7804 -0.9089 -2.4061
  128OSM    C1F13725   6.575   0.215   6.568 -0.0604  0.1390 -1.1392
  128OSM     OF13726   6.501   0.308   6.568 -0.2515  0.2099  0.4087
  128OSM    C2F13727   6.693   0.195   6.661 -0.1778 -0.7305  0.6928
  128OSM    H2F13728   6.785   0.188   6.599  0.5135 -1.0607  1.7143
  128OSM    H2G13729   6.671   0.101   6.716  0.6271 -1.4142 -0.1131
  128OSM    C3F13730   6.715   0.330   6.751 -0.4158  0.0959  0.0634
  128OSM    H3F13731   6.626   0.333   6.817 -0.0442  0.2257  0.5635
  128OSM    H3G13732   6.737   0.416   6.684  1.8899 -1.9995 -2.0842
  128OSM    C4F13733   6.828   0.314   6.859  0.4772 -0.3157 -0.5039
  128OSM    H4F13734   6.816   0.400   6.928 -0.7731  0.3089 -1.4342
  128OSM    H4G13735   6.931   0.312   6.818  1.1720 -1.3672  1.1852
  128OSM    C5F13736   6.818   0.173   6.927  0.0945 -0.5856  0.8805
  128OSM    H5F13737   6.822   0.086   6.859 -1.2624 -0.2229  0.3114
  128OSM    H5G13738   6.718   0.162   6.973 -1.2221 -2.9279 -2.2070
  128OSM    C6F13739   6.929   0.155   7.031  0.0674 -0.1094  0.1776
  128OSM    H6F13740   7.028   0.131   6.986  0.2892 -1.0696  1.1357
  128OSM    H6G13741   6.900   0.062   7.086 -1.0004  0.6840  0.9998
  128OSM    C7F13742   6.942   0.270   7.136  0.6420  0.4383 -0.1009
  128OSM    H7F13743   6.840   0.302   7.165  1.1798  0.8295  1.4804
  128OSM    H7G13744   6.992   0.353   7.080  0.8059 -0.6906 -1.6816
  128OSM    C8F13745   7.012   0.222   7.260  0.1894  0.4725  0.3155
  128OSM    H8F13746   7.118   0.189   7.246 -0.1100 -1.5885  2.2398
  128OSM    H8G13747   6.962   0.125   7.282 -0.0841  0.5420  0.0005
  128OSM    C9F13748   7.004   0.325   7.375 -0.3084  0.2486 -0.7742
  128OSM    H9F13749   7.055   0.422   7.361  1.9352 -0.8078 -0.2964
  128OSM   C10F13750   6.965   0.303   7.503 -0.1667 -0.2687  0.0788
  128OSM   H10F13751   6.952   0.373   7.587  0.1582 -2.0766  1.7085
  128OSM   C11F13752   6.912   0.172   7.550 -0.0571  0.4083 -0.1795
  128OSM   H11F13753   6.986   0.094   7.523 -0.6430  0.2287 -1.3529
  128OSM   H11G13754   6.814   0.148   7.504 -0.1417  1.3987 -0.5362
  128OSM   C12F13755   6.884   0.177   7.699 -0.0454  0.2643 -0.2080
  128OSM   H12F13756   6.828   0.087   7.732 -0.3676  0.3574 -0.4986
  128OSM   H12G13757   6.825   0.259   7.744 -2.9086 -1.8442  0.1107
  128OSM   C13F13758   7.010   0.165   7.775 -0.1950  0.4943 -0.2313
  128OSM   H13F13759   7.084   0.239   7.738  0.9690 -0.5420 -0.0665
  128OSM   H13G13760   7.069   0.071   7.779  0.4914  0.9263  0.0140
  128OSM   C14F13761   6.988   0.206   7.918  0.3889  0.6271  0.3775
  128OSM   H14F13762   6.952   0.126   7.986  2.0324  0.4385  1.0779
  128OSM   H14G13763   6.914   0.289   7.925  2.1153  2.1628  1.1892
  128OSM   C15F13764   7.113   0.269   7.984  0.4948  0.4853 -0.5943
  128OSM   H15F13765   7.128   0.368   7.936  1.4782  0.0349 -1.2356
  128OSM   H15G13766   7.198   0.199   7.970 -0.9938 -1.0135 -2.9350
  128OSM   C16F13767   7.085   0.292   8.132  0.0434 -0.0804 -0.0278
  128OSM   H16F13768   7.109   0.198   8.186  3.6122  0.5579 -0.1963
  128OSM   H16G13769   6.984   0.332   8.153 -0.6080 -1.0978 -1.1148
  128OSM   C17F13770   7.192   0.388   8.196  0.3532 -0.2106  0.1350
  128OSM   H17F13771   7.187   0.491   8.154  1.3255 -0.4324 -0.5545
  128OSM   H17G13772   7.293   0.345   8.178  0.7983  0.7998  0.1730
  128OSM   C18F13773   7.170   0.402   8.352  0.4269  0.0533 -0.0337
  128OSM   H18F13774   7.237   0.475   8.401 -0.1755 -1.3224  3.1117
  128OSM   H18G13775   7.172   0.304   8.405  0.0566  0.7188  1.2381
  128OSM   H18H13776   7.065   0.435   8.366  1.0169  1.5789  1.0065
  129OSM      N13777   0.028   1.433   6.098  0.4461  0.0753 -0.0430
  129OSM    C1513778  -0.085   1.494   6.011 -0.2537  0.2875 -0.5725
  129OSM   H15A13779  -0.103   1.600   6.027 -1.0476 -0.0083  0.6087
  129OSM   H15B13780  -0.180   1.446   6.027 -1.2321  2.2296 -0.1935
  129OSM   H15C13781  -0.069   1.481   5.905 -2.4368 -0.1272 -0.9046
  129OSM    C1413782   0.022   1.285   6.101 -0.0180  0.5190  0.1290
  129OSM   H14A13783   0.113   1.240   6.136 -0.0725  0.2060 -0.1315
  129OSM   H14B13784   0.012   1.254   5.998 -0.8288 -1.1222  0.6837
  129OSM   H14C13785  -0.061   1.250   6.159 -0.0449 -2.1398 -1.3621
  129OSM    C1313786   0.152   1.468   6.026  0.9966  0.5050  0.5584
  129OSM   H13A13787   0.233   1.433   6.088  2.1816  1.2185 -0.5324
  129OSM   H13B13788   0.168   1.574   6.012 -0.2587  0.7443  0.8522
  129OSM   H13C13789   0.161   1.427   5.927 -1.1395 -0.7954  0.8462
  129OSM    C1213790   0.029   1.490   6.238 -0.4093 -1.0495  0.0648
  129OSM   H12A13791  -0.069   1.470   6.280 -0.3329 -2.9332 -0.5826
  129OSM   H12B13792   0.029   1.598   6.231 -0.4295 -0.9526  1.2964
  129OSM    C1113793   0.137   1.455   6.338 -0.1865 -0.7145  0.2091
  129OSM   H11A13794   0.158   1.346   6.325 -1.4249 -1.1354  1.5386
  129OSM   H11B13795   0.104   1.471   6.443 -1.3343  1.6299 -0.4631
  129OSM      P13796   0.402   1.495   6.315 -0.0498 -0.0776 -0.3203
  129OSM    O1313797   0.430   1.385   6.220 -0.4356 -0.8707 -0.0191
  129OSM    O1413798   0.489   1.613   6.303 -0.8829 -0.3358 -0.2958
  129OSM    O1113799   0.417   1.438   6.465  0.1457  0.2069 -0.8086
  129OSM    O1213800   0.249   1.536   6.308  0.0988  0.2592 -0.0873
  129OSM    C1S13801   0.380   1.531   6.571 -0.1332  0.0564 -0.2073
  129OSM    H1S13802   0.272   1.540   6.593  0.2251 -1.0004  2.3247
  129OSM    H1T13803   0.422   1.631   6.548  2.4816 -0.4448  1.8609
  129OSM     NF13804   0.407   1.582   6.826 -0.3192  0.3560  0.0818
  129OSM    HNF13805   0.476   1.648   6.854  0.2200 -0.2959  0.3151
  129OSM    C2S13806   0.448   1.496   6.714  0.2026 -0.2124  0.3594
  129OSM    H2S13807   0.421   1.393   6.746  0.3514  0.2004  1.9237
  129OSM    C3S13808   0.601   1.498   6.702  0.1303 -0.2865  0.1222
  129OSM    H3S13809   0.631   1.600   6.669  1.4766 -1.6318 -3.1883
  129OSM     O313810   0.652   1.415   6.603 -0.0209  0.0064  0.4564
  129OSM    HO313811   0.576   1.412   6.544  0.6248 -0.4436 -0.3656
  129OSM    C4S13812   0.670   1.476   6.831 -0.2811 -0.3100 -0.2726
  129OSM    H4S13813   0.702   1.374   6.858 -0.9994 -0.0776  1.5561
  129OSM    C5S13814   0.726   1.573   6.903  0.0891 -0.2344 -0.3371
  129OSM    H5S13815   0.710   1.674   6.863  1.6546  0.4039  0.5699
  129OSM    C6S13816   0.802   1.556   7.031 -0.0966  0.2082  0.2421
  129OSM    H6S13817   0.908   1.589   7.021 -0.1116  0.3024  0.3913
  129OSM    H6T13818   0.815   1.448   7.051 -1.8255 -0.5308 -2.1871
  129OSM    C7S13819   0.737   1.618   7.151 -0.0773 -0.2301 -0.2478
  129OSM    H7S13820   0.633   1.578   7.142 -0.7026  1.6379 -1.9961
  129OSM    H7T13821   0.737   1.728   7.142  2.7310 -0.2245 -1.1411
  129OSM    C8S13822   0.809   1.570   7.284  0.3651 -0.0320 -0.0539
  129OSM    H8S13823   0.918   1.593   7.279  0.2169  1.2431  1.7296
  129OSM    H8T13824   0.799   1.460   7.291  0.6731 -0.0961 -0.5185
  129OSM    C9S13825   0.752   1.623   7.414 -0.0187  0.4222 -0.2826
  129OSM    H9S13826   0.656   1.567   7.427  1.5257 -2.4094 -0.3984
  129OSM    H9T13827   0.727   1.732   7.413  1.8275  0.8822 -0.0736
  129OSM   C10S13828   0.840   1.602   7.535  0.6087 -0.3437 -0.4305
  129OSM   H10S13829   0.939   1.638   7.499  1.2709 -1.0488  0.6267
  129OSM   H10T13830   0.850   1.494   7.560 -0.3485 -0.3589 -0.0882
  129OSM   C11S13831   0.778   1.675   7.664  0.1556 -0.5386  0.3584
  129OSM   H11S13832   0.675   1.635   7.676 -0.5291  0.2650 -2.1546
  129OSM   H11T13833   0.775   1.781   7.632 -0.7058 -0.8847 -0.8126
  129OSM   C12S13834   0.858   1.655   7.793  0.1507  0.0835  0.5849
  129OSM   H12S13835   0.963   1.673   7.762 -0.5594 -1.1774 -3.0384
  129OSM   H12T13836   0.859   1.549   7.825 -1.3768  0.5145  2.2225
  129OSM   C13S13837   0.804   1.749   7.905 -0.3302 -0.2708  0.6246
  129OSM   H13S13838   0.699   1.718   7.928 -0.7233  0.1853 -0.4852
  129OSM   H13T13839   0.805   1.853   7.868  0.6719 -1.0258 -1.6113
  129OSM   C14S13840   0.893   1.734   8.026 -0.1327 -0.0290 -0.2618
  129OSM   H14S13841   0.997   1.745   7.989  0.8841  0.3839  2.5060
  129OSM   H14T13842   0.889   1.632   8.069 -0.3406 -0.1591 -0.5768
  129OSM   C15S13843   0.872   1.835   8.137 -0.1106 -0.6458  0.4340
  129OSM   H15S13844   0.762   1.840   8.148 -0.6724 -1.6335 -3.4126
  129OSM   H15T13845   0.905   1.932   8.094 -0.2340 -0.8587 -0.1457
  129OSM   C16S13846   0.955   1.791   8.260 -0.1202 -0.3843 -0.0943
  129OSM   H16S13847   0.949   1.680   8.269  0.9325 -0.4165  0.2396
  129OSM   H16T13848   0.924   1.845   8.353  0.6755 -0.4432  0.2104
  129OSM   C17S13849   1.104   1.825   8.243 -0.3355  0.1410  0.2359
  129OSM   H17S13850   1.114   1.934   8.223 -2.3243  0.6037  1.5395
  129OSM   H17T13851   1.150   1.768   8.159 -1.8875  0.8547 -1.1686
  129OSM   C18S13852   1.179   1.802   8.373  0.8580 -0.1618 -0.1028
  129OSM   H18S13853   1.153   1.698   8.400  0.3406  0.4680  2.0933
  129OSM   H18T13854   1.142   1.852   8.466 -0.1917 -1.4809  0.2097
  129OSM   H18U13855   1.287   1.821   8.358  1.0560 -0.3277  0.9990
  129OSM    C1F13856   0.278   1.586   6.872 -0.0018  0.0427 -0.2569
  129OSM     OF13857   0.194   1.502   6.842 -0.3807  0.5293  0.3712
  129OSM    C2F13858   0.239   1.688   6.978 -0.1815 -0.2746  0.6638
  129OSM    H2F13859   0.178   1.631   7.052 -0.3443 -0.6209  0.2685
  129OSM    H2G13860   0.173   1.767   6.938 -0.2052  0.5115  2.1680
  129OSM    C3F13861   0.353   1.743   7.068  0.2187 -0.0376  0.0514
  129OSM    H3F13862   0.407   1.820   7.009 -0.1879  0.5414  0.4082
  129OSM    H3G13863   0.428   1.671   7.107  0.8554  0.0875 -0.9274
  129OSM    C4F13864   0.295   1.815   7.191 -0.1634  0.3555 -0.3059
  129OSM    H4F13865   0.235   1.742   7.250 -0.1830 -2.0246 -3.0338
  129OSM    H4G13866   0.227   1.896   7.157 -0.6995 -0.8111 -2.1550
  129OSM    C5F13867   0.406   1.861   7.287  0.0460 -0.0067 -0.3059
  129OSM    H5F13868   0.458   1.940   7.230 -0.4281  1.0059  0.6370
  129OSM    H5G13869   0.472   1.775   7.313  0.1537  0.6343  1.7382
  129OSM    C6F13870   0.338   1.907   7.413  0.1186 -0.7536 -0.7708
  129OSM    H6F13871   0.268   1.824   7.439 -0.2476 -0.2879 -0.2393
  129OSM    H6G13872   0.271   1.990   7.384  0.7834 -0.5317 -1.6866
  129OSM    C7F13873   0.439   1.937   7.520 -0.3459  0.3345 -0.4048
  129OSM    H7F13874   0.518   1.997   7.470  0.4971 -0.2486  0.1746
  129OSM    H7G13875   0.497   1.848   7.554  0.2186  1.0072  0.4385
  129OSM    C8F13876   0.379   2.004   7.644 -0.1548 -0.0528 -0.3281
  129OSM    H8F13877   0.299   1.943   7.690  1.6922 -1.8499  0.6952
  129OSM    H8G13878   0.329   2.096   7.607 -1.8558 -1.3026 -1.2919
  129OSM    C9F13879   0.487   2.032   7.751 -0.2283 -0.0810  0.1299
  129OSM    H9F13880   0.555   2.115   7.728 -0.0900 -0.5318 -1.1577
  129OSM   C10F13881   0.502   1.968   7.866 -0.2448  0.4643  0.2775
  129OSM   H10F13882   0.598   1.992   7.915  0.9964 -2.4022 -0.5335
  129OSM   C11F13883   0.417   1.851   7.914 -0.0091 -0.2234 -0.4507
  129OSM   H11F13884   0.483   1.761   7.915 -0.7555 -0.8268 -1.6340
  129OSM   H11G13885   0.331   1.826   7.848  0.0829 -0.4972 -0.4713
  129OSM   C12F13886   0.365   1.894   8.051  0.6304 -0.2093 -0.0519
  129OSM   H12F13887   0.280   1.826   8.075  1.2123 -1.2631 -0.8872
  129OSM   H12G13888   0.321   1.996   8.048 -0.4234 -0.6681 -2.7731
  129OSM   C13F13889   0.461   1.879   8.167 -0.2470 -0.7305  0.1795
  129OSM   H13F13890   0.532   1.965   8.168  0.3735 -1.1996 -0.9097
  129OSM   H13G13891   0.525   1.791   8.141  2.1215  0.8464  0.3200
  129OSM   C14F13892   0.400   1.852   8.306  1.2959 -0.1025 -0.1115
  129OSM   H14F13893   0.355   1.751   8.295 -1.6406  0.8854  1.5717
  129OSM   H14G13894   0.325   1.933   8.321  2.8537  1.6957 -1.5238
  129OSM   C15F13895   0.505   1.846   8.415  0.6286 -0.4226  0.2232
  129OSM   H15F13896   0.573   1.934   8.412  1.6779 -1.1946  0.8263
  129OSM   H15G13897   0.570   1.757   8.399  1.0969  0.0889 -0.8469
  129OSM   C16F13898   0.427   1.824   8.541  0.1074  0.4742 -1.0720
  129OSM   H16F13899   0.354   1.742   8.526 -0.2945  0.8435 -1.1566
  129OSM   H16G13900   0.372   1.915   8.573 -0.8553 -1.2230  2.7432
  129OSM   C17F13901   0.512   1.786   8.666 -0.9477  0.3305  0.8942
  129OSM   H17F13902   0.587   1.714   8.628 -0.3353  0.2440  2.2357
  129OSM   H17G13903   0.451   1.733   8.742  1.5028 -2.3076  1.1608
  129OSM   C18F13904   0.598   1.887   8.736 -0.5313 -0.4722  0.0658
  129OSM   H18F13905   0.537   1.975   8.767 -2.0925 -1.7747  0.8802
  129OSM   H18G13906   0.677   1.926   8.669 -2.5917  0.2869 -2.0320
  129OSM   H18H13907   0.651   1.855   8.829  0.2374  2.8541  0.8924
  130OSM      N13908   0.422   0.597   5.752 -0.2628  0.3495  0.0179
  130OSM    C1513909   0.425   0.741   5.785 -0.4078  0.4253  0.2285
  130OSM   H15A13910   0.527   0.764   5.810  0.4149 -0.4244 -2.1028
  130OSM   H15B13911   0.370   0.752   5.877 -1.1153  2.5729 -0.3798
  130OSM   H15C13912   0.380   0.804   5.708  0.3866 -1.3830 -1.8271
  130OSM    C1413913   0.287   0.555   5.720  0.0557 -0.1237  0.7341
  130OSM   H14A13914   0.239   0.634   5.664  0.0642  0.0956  1.0314
  130OSM   H14B13915   0.233   0.561   5.813  0.2383 -1.5624  0.9496
  130OSM   H14C13916   0.279   0.458   5.673 -0.5817  0.7421 -1.0414
  130OSM    C1313917   0.507   0.577   5.622  1.1286  0.0317 -0.1110
  130OSM   H13A13918   0.491   0.654   5.549  1.4717  1.2722  1.0798
  130OSM   H13B13919   0.485   0.485   5.571  0.3488 -0.0648  0.3887
  130OSM   H13C13920   0.614   0.577   5.640  1.4398  0.4029 -1.7861
  130OSM    C1213921   0.479   0.518   5.872 -0.1286 -1.0100 -0.2361
  130OSM   H12A13922   0.580   0.557   5.882 -0.6838  0.8824 -1.3910
  130OSM   H12B13923   0.500   0.419   5.834  3.0262 -0.4670 -0.2196
  130OSM    C1113924   0.403   0.526   6.007  0.0730  0.2110 -0.0567
  130OSM   H11A13925   0.435   0.438   6.066  0.4652  0.3601 -0.0464
  130OSM   H11B13926   0.293   0.522   5.990 -0.0470  0.1552  0.6895
  130OSM      P13927   0.541   0.668   6.189  0.2872 -0.0549  0.0072
  130OSM    O1313928   0.641   0.555   6.175  0.3997 -0.1886 -0.7244
  130OSM    O1413929   0.600   0.803   6.185 -0.1244 -0.4257 -0.3462
  130OSM    O1113930   0.449   0.665   6.321 -0.2198  0.0376 -0.3058
  130OSM    O1213931   0.440   0.653   6.062 -0.1681 -0.0729 -0.7579
  130OSM    C1S13932   0.397   0.542   6.368 -0.1710 -0.0311 -0.3069
  130OSM    H1S13933   0.480   0.474   6.397  0.5773  0.2860 -1.6329
  130OSM    H1T13934   0.331   0.495   6.292  1.7065 -1.4047 -1.1536
  130OSM     NF13935   0.274   0.442   6.578 -0.4942 -0.5347  0.0383
  130OSM    HNF13936   0.197   0.387   6.546  0.2814 -3.2571  2.4189
  130OSM    C2S13937   0.312   0.568   6.506 -0.8009 -0.0371 -0.7714
  130OSM    H2S13938   0.370   0.630   6.577 -1.5930 -0.6957  0.4890
  130OSM    C3S13939   0.187   0.663   6.471  0.9890  0.2661  0.0792
  130OSM    H3S13940   0.128   0.600   6.400 -0.4254  0.3685  1.1190
  130OSM     O313941   0.219   0.792   6.407 -0.7881 -0.3230  0.3647
  130OSM    HO313942   0.290   0.755   6.355  0.5725 -1.5263  2.8800
  130OSM    C4S13943   0.094   0.685   6.591 -0.6610 -0.2667  0.2484
  130OSM    H4S13944   0.005   0.623   6.610 -1.4043  0.7262  0.0962
  130OSM    C5S13945   0.124   0.765   6.690 -0.7445  0.0159 -0.6699
  130OSM    H5S13946   0.224   0.810   6.702 -0.9452 -0.1469  2.6651
  130OSM    C6S13947   0.044   0.789   6.817 -0.0940 -0.4253  0.4841
  130OSM    H6S13948  -0.061   0.753   6.807  0.3477 -1.7377  0.3130
  130OSM    H6T13949   0.031   0.899   6.823  0.0358  0.0894 -4.4081
  130OSM    C7S13950   0.102   0.734   6.943  0.0682 -0.8799  0.2312
  130OSM    H7S13951   0.191   0.798   6.960 -0.8255  0.7167 -0.8830
  130OSM    H7T13952   0.130   0.630   6.915  1.9004  0.1389 -2.0943
  130OSM    C8S13953   0.007   0.738   7.066 -0.1908  0.2430 -0.5581
  130OSM    H8S13954  -0.069   0.658   7.049  0.8615 -0.8211 -0.3778
  130OSM    H8T13955  -0.050   0.833   7.081  0.8460  0.6001  1.4274
  130OSM    C9S13956   0.079   0.709   7.193 -0.7121  0.6925 -0.9928
  130OSM    H9S13957   0.162   0.781   7.210  2.2093 -2.6158 -0.0173
  130OSM    H9T13958   0.141   0.617   7.185 -0.2807  0.8585  0.2842
  130OSM   C10S13959  -0.017   0.707   7.316 -0.5139  0.2359 -0.7531
  130OSM   H10S13960  -0.062   0.606   7.315 -0.8426  0.3364  0.9356
  130OSM   H10T13961  -0.099   0.780   7.296  0.7285  1.1958 -2.6944
  130OSM   C11S13962   0.059   0.718   7.447  0.5244 -0.1490  0.4993
  130OSM   H11S13963   0.095   0.823   7.445 -1.7905  0.7510  2.0465
  130OSM   H11T13964   0.143   0.650   7.471  0.2178  0.2898  3.1071
  130OSM   C12S13965  -0.033   0.711   7.564  0.3563  0.0031 -0.9529
  130OSM   H12S13966  -0.080   0.611   7.570 -0.0446  0.2624  0.5011
  130OSM   H12T13967  -0.117   0.784   7.554  0.3610  0.3382  1.0679
  130OSM   C13S13968   0.026   0.752   7.698 -0.0860  0.2303 -0.1886
  130OSM   H13S13969   0.077   0.848   7.675 -2.0632  1.1848 -0.8499
  130OSM   H13T13970   0.102   0.673   7.720 -0.3686 -0.6310 -2.1132
  130OSM   C14S13971  -0.084   0.761   7.803 -0.3139  0.8222  0.0386
  130OSM   H14S13972  -0.124   0.657   7.810  2.4876 -0.2696  1.3416
  130OSM   H14T13973  -0.163   0.833   7.775 -3.3283 -2.1270  0.2601
  130OSM   C15S13974  -0.036   0.804   7.942  0.0117 -0.6285 -0.4099
  130OSM   H15S13975  -0.124   0.807   8.009  1.0602  0.5597  0.9926
  130OSM   H15T13976  -0.002   0.909   7.928 -4.1565  0.8343 -0.8967
  130OSM   C16S13977   0.071   0.711   8.001  0.7370  0.3876  0.3599
  130OSM   H16S13978   0.162   0.722   7.938  1.0884  0.1092  0.8109
  130OSM   H16T13979   0.028   0.609   8.003  1.2502  0.0799 -1.7695
  130OSM   C17S13980   0.096   0.762   8.147 -0.2704  0.9975  0.6245
  130OSM   H17S13981   0.119   0.871   8.151 -0.5920  1.1650 -1.1037
  130OSM   H17T13982   0.181   0.702   8.184 -0.3802 -0.3794 -1.2302
  130OSM   C18S13983  -0.016   0.730   8.245  0.2559 -0.6570  0.4266
  130OSM   H18S13984  -0.051   0.628   8.219 -1.2097  0.0490 -0.5054
  130OSM   H18T13985  -0.096   0.802   8.217 -0.1808 -1.9822 -1.9986
  130OSM   H18U13986   0.016   0.745   8.350 -0.2257 -1.0179  0.6310
  130OSM    C1F13987   0.361   0.370   6.648 -0.0316 -0.1114  0.0054
  130OSM     OF13988   0.452   0.428   6.703 -0.6341  0.5998  0.3441
  130OSM    C2F13989   0.336   0.219   6.641  0.1021  0.2745 -0.0883
  130OSM    H2F13990   0.393   0.177   6.555  0.1323  0.2754 -0.0689
  130OSM    H2G13991   0.228   0.200   6.624  0.0698  2.0908 -2.4946
  130OSM    C3F13992   0.393   0.142   6.762  0.2724 -0.1460  0.1784
  130OSM    H3F13993   0.369   0.185   6.862  0.3782 -1.6395  0.8748
  130OSM    H3G13994   0.501   0.135   6.736  0.3352  1.0457  0.0674
  130OSM    C4F13995   0.347  -0.002   6.788 -0.8151  0.6729 -0.4930
  130OSM    H4F13996   0.356  -0.054   6.689  0.8654 -2.1380  0.9966
  130OSM    H4G13997   0.242   0.002   6.825 -0.3895  1.6818  0.6618
  130OSM    C5F13998   0.424  -0.093   6.883  0.6795 -0.0577  0.4990
  130OSM    H5F13999   0.532  -0.065   6.891  0.3970  1.5934 -0.9773
  130OSM    H5G14000   0.426  -0.196   6.841  0.1490 -0.6091  1.7777
  130OSM    C6F14001   0.359  -0.109   7.023 -0.7944 -0.8037  0.8669
  130OSM    H6F14002   0.263  -0.164   7.009 -0.1678 -1.8267  0.4195
  130OSM    H6G14003   0.332  -0.009   7.064 -0.3948 -1.0560  1.7697
  130OSM    C7F14004   0.453  -0.175   7.121  0.2333  0.3210 -0.2332
  130OSM    H7F14005   0.554  -0.131   7.111  0.5339 -0.2844  0.0963
  130OSM    H7G14006   0.463  -0.283   7.094 -1.3966  0.0659  0.0480
  130OSM    C8F14007   0.387  -0.172   7.261  0.1264 -0.1556 -0.5939
  130OSM    H8F14008   0.349  -0.068   7.276 -0.0659 -0.3339  0.1791
  130OSM    H8G14009   0.474  -0.191   7.327  0.5805  1.4201 -0.6979
  130OSM    C9F14010   0.275  -0.278   7.282  0.1560  0.2475 -0.6207
  130OSM    H9F14011   0.278  -0.361   7.209 -0.8048 -1.1500  0.8840
  130OSM   C10F14012   0.174  -0.277   7.376 -0.4945  0.0231  0.1711
  130OSM   H10F14013   0.096  -0.354   7.377 -1.9600  1.4483  0.4367
  130OSM   C11F14014   0.164  -0.176   7.488 -1.0582 -0.1832  0.7212
  130OSM   H11F14015   0.075  -0.111   7.472  0.6580  2.0849 -0.0412
  130OSM   H11G14016   0.250  -0.107   7.486 -1.6029  0.5525  1.5831
  130OSM   C12F14017   0.171  -0.232   7.632 -0.2951 -0.2233 -0.0687
  130OSM   H12F14018   0.164  -0.136   7.687  1.3030  1.1302 -2.0570
  130OSM   H12G14019   0.274  -0.264   7.659 -0.3424  0.0784  0.4691
  130OSM   C13F14020   0.060  -0.332   7.673 -0.3486  0.5086  0.0856
  130OSM   H13F14021   0.061  -0.424   7.611 -0.5068  0.4718  0.1389
  130OSM   H13G14022  -0.043  -0.292   7.662 -0.7707  0.0042  1.8700
  130OSM   C14F14023   0.082  -0.388   7.817  0.2099 -0.0174 -0.1295
  130OSM   H14F14024   0.097  -0.300   7.884 -4.3876  1.7103 -0.9942
  130OSM   H14G14025   0.168  -0.457   7.805  0.0038 -0.4715  0.9319
  130OSM   C15F14026  -0.041  -0.458   7.861  0.1488  0.3150 -0.1426
  130OSM   H15F14027  -0.059  -0.520   7.771 -1.2534  1.4775 -0.7067
  130OSM   H15G14028  -0.128  -0.394   7.888 -0.4992 -0.8128  0.5225
  130OSM   C16F14029  -0.021  -0.551   7.984  0.4017 -0.5939 -0.3439
  130OSM   H16F14030   0.019  -0.491   8.069 -0.6702  1.5554 -1.2846
  130OSM   H16G14031   0.048  -0.634   7.956  1.8061  0.7842 -1.1358
  130OSM   C17F14032  -0.152  -0.621   8.035  0.1645  0.3382  0.0366
  130OSM   H17F14033  -0.195  -0.674   7.947  1.9328 -2.5413  0.7715
  130OSM   H17G14034  -0.220  -0.537   8.060 -0.3050  0.4417 -1.5042
  130OSM   C18F14035  -0.138  -0.705   8.157  0.0298 -0.0635  0.2029
  130OSM   H18F14036  -0.080  -0.651   8.236  0.8220  1.2878 -1.2521
  130OSM   H18G14037  -0.079  -0.797   8.142 -0.3771 -0.3094  0.0815
  130OSM   H18H14038  -0.239  -0.733   8.195 -1.1354  2.0233 -1.1954
  131OSM      N14039   1.740   4.155   5.960  0.1891 -0.9617 -0.5222
  131OSM    C1514040   1.642   4.199   6.066  0.1606 -0.8467 -0.6656
  131OSM   H15A14041   1.638   4.304   6.091 -0.1363 -0.8828 -0.5609
  131OSM   H15B14042   1.652   4.140   6.157 -0.3417  0.3898  0.2093
  131OSM   H15C14043   1.543   4.170   6.035 -0.1844 -0.2796 -0.1222
  131OSM    C1414044   1.716   4.006   5.939 -0.6256  0.1443  0.3157
  131OSM   H14A14045   1.704   3.952   6.032 -2.0200 -0.7319 -0.3272
  131OSM   H14B14046   1.798   3.952   5.894  0.0047 -0.4343  2.0500
  131OSM   H14C14047   1.625   3.991   5.883 -0.4672  0.5287 -0.0471
  131OSM    C1314048   1.719   4.230   5.833  0.0907  0.4731  0.1305
  131OSM   H13A14049   1.731   4.337   5.841  0.7742  0.4143 -0.0146
  131OSM   H13B14050   1.617   4.213   5.800  0.1431  1.2988 -0.4829
  131OSM   H13C14051   1.788   4.205   5.753  1.7234  2.2025  0.9170
  131OSM    C1214052   1.886   4.179   6.005 -0.5288 -0.1092  0.5385
  131OSM   H12A14053   1.890   4.284   6.031  1.7109  0.1264 -0.5538
  131OSM   H12B14054   1.945   4.175   5.915 -0.4708  2.9852  0.3480
  131OSM    C1114055   1.950   4.098   6.119 -0.3517  0.5538  0.6915
  131OSM   H11A14056   1.896   4.108   6.216 -0.3084  0.5117  0.7201
  131OSM   H11B14057   2.037   4.162   6.143 -0.2205  0.4770  0.4261
  131OSM      P14058   1.952   3.841   6.172 -0.2968 -0.6574  0.2351
  131OSM    O1314059   1.814   3.800   6.152  0.3274 -0.0197 -0.2202
  131OSM    O1414060   2.051   3.732   6.146 -1.0675 -0.6078 -0.1895
  131OSM    O1114061   1.967   3.884   6.327 -0.1306  0.2544  0.3544
  131OSM    O1214062   1.988   3.965   6.081 -1.0758  0.1178 -0.2313
  131OSM    C1S14063   2.105   3.912   6.365 -0.0278 -0.3714 -1.0919
  131OSM    H1S14064   2.143   4.005   6.318 -0.5697  1.0868  1.1978
  131OSM    H1T14065   2.168   3.820   6.362 -1.6841 -1.5797 -0.5992
  131OSM     NF14066   2.246   3.998   6.559 -0.2567 -0.3131 -0.5776
  131OSM    HNF14067   2.300   3.934   6.612 -0.1910  1.4741  1.6831
  131OSM    C2S14068   2.113   3.964   6.519  0.4873  0.3143 -1.0178
  131OSM    H2S14069   2.052   4.057   6.528 -0.9876 -0.7072  0.1137
  131OSM    C3S14070   2.038   3.855   6.619 -0.9158 -0.2363 -0.5558
  131OSM    H3S14071   2.110   3.772   6.606  3.8001  3.4560 -0.5939
  131OSM     O314072   1.910   3.811   6.572 -0.4914 -0.4790 -0.1424
  131OSM    HO314073   1.912   3.835   6.479 -1.7856  1.2190  0.2083
  131OSM    C4S14074   2.025   3.898   6.768 -0.2616  0.7441  0.4401
  131OSM    H4S14075   2.092   3.842   6.835 -0.2915  1.1976  0.8565
  131OSM    C5S14076   1.928   3.979   6.815  0.5401  0.4698  0.0891
  131OSM    H5S14077   1.852   4.027   6.751  0.1912  0.5938  0.5894
  131OSM    C6S14078   1.901   4.017   6.959  0.4158 -0.2613  1.1494
  131OSM    H6S14079   1.939   4.120   6.973  1.1137 -0.1020 -1.4497
  131OSM    H6T14080   1.953   3.954   7.035 -1.6546 -1.7748  1.3838
  131OSM    C7S14081   1.754   4.019   6.995 -0.5718 -0.4134 -0.1351
  131OSM    H7S14082   1.713   3.917   6.976  2.0837 -2.2787  3.0241
  131OSM    H7T14083   1.692   4.082   6.927  0.1317  0.6797  0.2135
  131OSM    C8S14084   1.726   4.084   7.131  0.1110  0.8924 -0.7219
  131OSM    H8S14085   1.619   4.061   7.149  0.3388 -2.0201 -2.3530
  131OSM    H8T14086   1.742   4.194   7.129 -0.5148  0.9875 -0.5065
  131OSM    C9S14087   1.811   4.031   7.242 -0.1769 -0.1848 -0.0917
  131OSM    H9S14088   1.916   4.066   7.229  0.2482 -2.2438 -3.2450
  131OSM    H9T14089   1.821   3.920   7.236  0.5384 -0.0849 -0.8894
  131OSM   C10S14090   1.763   4.086   7.376 -0.8962  0.3674 -0.6477
  131OSM   H10S14091   1.655   4.059   7.372 -1.0375  0.9712 -0.9791
  131OSM   H10T14092   1.761   4.197   7.370  1.1483  0.6177  1.7447
  131OSM   C11S14093   1.829   4.030   7.502  0.1248 -0.2490  0.2377
  131OSM   H11S14094   1.940   4.029   7.496  0.1369  0.6632  0.1801
  131OSM   H11T14095   1.796   3.924   7.510 -0.7843 -0.1713 -1.8836
  131OSM   C12S14096   1.782   4.103   7.633 -0.3576  0.3491 -0.1034
  131OSM   H12S14097   1.672   4.098   7.625 -0.5847  4.3870 -3.9384
  131OSM   H12T14098   1.806   4.212   7.631 -2.1754  0.7793  0.0971
  131OSM   C13S14099   1.828   4.035   7.758 -0.0956  0.9476 -0.0081
  131OSM   H13S14100   1.936   4.009   7.759  0.2091  2.1263 -0.7966
  131OSM   H13T14101   1.765   3.945   7.774 -2.0998  2.5889  2.1159
  131OSM   C14S14102   1.800   4.125   7.880 -0.2478  0.0651  0.5825
  131OSM   H14S14103   1.693   4.153   7.865 -0.3550 -1.2492 -1.5477
  131OSM   H14T14104   1.852   4.222   7.866 -0.7928  0.1202 -1.4358
  131OSM   C15S14105   1.829   4.064   8.015  0.4967  0.4024  0.2347
  131OSM   H15S14106   1.935   4.029   8.017  0.4547  0.2947  1.3337
  131OSM   H15T14107   1.765   3.973   8.012  1.5899 -0.3846 -2.7843
  131OSM   C16S14108   1.803   4.162   8.128  0.3782  0.2183 -0.0578
  131OSM   H16S14109   1.704   4.207   8.107 -0.2138 -0.6266  0.8398
  131OSM   H16T14110   1.887   4.235   8.125  1.1394 -0.5951 -3.5212
  131OSM   C17S14111   1.795   4.107   8.272 -0.3679 -0.1441 -1.3474
  131OSM   H17S14112   1.898   4.099   8.314 -1.0132 -1.5365  0.0527
  131OSM   H17T14113   1.730   4.020   8.294 -2.5988  2.1065  1.6560
  131OSM   C18S14114   1.729   4.229   8.346 -0.2264 -0.7360  0.0093
  131OSM   H18S14115   1.629   4.254   8.305  0.2745  1.8330  0.2259
  131OSM   H18T14116   1.790   4.322   8.345 -2.1155  0.7409  3.7532
  131OSM   H18U14117   1.713   4.196   8.451  0.4587 -1.5740 -0.1260
  131OSM    C1F14118   2.302   4.115   6.515 -0.7502  0.0466 -0.7317
  131OSM     OF14119   2.259   4.188   6.427  0.0830  0.4170 -0.7457
  131OSM    C2F14120   2.446   4.133   6.559  0.1457 -0.8667 -0.0212
  131OSM    H2F14121   2.512   4.140   6.470  0.3257 -0.6505  0.1302
  131OSM    H2G14122   2.483   4.051   6.624 -0.5537 -1.1742  0.0061
  131OSM    C3F14123   2.472   4.266   6.636 -0.1574 -0.0957 -0.3753
  131OSM    H3F14124   2.454   4.351   6.567 -1.7926 -0.2618 -0.2013
  131OSM    H3G14125   2.577   4.272   6.673 -0.1045  1.4612 -0.7065
  131OSM    C4F14126   2.384   4.291   6.756 -0.1686  0.3818 -0.2481
  131OSM    H4F14127   2.279   4.296   6.719  0.3643  1.9637 -1.6473
  131OSM    H4G14128   2.403   4.390   6.804  0.8967  0.0555  0.0183
  131OSM    C5F14129   2.399   4.184   6.869  0.3785 -0.1035  0.5496
  131OSM    H5F14130   2.500   4.178   6.916 -0.3224  1.2377  2.3330
  131OSM    H5G14131   2.363   4.092   6.819  1.1650  0.3459 -0.9211
  131OSM    C6F14132   2.312   4.223   6.989  0.2441 -0.2656 -0.6498
  131OSM    H6F14133   2.217   4.273   6.960 -2.2720 -3.8143  0.8002
  131OSM    H6G14134   2.362   4.301   7.050 -0.1185 -0.4938 -0.0522
  131OSM    C7F14135   2.288   4.104   7.081 -0.0194  0.4050  0.2889
  131OSM    H7F14136   2.386   4.070   7.119 -0.1559 -0.3675 -0.0297
  131OSM    H7G14137   2.260   4.020   7.014  2.0792  1.0170 -1.4692
  131OSM    C8F14138   2.199   4.143   7.196  0.1300 -0.5837  0.6527
  131OSM    H8F14139   2.105   4.178   7.148  1.9499  0.0230 -2.7583
  131OSM    H8G14140   2.240   4.238   7.236  0.2507 -0.9384  1.3770
  131OSM    C9F14141   2.185   4.036   7.297 -0.3560 -0.0730  0.4773
  131OSM    H9F14142   2.099   3.969   7.285 -0.5727  0.4084 -0.7076
  131OSM   C10F14143   2.273   4.015   7.393 -0.3028 -0.7097 -0.0545
  131OSM   H10F14144   2.251   3.931   7.461  0.8580 -1.2362 -0.2980
  131OSM   C11F14145   2.403   4.098   7.414  0.4670  1.2019  0.0520
  131OSM   H11F14146   2.399   4.195   7.361  1.7953  1.7605  0.9074
  131OSM   H11G14147   2.491   4.048   7.370 -0.1314  0.1523  0.0168
  131OSM   C12F14148   2.419   4.133   7.560 -0.0104  0.1814 -0.0242
  131OSM   H12F14149   2.323   4.163   7.607 -1.2433 -2.4941 -0.6654
  131OSM   H12G14150   2.492   4.215   7.579 -0.0358  0.5481 -1.3823
  131OSM   C13F14151   2.456   4.012   7.650 -0.8430  0.5196  0.0671
  131OSM   H13F14152   2.558   3.975   7.624 -1.4541 -2.8848  1.8840
  131OSM   H13G14153   2.394   3.922   7.629 -0.2645  0.0042  0.5424
  131OSM   C14F14154   2.466   4.056   7.799  0.0144 -0.1457  0.6965
  131OSM   H14F14155   2.363   4.080   7.834  0.3429  2.1194  0.2668
  131OSM   H14G14156   2.534   4.144   7.802  1.5540 -1.3064  1.0858
  131OSM   C15F14157   2.529   3.950   7.886  0.6180 -0.1164  0.1192
  131OSM   H15F14158   2.634   3.928   7.858  0.0973  0.1447 -2.2782
  131OSM   H15G14159   2.475   3.857   7.857  1.9015  0.1632 -3.7515
  131OSM   C16F14160   2.523   3.974   8.036  0.1274  0.2469  0.0226
  131OSM   H16F14161   2.557   4.075   8.066  0.9444 -0.1808  0.5786
  131OSM   H16G14162   2.581   3.896   8.090 -2.9432 -0.1837  2.9820
  131OSM   C17F14163   2.390   3.955   8.102  0.5942  0.0628  0.4150
  131OSM   H17F14164   2.366   3.847   8.102  0.6115  0.0566 -0.2892
  131OSM   H17G14165   2.310   4.018   8.059 -0.7786  0.3210  3.0967
  131OSM   C18F14166   2.388   3.997   8.251  0.3381  0.2779  0.2773
  131OSM   H18F14167   2.296   3.972   8.308  0.2105 -2.1988 -0.8836
  131OSM   H18G14168   2.402   4.106   8.268 -1.7939  0.5304  0.6635
  131OSM   H18H14169   2.464   3.931   8.298  0.0464 -0.9942 -0.9474
  132OSM      N14170   3.958   5.154   6.324  0.3332  0.6102 -0.2858
  132OSM    C1514171   4.087   5.232   6.331 -0.5519 -0.3373 -0.2512
  132OSM   H15A14172   4.064   5.332   6.363 -3.0029 -0.1220 -2.3398
  132OSM   H15B14173   4.138   5.244   6.236  2.7990 -0.5627  1.3662
  132OSM   H15C14174   4.163   5.189   6.395  1.7580  1.9541 -1.2588
  132OSM    C1414175   3.878   5.183   6.204  0.1329 -0.3562  0.5897
  132OSM   H14A14176   3.856   5.288   6.197  2.4387  0.1202 -0.2515
  132OSM   H14B14177   3.784   5.129   6.207  0.5134 -1.1167 -0.4471
  132OSM   H14C14178   3.935   5.163   6.114 -0.9989  1.0337 -0.4808
  132OSM    C1314179   3.981   5.010   6.330  0.5161  0.2147  0.6166
  132OSM   H13A14180   3.892   4.954   6.357  1.1146 -0.0154  2.2245
  132OSM   H13B14181   4.053   4.988   6.407 -0.6499  0.1761  1.7451
  132OSM   H13C14182   4.029   4.977   6.239 -0.6726 -0.2079  0.1133
  132OSM    C1214183   3.881   5.192   6.448 -0.5736 -0.4510 -0.2902
  132OSM   H12A14184   3.942   5.153   6.528 -3.0818 -0.9050  1.5093
  132OSM   H12B14185   3.791   5.134   6.456 -1.0583 -0.0752 -2.4897
  132OSM    C1114186   3.855   5.341   6.483  0.7165  0.4295  1.0117
  132OSM   H11A14187   3.950   5.398   6.485  1.7573 -1.1350 -0.6963
  132OSM   H11B14188   3.811   5.351   6.584 -0.6810  0.0780  0.4617
  132OSM      P14189   3.755   5.517   6.318 -0.2241  0.0319  0.0923
  132OSM    O1314190   3.871   5.516   6.226 -0.3306  0.3149  0.2311
  132OSM    O1414191   3.618   5.546   6.267 -0.8222 -0.2779 -0.6039
  132OSM    O1114192   3.790   5.602   6.444  0.5761 -0.2589 -0.2148
  132OSM    O1214193   3.744   5.375   6.391 -0.1078  0.4049  0.9929
  132OSM    C1S14194   3.695   5.613   6.546  0.6360  0.2589  0.5733
  132OSM    H1S14195   3.643   5.515   6.561 -4.3499  2.5124  0.0951
  132OSM    H1T14196   3.612   5.676   6.508 -0.0905 -0.0992  1.5225
  132OSM     NF14197   3.615   5.662   6.769 -0.0795 -0.2925 -0.4384
  132OSM    HNF14198   3.573   5.751   6.786  1.9594  0.4966  0.7933
  132OSM    C2S14199   3.737   5.655   6.687 -0.5232  0.7154  0.2916
  132OSM    H2S14200   3.792   5.568   6.728 -0.3302 -0.2689 -1.8763
  132OSM    C3S14201   3.817   5.782   6.689  0.3902  0.2577 -0.2094
  132OSM    H3S14202   3.753   5.868   6.661 -1.0403 -1.3374 -2.1253
  132OSM     O314203   3.920   5.783   6.588 -0.4492  0.2334 -0.2825
  132OSM    HO314204   3.883   5.711   6.537 -1.2691 -0.5297  1.3249
  132OSM    C4S14205   3.881   5.803   6.826  0.3203  0.2608  0.0950
  132OSM    H4S14206   3.978   5.753   6.841  0.2964  0.1048 -0.2725
  132OSM    C5S14207   3.829   5.889   6.920  0.5118  0.4349  0.9148
  132OSM    H5S14208   3.733   5.938   6.897  0.1540  0.0046  1.4755
  132OSM    C6S14209   3.886   5.913   7.055 -0.2356  0.5316  0.0627
  132OSM    H6S14210   3.959   5.996   7.049 -0.1816  0.3774 -2.7706
  132OSM    H6T14211   3.942   5.823   7.088 -0.4143  0.7412  0.9765
  132OSM    C7S14212   3.780   5.941   7.162  0.0249 -0.0822 -0.7117
  132OSM    H7S14213   3.694   5.871   7.155 -0.3649  0.2380  0.5527
  132OSM    H7T14214   3.745   6.043   7.136 -0.9696 -0.7873 -2.2718
  132OSM    C8S14215   3.846   5.951   7.308  0.6312  0.6104 -0.7941
  132OSM    H8S14216   3.774   6.007   7.372  0.9709  0.5461 -0.3455
  132OSM    H8T14217   3.936   6.016   7.298  0.5348  0.3667 -4.0494
  132OSM    C9S14218   3.876   5.815   7.381 -0.5074 -0.6557 -0.4381
  132OSM    H9S14219   3.931   5.757   7.303  0.7783 -0.8676  0.5958
  132OSM    H9T14220   3.777   5.771   7.403 -1.2981  2.1286  2.2634
  132OSM   C10S14221   3.956   5.838   7.513 -0.2224  0.7165  0.4848
  132OSM   H10S14222   4.027   5.923   7.498 -0.1090  0.5816  0.2582
  132OSM   H10T14223   4.012   5.746   7.539 -0.7839  0.6463  1.5159
  132OSM   C11S14224   3.873   5.869   7.640 -0.3098  0.5287  0.3253
  132OSM   H11S14225   3.780   5.809   7.640 -0.4358  0.6322 -2.3798
  132OSM   H11T14226   3.852   5.978   7.633 -0.7721  0.3111 -2.8619
  132OSM   C12S14227   3.961   5.855   7.772 -0.0614  0.2136  0.9753
  132OSM   H12S14228   4.029   5.943   7.762  1.5329 -1.2175 -2.6288
  132OSM   H12T14229   4.023   5.764   7.760 -0.4148  0.2013 -1.2290
  132OSM   C13S14230   3.880   5.856   7.898 -0.2789 -0.2447 -0.5560
  132OSM   H13S14231   3.789   5.792   7.887 -0.5582 -0.2829  1.5799
  132OSM   H13T14232   3.858   5.963   7.915  0.1643  0.1223 -2.0658
  132OSM   C14S14233   3.962   5.794   8.017  0.2865  0.3117  0.4529
  132OSM   H14S14234   4.046   5.865   8.028 -0.2782  1.0920 -0.1605
  132OSM   H14T14235   4.010   5.695   7.997 -2.4875 -1.7023  2.8393
  132OSM   C15S14236   3.899   5.776   8.159  0.7445  0.5423 -0.3888
  132OSM   H15S14237   3.976   5.730   8.226  0.3848 -0.3869 -0.6017
  132OSM   H15T14238   3.803   5.721   8.152  1.1445 -0.1956 -0.1967
  132OSM   C16S14239   3.882   5.916   8.225  0.2695  0.4657 -0.0202
  132OSM   H16S14240   3.819   5.982   8.161 -0.9909  0.5613  1.2822
  132OSM   H16T14241   3.984   5.961   8.224 -0.0013  1.0953  0.0803
  132OSM   C17S14242   3.821   5.911   8.366  0.6073  1.1037 -0.0759
  132OSM   H17S14243   3.713   5.891   8.353  0.8757 -1.0335  0.6942
  132OSM   H17T14244   3.830   6.018   8.395  1.8020  0.8992  0.3552
  132OSM   C18S14245   3.875   5.807   8.461 -0.3063  0.3247 -0.1052
  132OSM   H18S14246   3.984   5.819   8.480  0.3083 -0.8058 -2.5015
  132OSM   H18T14247   3.878   5.707   8.412  0.5340  2.0428 -3.9124
  132OSM   H18U14248   3.816   5.807   8.555  0.4753  1.3926  0.4102
  132OSM    C1F14249   3.550   5.551   6.813  0.3527 -0.7431  0.0063
  132OSM     OF14250   3.580   5.435   6.773 -0.7758  0.4967 -0.3587
  132OSM    C2F14251   3.436   5.577   6.911  0.1430  0.2969 -0.1251
  132OSM    H2F14252   3.335   5.554   6.871 -1.4617  2.3027  2.4429
  132OSM    H2G14253   3.431   5.688   6.915 -1.9052  0.2320  0.2199
  132OSM    C3F14254   3.468   5.518   7.046 -0.2392 -0.2811 -0.3487
  132OSM    H3F14255   3.491   5.410   7.043  1.7323  0.0296  1.1701
  132OSM    H3G14256   3.397   5.538   7.129 -0.7674 -4.1954  0.3276
  132OSM    C4F14257   3.599   5.583   7.093 -0.0978 -0.0972  0.0652
  132OSM    H4F14258   3.586   5.676   7.151 -0.7198  0.0734 -0.3376
  132OSM    H4G14259   3.676   5.612   7.018  1.1603 -0.8745  1.0027
  132OSM    C5F14260   3.672   5.495   7.198  0.1921 -0.1955 -0.0430
  132OSM    H5F14261   3.772   5.534   7.226  0.8912 -0.4768 -2.0324
  132OSM    H5G14262   3.704   5.404   7.144  1.4704  0.9577 -1.3252
  132OSM    C6F14263   3.595   5.469   7.330  0.1652  0.5747 -0.9558
  132OSM    H6F14264   3.511   5.400   7.306 -1.4610  0.7186  3.3512
  132OSM    H6G14265   3.550   5.563   7.368 -1.1410 -0.8381  1.2291
  132OSM    C7F14266   3.684   5.408   7.430  0.7378 -0.1518 -0.4445
  132OSM    H7F14267   3.784   5.456   7.423 -0.1215  1.8788  0.1857
  132OSM    H7G14268   3.711   5.304   7.404  1.8187 -0.0660  0.2738
  132OSM    C8F14269   3.629   5.405   7.567  0.2465 -0.0143  0.1064
  132OSM    H8F14270   3.701   5.348   7.629 -0.8401 -0.4049  1.0537
  132OSM    H8G14271   3.526   5.363   7.577 -0.0123  0.7180  0.6550
  132OSM    C9F14272   3.618   5.546   7.633 -0.1210 -0.2962 -0.2945
  132OSM    H9F14273   3.604   5.637   7.573  0.5370  0.8733  1.2619
  132OSM   C10F14274   3.638   5.566   7.763 -0.1542  0.1771 -0.9619
  132OSM   H10F14275   3.635   5.665   7.809 -1.1425  0.0273 -0.6735
  132OSM   C11F14276   3.671   5.451   7.861  0.8255  0.0489  0.1436
  132OSM   H11F14277   3.781   5.442   7.847  0.3774 -1.1458 -3.8487
  132OSM   H11G14278   3.630   5.351   7.837 -0.8181  0.6581  0.2725
  132OSM   C12F14279   3.646   5.478   8.012 -0.6319 -0.2132 -0.3293
  132OSM   H12F14280   3.536   5.472   8.025 -0.5575 -0.7966  0.0681
  132OSM   H12G14281   3.698   5.571   8.042  2.1025 -2.7467  3.8466
  132OSM   C13F14282   3.720   5.380   8.106  0.5212  0.2148 -0.1394
  132OSM   H13F14283   3.826   5.382   8.075  1.0696  0.4999  1.6260
  132OSM   H13G14284   3.690   5.273   8.099  3.6625 -0.6804 -1.1622
  132OSM   C14F14285   3.706   5.417   8.262 -0.0092 -0.0999 -0.0762
  132OSM   H14F14286   3.753   5.514   8.287  1.6024 -0.9583  0.3303
  132OSM   H14G14287   3.757   5.338   8.320  0.7130 -1.2464 -2.1757
  132OSM   C15F14288   3.565   5.421   8.324  0.7075 -0.8416  0.3100
  132OSM   H15F14289   3.507   5.337   8.280 -0.4922  1.0633 -1.9657
  132OSM   H15G14290   3.512   5.508   8.279  1.9127 -0.0895  0.3052
  132OSM   C16F14291   3.554   5.423   8.480 -0.7954 -0.1863 -0.4344
  132OSM   H16F14292   3.594   5.325   8.514  2.4723  1.1291 -0.0325
  132OSM   H16G14293   3.452   5.450   8.515  0.4756  2.8904  1.3125
  132OSM   C17F14294   3.639   5.541   8.542 -0.7829 -0.0348  0.1226
  132OSM   H17F14295   3.612   5.635   8.489 -0.2384 -0.4021 -0.8357
  132OSM   H17G14296   3.747   5.526   8.519 -0.3929  1.3558  0.9074
  132OSM   C18F14297   3.625   5.562   8.695  0.6179  0.6841 -0.4344
  132OSM   H18F14298   3.696   5.644   8.722  0.4752  0.5670  0.3323
  132OSM   H18G14299   3.664   5.478   8.756 -1.2665  0.6515  0.8282
  132OSM   H18H14300   3.522   5.581   8.732  0.5078  1.4323 -1.0901
  133SAPE     N14301   3.854   6.394  10.765 -0.5766 -0.0312  0.2770
  133SAPE   HN114302   3.762   6.435  10.791 -0.4411  1.0149 -0.8146
  133SAPE   HN214303   3.859   6.296  10.799 -1.6946  0.1378  0.9566
  133SAPE   HN314304   3.921   6.454  10.818 -1.4031  0.8845  0.3117
  133SAPE   C1214305   3.872   6.412  10.619  0.5195  0.6828 -0.2367
  133SAPE  H12A14306   3.823   6.508  10.594 -2.2852 -0.4889  0.3580
  133SAPE  H12B14307   3.810   6.336  10.566  0.1361  0.0673  1.0568
  133SAPE   C1114308   4.014   6.383  10.572 -0.3667 -0.4184 -0.0196
  133SAPE  H11A14309   4.088   6.431  10.638 -0.3021  0.2238 -0.5458
  133SAPE  H11B14310   4.026   6.446  10.481  0.3673 -0.1469  0.2637
  133SAPE     P14311   4.106   6.148  10.658 -0.2224  0.5894 -0.3158
  133SAPE   O1314312   4.073   6.208  10.790  0.0257  0.3640 -0.8815
  133SAPE   O1414313   4.060   6.003  10.628  0.6904  0.2673 -0.3599
  133SAPE   O1214314   4.036   6.248  10.547  0.2745  0.0725 -0.2141
  133SAPE   O1114315   4.264   6.147  10.644 -0.1211  0.0326 -0.1179
  133SAPE    C114316   4.328   6.206  10.532  0.3053  0.0151 -0.2110
  133SAPE    HA14317   4.274   6.294  10.490 -0.3573  0.1310  0.8620
  133SAPE    HB14318   4.428   6.245  10.562  0.2614 -0.2140  0.2395
  133SAPE    C214319   4.350   6.103  10.412  0.1631  0.4947 -0.0243
  133SAPE    HS14320   4.415   6.150  10.336  1.0353 -0.2588  0.2465
  133SAPE   O2114321   4.222   6.059  10.355  0.2872 -0.0779  0.1820
  133SAPE   C2114322   4.165   6.160  10.282 -1.0129  0.2870 -0.0430
  133SAPE   O2214323   4.225   6.265  10.253 -0.0505 -0.2052 -0.2343
  133SAPE   C2214324   4.035   6.119  10.233  0.4122 -0.9389  0.8579
  133SAPE   H2R14325   4.043   6.080  10.129  1.8838 -1.7675  1.2436
  133SAPE   H2S14326   3.977   6.049  10.297 -2.8158  0.6415 -0.1478
  133SAPE    C314327   4.435   5.994  10.474 -0.3248 -0.0804  0.1712
  133SAPE    HX14328   4.391   5.939  10.560  1.5819 -0.7692  0.7533
  133SAPE    HY14329   4.529   6.036  10.516  0.8440 -4.2001  2.2369
  133SAPE   O3114330   4.484   5.906  10.372  0.6509 -0.0721  0.2364
  133SAPE   C3114331   4.410   5.798  10.352  0.3517  0.1423  0.0521
  133SAPE   O3214332   4.313   5.757  10.416  0.1773 -0.2499 -0.3809
  133SAPE   C3214333   4.473   5.725  10.229 -0.1680 -0.5374 -0.1134
  133SAPE   H2X14334   4.579   5.706  10.255 -0.3332 -0.4198  0.6477
  133SAPE   H2Y14335   4.472   5.793  10.141 -0.6213 -0.3692  0.0231
  133SAPE   C2314336   3.941   6.243  10.221  0.0088 -0.0468 -0.1174
  133SAPE   H3R14337   3.977   6.324  10.153 -0.8723  0.7449  0.3315
  133SAPE   H3S14338   3.935   6.289  10.322  3.3899 -2.9058  1.6015
  133SAPE   C2414339   3.800   6.198  10.162 -0.3694  0.2546  0.2195
  133SAPE   H4R14340   3.809   6.155  10.061 -0.7820  0.7217 -0.0245
  133SAPE   H4S14341   3.743   6.294  10.162  0.2582  0.7052 -2.3928
  133SAPE   C2514342   3.726   6.103  10.257 -0.0327 -0.1318  0.6694
  133SAPE   H5R14343   3.750   6.104  10.364 -2.8364 -2.0667  1.4011
  133SAPE   C2614344   3.620   6.027  10.217 -0.4048 -0.1199 -0.3523
  133SAPE   H6R14345   3.577   5.962  10.295 -1.7809  1.1714  0.0052
  133SAPE   C2714346   3.576   6.027  10.073  0.3099  0.3063 -0.4706
  133SAPE   H7R14347   3.599   6.122  10.020 -0.3008  0.8953  0.2986
  133SAPE   H7S14348   3.466   6.013  10.075 -0.0090  2.4480 -0.4757
  133SAPE   C2814349   3.644   5.910  10.002 -0.4263 -0.0866  1.3357
  133SAPE   H8R14350   3.705   5.846  10.066 -0.5280 -0.8948  0.6369
  133SAPE   C2914351   3.635   5.878   9.875 -0.0332  0.4780 -0.1924
  133SAPE   H9R14352   3.693   5.792   9.836  2.1651  1.1393  1.4360
  133SAPE  C21014353   3.559   5.952   9.769 -0.2397 -0.2789 -0.3008
  133SAPE  H10R14354   3.456   5.978   9.803 -0.2887  0.2024 -0.7916
  133SAPE  H10S14355   3.530   5.883   9.687  2.4858 -1.3716 -0.4316
  133SAPE  C21114356   3.625   6.078   9.704 -0.2963  0.0680 -0.4721
  133SAPE  H11R14357   3.589   6.164   9.762 -0.0051 -0.4997  0.5729
  133SAPE  C21214358   3.700   6.089   9.593  0.6948  0.2470 -0.6545
  133SAPE  H12R14359   3.754   6.182   9.572  1.3479  0.2310  0.8275
  133SAPE  C21314360   3.750   5.970   9.511 -0.1380 -0.5734  0.6856
  133SAPE  H13R14361   3.717   5.874   9.555  0.1692  0.5242  3.5407
  133SAPE  H13S14362   3.861   5.973   9.518 -0.2132  0.0774  1.9435
  133SAPE  C21414363   3.703   5.992   9.366  0.4718  0.1418  0.3000
  133SAPE  H14R14364   3.618   6.061   9.357 -0.1649 -0.5718  0.8214
  133SAPE  C21514365   3.740   5.914   9.265 -0.0240 -0.0904  0.2668
  133SAPE  H15R14366   3.698   5.929   9.165 -2.2103 -1.3799  0.9311
  133SAPE  C21614367   3.840   5.801   9.282  0.8823 -0.2519 -0.0037
  133SAPE  H16R14368   3.785   5.705   9.284  1.6089 -0.6695  2.0395
  133SAPE  H16S14369   3.880   5.796   9.385  1.0123  0.3618 -0.0211
  133SAPE  C21714370   3.950   5.794   9.183 -0.2592 -0.1403  0.4283
  133SAPE  H17R14371   4.024   5.725   9.229  2.0118  2.8567  1.5626
  133SAPE  H17S14372   4.009   5.888   9.186 -0.4020 -0.0423  0.2463
  133SAPE  C21814373   3.904   5.761   9.040 -0.6557  0.3011 -0.4966
  133SAPE  H18R14374   3.856   5.854   9.004 -1.3465 -0.1992 -0.9058
  133SAPE  H18S14375   3.828   5.680   9.048  1.0950 -1.2320  2.4343
  133SAPE  C21914376   4.027   5.721   8.958  0.6768  0.2710 -0.5593
  133SAPE  H19R14377   4.096   5.664   9.023 -0.8835 -1.3937 -0.2956
  133SAPE  H19S14378   4.083   5.811   8.925  0.8100  0.6045  0.5556
  133SAPE  C22014379   3.987   5.623   8.844  0.3297  0.3917 -0.2369
  133SAPE  H20R14380   3.921   5.538   8.870  0.8418  0.0348 -0.0745
  133SAPE  H20S14381   4.078   5.586   8.791  0.3879 -1.3163  0.9987
  133SAPE  H20T14382   3.932   5.679   8.765 -0.3270 -2.2643 -1.7763
  133SAPE   C3314383   4.399   5.599  10.170 -0.0588  0.8619  0.0867
  133SAPE   H3X14384   4.292   5.627  10.185 -0.2016  0.8629 -0.8723
  133SAPE   H3Y14385   4.427   5.508  10.227 -0.1564  0.0061 -1.2041
  133SAPE   C3414386   4.401   5.564  10.022 -0.6604  0.2648 -0.2173
  133SAPE   H4X14387   4.495   5.520   9.981 -0.0683  1.4516 -0.1467
  133SAPE   H4Y14388   4.375   5.654   9.963  0.3057 -0.8125 -2.4139
  133SAPE   C3514389   4.287   5.462   9.997  0.2292  0.6467 -0.1813
  133SAPE   H5X14390   4.188   5.510  10.018 -0.1146 -0.9427  2.1215
  133SAPE   H5Y14391   4.295   5.384  10.076  1.8574  0.2426 -0.7064
  133SAPE   C3614392   4.310   5.395   9.863 -0.0438  0.5136  0.2421
  133SAPE   H6X14393   4.410   5.347   9.858  0.1752  0.8905  0.8404
  133SAPE   H6Y14394   4.304   5.467   9.779 -1.9008 -0.1714 -0.2594
  133SAPE   C3714395   4.203   5.282   9.834 -0.1413 -0.3033  0.1509
  133SAPE   H7X14396   4.097   5.311   9.852 -1.4279 -2.4042 -3.2224
  133SAPE   H7Y14397   4.222   5.193   9.899 -2.1101 -1.6244 -0.9876
  133SAPE   C3814398   4.211   5.250   9.685 -0.0026  0.5302 -0.3957
  133SAPE   H8X14399   4.319   5.231   9.668  0.4797 -0.9746  3.3535
  133SAPE   H8Y14400   4.193   5.331   9.611  0.1755 -1.4935 -2.7727
  133SAPE   C3914401   4.133   5.129   9.643  0.6663 -0.2134  0.2061
  133SAPE   H9X14402   4.028   5.167   9.646  0.0163 -1.5510 -2.5212
  133SAPE   H9Y14403   4.133   5.049   9.720 -1.4561 -3.2606 -2.6689
  133SAPE  C31014404   4.165   5.080   9.508 -0.0306  1.0122  0.4532
  133SAPE  H10X14405   4.175   5.161   9.433 -3.6112  0.3659 -0.9373
  133SAPE  H10Y14406   4.086   5.014   9.467  1.3937  0.0656 -0.8878
  133SAPE  C31114407   4.304   5.000   9.502  0.1136 -0.2563 -0.3609
  133SAPE  H11X14408   4.274   4.905   9.550 -1.0071  0.4681  0.4191
  133SAPE  H11Y14409   4.380   5.060   9.558 -2.0942  2.3828  0.0148
  133SAPE  C31214410   4.364   4.996   9.363  0.9450 -0.5325 -0.0798
  133SAPE  H12X14411   4.471   4.966   9.365  1.4037  1.0079  0.0169
  133SAPE  H12Y14412   4.364   5.094   9.309  1.9570 -0.8329 -0.6380
  133SAPE  C31314413   4.292   4.888   9.269  0.1452 -0.8085 -0.5797
  133SAPE  H13X14414   4.186   4.921   9.263  0.0790 -0.9289 -0.0344
  133SAPE  H13Y14415   4.303   4.792   9.324  0.5660  0.1411  1.0356
  133SAPE  C31414416   4.361   4.865   9.130 -0.1711  0.0960 -0.4830
  133SAPE  H14X14417   4.467   4.852   9.161  0.1834  1.0984 -1.2264
  133SAPE  H14Y14418   4.353   4.959   9.071 -2.5801  0.7488  0.7335
  133SAPE  C31514419   4.318   4.741   9.053 -0.7833 -0.2549 -0.1728
  133SAPE  H15X14420   4.211   4.759   9.030 -0.3292  1.3480 -1.1884
  133SAPE  H15Y14421   4.320   4.649   9.116  0.4357 -0.5394 -0.5948
  133SAPE  C31614422   4.401   4.717   8.925 -0.1571 -0.3323  0.0766
  133SAPE  H16X14423   4.509   4.733   8.946 -0.5377  0.5052  1.5682
  133SAPE  H16Y14424   4.380   4.798   8.852  0.3256  0.0142  0.3114
  133SAPE  C31714425   4.395   4.576   8.872  0.5364  0.0035  0.3861
  133SAPE  H17X14426   4.294   4.550   8.834  1.3822  0.1220 -2.0995
  133SAPE  H17Y14427   4.410   4.504   8.956  1.4566 -0.6028 -0.2827
  133SAPE  C31814428   4.514   4.548   8.774  0.0744  0.2173 -0.4803
  133SAPE  H18X14429   4.603   4.576   8.834 -0.5595  0.2030  0.4978
  133SAPE  H18Y14430   4.500   4.608   8.682 -1.7598 -0.2529 -0.5554
  133SAPE  H18Z14431   4.510   4.446   8.730  1.4527  1.0384 -2.6646
  134SAPE     N14432   0.736   6.110  10.972  0.4595  0.0282 -0.3785
  134SAPE   HN114433   0.635   6.134  10.970  0.2345 -0.9121 -1.4288
  134SAPE   HN214434   0.739   6.017  11.018 -1.0588  0.7291  1.2471
  134SAPE   HN314435   0.792   6.178  11.027  2.0656 -2.5113  1.2849
  134SAPE   C1214436   0.781   6.106  10.829 -0.0475  0.1022 -0.0572
  134SAPE  H12A14437   0.885   6.143  10.820 -0.2916  1.2887  1.5920
  134SAPE  H12B14438   0.710   6.167  10.768 -1.1475 -0.4954  0.6084
  134SAPE   C1114439   0.768   5.967  10.769  0.1003 -0.1343 -0.1732
  134SAPE  H11A14440   0.802   5.964  10.664 -3.6662 -2.9999 -1.5431
  134SAPE  H11B14441   0.660   5.940  10.767  0.5796 -2.4087  0.8894
  134SAPE     P14442   0.985   5.825  10.834  0.7954  0.1046 -0.4027
  134SAPE   O1314443   1.067   5.945  10.834 -0.0259 -0.1376 -0.3092
  134SAPE   O1414444   1.020   5.715  10.924 -0.4455 -0.5862  0.0508
  134SAPE   O1214445   0.831   5.868  10.855  0.8777 -0.0735  0.0528
  134SAPE   O1114446   0.969   5.777  10.683 -0.2292  0.2944  0.1606
  134SAPE    C114447   1.030   5.662  10.633 -0.3289  0.3337  0.2654
  134SAPE    HA14448   1.009   5.569  10.690 -0.2630 -0.8343 -1.5605
  134SAPE    HB14449   0.998   5.645  10.528  3.2717 -0.4079 -0.8341
  134SAPE    C214450   1.182   5.671  10.636 -0.5753  0.2685  0.0678
  134SAPE    HS14451   1.214   5.677  10.742  1.0731  1.2149 -0.4371
  134SAPE   O2114452   1.221   5.791  10.572 -0.3519  0.0425  0.2442
  134SAPE   C2114453   1.335   5.838  10.619 -0.6231 -0.7016 -0.5907
  134SAPE   O2214454   1.395   5.800  10.719  0.0891 -0.3494  0.1118
  134SAPE   C2214455   1.381   5.954  10.541  0.2408 -0.7513  0.0342
  134SAPE   H2R14456   1.299   5.987  10.473  0.4656 -0.4942 -0.1158
  134SAPE   H2S14457   1.392   6.042  10.608  0.5588  0.9604 -2.1531
  134SAPE    C314458   1.256   5.549  10.572 -0.5565 -0.1981 -0.2507
  134SAPE    HX14459   1.239   5.463  10.641 -0.1795 -0.7854 -0.8839
  134SAPE    HY14460   1.366   5.551  10.587 -0.7871 -1.1858  2.2399
  134SAPE   O3114461   1.207   5.513  10.440 -0.2072 -0.9257  0.5059
  134SAPE   C3114462   1.275   5.567  10.336 -0.4766  0.0499  0.3615
  134SAPE   O3214463   1.371   5.643  10.343  0.6159 -0.3859 -0.4025
  134SAPE   C3214464   1.202   5.525  10.211  1.0077  0.8539  0.1600
  134SAPE   H2X14465   1.092   5.523  10.228  0.3995  1.1205 -3.0366
  134SAPE   H2Y14466   1.219   5.420  10.179 -3.3881 -0.3147  0.9286
  134SAPE   C2314467   1.518   5.929  10.473  0.0795  0.3117  0.0814
  134SAPE   H3R14468   1.504   5.864  10.384 -1.3253 -0.9513  1.1655
  134SAPE   H3S14469   1.577   5.868  10.545 -1.3031 -1.4609 -0.2124
  134SAPE   C2414470   1.585   6.062  10.441 -0.0227  0.2647  0.0962
  134SAPE   H4R14471   1.618   6.104  10.539 -0.2871 -0.7443  0.6307
  134SAPE   H4S14472   1.515   6.139  10.403 -2.6543 -2.1469 -0.2273
  134SAPE   C2514473   1.702   6.050  10.349 -0.1274  0.1117  0.1121
  134SAPE   H5R14474   1.805   6.068  10.384 -0.2662  1.0423  0.0669
  134SAPE   C2614475   1.695   6.025  10.222  0.0878  0.2423 -0.4131
  134SAPE   H6R14476   1.789   6.022  10.164  1.4881 -1.2545  1.7776
  134SAPE   C2714477   1.563   5.998  10.150 -0.7100 -0.7080  1.0811
  134SAPE   H7R14478   1.483   6.059  10.197 -1.0119 -0.0987 -0.1678
  134SAPE   H7S14479   1.540   5.892  10.170  2.2667 -1.8953 -1.0816
  134SAPE   C2814480   1.569   6.038  10.004  0.0087  0.0331 -0.2288
  134SAPE   H8R14481   1.521   6.135   9.985  1.5795  0.6264 -1.4519
  134SAPE   C2914482   1.616   5.960   9.901 -0.2541  0.1107 -0.0472
  134SAPE   H9R14483   1.599   5.998   9.800 -1.1208  0.4007  0.1980
  134SAPE  C21014484   1.675   5.822   9.907  1.0027 -0.0839 -0.0227
  134SAPE  H10R14485   1.676   5.811  10.017 -0.0896  1.4266  0.1789
  134SAPE  H10S14486   1.780   5.815   9.871  2.0622  3.3179  1.9216
  134SAPE  C21114487   1.581   5.717   9.838 -0.4037  0.6039 -0.6109
  134SAPE  H11R14488   1.490   5.694   9.895  0.6766 -0.1219  0.8809
  134SAPE  C21214489   1.598   5.648   9.724 -0.4656 -0.1605  0.0514
  134SAPE  H12R14490   1.513   5.588   9.687 -0.5982  0.6750 -1.0575
  134SAPE  C21314491   1.716   5.660   9.629  0.0332 -0.7074 -0.0086
  134SAPE  H13R14492   1.723   5.572   9.563 -1.3337 -2.5821  2.1925
  134SAPE  H13S14493   1.809   5.662   9.690 -0.1437 -0.6123  0.2603
  134SAPE  C21414494   1.716   5.790   9.547  0.1041  0.0694 -1.1354
  134SAPE  H14R14495   1.617   5.838   9.535 -0.2616 -0.7400 -1.4675
  134SAPE  C21514496   1.832   5.847   9.507  0.2940 -0.3057 -0.0505
  134SAPE  H15R14497   1.828   5.943   9.454  1.6422  0.1661  0.6435
  134SAPE  C21614498   1.972   5.800   9.521  0.1980  0.3241  1.1398
  134SAPE  H16R14499   1.990   5.774   9.627 -1.9722  2.1635  2.0570
  134SAPE  H16S14500   2.041   5.883   9.497  1.4693 -0.6139  1.4378
  134SAPE  C21714501   2.012   5.680   9.428  0.2224 -0.1498 -0.9190
  134SAPE  H17R14502   1.942   5.596   9.449  0.2717  0.1861  0.7579
  134SAPE  H17S14503   2.112   5.651   9.466  0.8760  0.9260 -1.7587
  134SAPE  C21814504   2.020   5.714   9.275 -0.6637 -0.4259  0.2876
  134SAPE  H18R14505   1.921   5.753   9.244 -1.0244 -1.8663 -0.4724
  134SAPE  H18S14506   2.023   5.621   9.215 -0.2405 -0.8054  0.8857
  134SAPE  C21914507   2.135   5.803   9.227 -0.5931  0.1023 -0.2251
  134SAPE  H19R14508   2.236   5.762   9.243 -0.5848  0.0935 -0.2990
  134SAPE  H19S14509   2.130   5.903   9.276  1.7173  1.1529 -1.9450
  134SAPE  C22014510   2.116   5.838   9.079  0.4403  0.3727 -1.0784
  134SAPE  H20R14511   2.201   5.892   9.032  0.5588 -0.6829 -2.1238
  134SAPE  H20S14512   2.028   5.903   9.058  1.8530  2.9268  0.3587
  134SAPE  H20T14513   2.095   5.747   9.020  1.4793  0.1983 -1.2059
  134SAPE   C3314514   1.227   5.622  10.092 -0.6409  0.4350  0.3428
  134SAPE   H3X14515   1.324   5.644  10.044 -1.7505  0.9042 -1.8407
  134SAPE   H3Y14516   1.183   5.718  10.125 -0.1426  0.8580 -0.2206
  134SAPE   C3414517   1.159   5.576   9.961  0.1215 -0.6125  0.3175
  134SAPE   H4X14518   1.049   5.580   9.977  0.3601 -0.3951  2.1248
  134SAPE   H4Y14519   1.187   5.472   9.936  1.1478  0.4159 -3.4002
  134SAPE   C3514520   1.177   5.680   9.849 -0.4343 -0.5795 -0.4960
  134SAPE   H5X14521   1.281   5.657   9.816 -0.5378 -0.5769 -0.8364
  134SAPE   H5Y14522   1.172   5.784   9.887  3.9207 -0.3141 -0.2069
  134SAPE   C3614523   1.082   5.664   9.732 -0.3016 -0.2127 -0.1429
  134SAPE   H6X14524   0.979   5.678   9.771 -0.1003  0.2902  0.2106
  134SAPE   H6Y14525   1.102   5.563   9.689  1.7702 -0.3488  1.0370
  134SAPE   C3714526   1.105   5.761   9.610  0.1518  0.1002 -0.3257
  134SAPE   H7X14527   1.197   5.821   9.627 -0.3219  0.7106  0.1488
  134SAPE   H7Y14528   1.016   5.828   9.613 -0.1730 -0.3421  0.1228
  134SAPE   C3814529   1.114   5.685   9.477 -0.6400 -0.7036  0.5208
  134SAPE   H8X14530   1.014   5.637   9.471 -1.7583  1.6008 -0.2768
  134SAPE   H8Y14531   1.186   5.600   9.474 -0.5285 -0.6066  0.4185
  134SAPE   C3914532   1.147   5.775   9.353  0.2776 -0.3297 -0.0736
  134SAPE   H9X14533   1.076   5.861   9.356  1.9005  1.2944 -3.3463
  134SAPE   H9Y14534   1.133   5.700   9.272 -1.6460 -0.1854  0.0761
  134SAPE  C31014535   1.285   5.829   9.364  0.1112 -0.3827  0.3006
  134SAPE  H10X14536   1.349   5.746   9.402  0.6374  0.7811  2.1144
  134SAPE  H10Y14537   1.286   5.910   9.440  3.2230  2.3820 -2.3914
  134SAPE  C31114538   1.341   5.878   9.229  0.4963  0.2922 -0.6733
  134SAPE  H11X14539   1.269   5.952   9.189 -0.5003 -1.1038 -1.5471
  134SAPE  H11Y14540   1.339   5.792   9.159 -1.5132  1.4700 -2.1675
  134SAPE  C31214541   1.485   5.940   9.235  0.8070 -0.4673 -0.3081
  134SAPE  H12X14542   1.553   5.883   9.301 -0.8357 -1.8602  0.2371
  134SAPE  H12Y14543   1.477   6.037   9.289  1.3126  0.2100 -1.4013
  134SAPE  C31314544   1.547   5.941   9.098 -0.0140 -0.9734  0.5403
  134SAPE  H13X14545   1.464   5.979   9.035  1.3484 -0.2884 -0.9458
  134SAPE  H13Y14546   1.576   5.841   9.058 -0.9939 -0.0622 -2.7562
  134SAPE  C31414547   1.671   6.043   9.080 -0.3256  0.5962  0.1094
  134SAPE  H14X14548   1.744   6.002   9.153  1.4638 -1.0485 -2.4518
  134SAPE  H14Y14549   1.632   6.146   9.095  0.0861  0.6072  1.2534
  134SAPE  C31514550   1.746   6.032   8.950 -0.3267  0.6917  0.2367
  134SAPE  H15X14551   1.759   5.921   8.947 -0.8536  0.6011  0.8305
  134SAPE  H15Y14552   1.849   6.072   8.962 -0.9972  2.0449  1.9228
  134SAPE  C31614553   1.676   6.094   8.839 -0.5067 -0.4896  0.1365
  134SAPE  H16X14554   1.678   6.203   8.861 -0.2617 -0.6441  0.9000
  134SAPE  H16Y14555   1.571   6.060   8.825 -1.3228  2.3142 -1.4078
  134SAPE  C31714556   1.739   6.075   8.700  0.0271 -0.5814 -0.0802
  134SAPE  H17X14557   1.826   6.141   8.680 -0.7570  0.7844  0.8665
  134SAPE  H17Y14558   1.660   6.124   8.639 -1.6923  0.6654  2.9075
  134SAPE  C31814559   1.766   5.932   8.675  0.0400 -0.6092  0.4976
  134SAPE  H18X14560   1.678   5.864   8.669 -2.3251  2.2293  0.4759
  134SAPE  H18Y14561   1.845   5.886   8.738  1.0875  2.1992  1.3655
  134SAPE  H18Z14562   1.807   5.931   8.572 -0.1889 -1.3967  0.4067
  135SAPE     N14563   1.156   4.099  10.914  0.0266 -0.3065 -0.5982
  135SAPE   HN114564   1.075   4.042  10.947 -0.1372  0.4699  0.3972
  135SAPE   HN214565   1.246   4.053  10.937  0.7128 -0.7074 -3.6998
  135SAPE   HN314566   1.156   4.181  10.978  1.2580 -1.8841  1.5810
  135SAPE   C1214567   1.152   4.159  10.776  0.7591 -0.0218 -0.7143
  135SAPE  H12A14568   1.244   4.221  10.773  1.4551 -0.9908 -0.0518
  135SAPE  H12B14569   1.059   4.218  10.757  1.0558  0.3058 -1.1559
  135SAPE   C1114570   1.146   4.059  10.664  0.0528 -0.2588  0.7497
  135SAPE  H11A14571   1.243   4.005  10.669  0.4973  0.3375 -0.9807
  135SAPE  H11B14572   1.150   4.109  10.565 -2.8757 -0.1787  0.5822
  135SAPE     P14573   1.021   3.823  10.637  0.1833  0.3639 -0.1437
  135SAPE   O1314574   1.129   3.743  10.702  0.0737 -0.1828  0.1591
  135SAPE   O1414575   0.883   3.786  10.678  0.1513  0.5553  1.1001
  135SAPE   O1214576   1.033   3.974  10.679  0.0207 -0.7725  0.1853
  135SAPE   O1114577   1.040   3.829  10.483 -0.1495  0.6358  0.1397
  135SAPE    C114578   0.975   3.916  10.388 -0.2026 -0.7009 -0.0488
  135SAPE    HA14579   1.025   4.015  10.389  0.1206 -0.8427  1.6726
  135SAPE    HB14580   0.992   3.874  10.287 -1.8325 -0.3905 -0.4837
  135SAPE    C214581   0.820   3.930  10.414 -1.1130  0.0042  0.0489
  135SAPE    HS14582   0.806   3.964  10.519 -1.4025  1.5672 -0.4584
  135SAPE   O2114583   0.751   3.811  10.382 -0.0803  0.2491  0.0953
  135SAPE   C2114584   0.630   3.797  10.431 -0.2906  0.2940  0.1934
  135SAPE   O2214585   0.579   3.870  10.520  0.4046 -0.7651  0.1974
  135SAPE   C2214586   0.557   3.686  10.362  0.6623  0.4975  0.3362
  135SAPE   H2R14587   0.530   3.607  10.436  1.3027 -0.9522 -0.9087
  135SAPE   H2S14588   0.472   3.739  10.316  2.8801  1.2574 -3.3537
  135SAPE    C314589   0.763   4.047  10.323 -0.5198 -0.6729  0.6097
  135SAPE    HX14590   0.817   4.141  10.346 -1.5211  0.0150  0.1935
  135SAPE    HY14591   0.655   4.046  10.348 -0.6179  1.5055  0.4805
  135SAPE   O3114592   0.770   4.004  10.180 -0.5698  0.2292 -0.3029
  135SAPE   C3114593   0.875   4.056  10.115 -0.2076 -0.1309  0.7588
  135SAPE   O3214594   0.969   4.111  10.163  0.0196  0.0870 -0.3870
  135SAPE   C3214595   0.853   4.023   9.964  0.1504 -0.4102  0.5879
  135SAPE   H2X14596   0.748   4.052   9.941  0.6069 -0.6659 -2.2049
  135SAPE   H2Y14597   0.852   3.913   9.944 -0.7735 -0.1539 -0.9292
  135SAPE   C2314598   0.636   3.609  10.252 -0.0150 -0.8540  1.2273
  135SAPE   H3R14599   0.595   3.507  10.240 -1.0766 -0.1789 -1.5660
  135SAPE   H3S14600   0.741   3.605  10.289  0.8152  3.9285  0.0612
  135SAPE   C2414601   0.617   3.684  10.118 -0.1605 -0.1125  0.4004
  135SAPE   H4R14602   0.702   3.643  10.058  1.2481  1.1049  1.5003
  135SAPE   H4S14603   0.628   3.791  10.142 -0.9894  0.0281  0.1760
  135SAPE   C2514604   0.490   3.649  10.043  0.3577  0.5809  0.5302
  135SAPE   H5R14605   0.406   3.602  10.096 -0.0942  1.8665  0.9915
  135SAPE   C2614606   0.469   3.670   9.910  0.2998 -0.2104 -0.0751
  135SAPE   H6R14607   0.369   3.644   9.871 -0.0968  0.7685  0.2366
  135SAPE   C2714608   0.573   3.732   9.822 -0.6857 -0.2010  0.0219
  135SAPE   H7R14609   0.629   3.649   9.772  0.1495  1.6802 -2.3659
  135SAPE   H7S14610   0.657   3.784   9.873  0.4817 -1.1055 -0.9062
  135SAPE   C2814611   0.527   3.841   9.725  0.0445  0.3784  1.0502
  135SAPE   H8R14612   0.488   3.932   9.771 -0.9526  1.0471 -1.0028
  135SAPE   C2914613   0.496   3.820   9.595 -0.4653  0.5337  0.0605
  135SAPE   H9R14614   0.466   3.907   9.534  2.8865  2.7150  1.2354
  135SAPE  C21014615   0.500   3.689   9.520  0.2899 -0.2225 -0.3997
  135SAPE  H10R14616   0.506   3.600   9.587  0.8180  0.3693  0.3438
  135SAPE  H10S14617   0.599   3.701   9.471  1.9856 -0.5517  2.7142
  135SAPE  C21114618   0.386   3.678   9.429 -1.0041  0.4672  0.0750
  135SAPE  H11R14619   0.291   3.665   9.483 -1.1354  1.2309  0.0370
  135SAPE  C21214620   0.391   3.660   9.293 -0.4830  0.5406 -0.1341
  135SAPE  H12R14621   0.291   3.654   9.247 -0.2820 -0.3066 -0.4731
  135SAPE  C21314622   0.510   3.653   9.198 -0.6397  0.3458  0.1283
  135SAPE  H13R14623   0.592   3.610   9.260 -1.4620  1.1888  1.8684
  135SAPE  H13S14624   0.541   3.756   9.172 -0.6254 -0.0289 -1.4704
  135SAPE  C21414625   0.464   3.579   9.073  0.9438  0.4366  0.1317
  135SAPE  H14R14626   0.429   3.475   9.086 -0.4126  0.4131 -2.8586
  135SAPE  C21514627   0.455   3.621   8.942 -0.4314 -0.3133  0.1071
  135SAPE  H15R14628   0.427   3.546   8.867 -0.0319 -1.5834  1.1786
  135SAPE  C21614629   0.487   3.759   8.887  1.1344 -0.3324 -0.2049
  135SAPE  H16R14630   0.551   3.755   8.797  0.6282  0.0276 -0.5836
  135SAPE  H16S14631   0.550   3.816   8.959 -0.0479  1.5254 -0.5773
  135SAPE  C21714632   0.366   3.847   8.860  0.0262  0.5111  0.2772
  135SAPE  H17R14633   0.305   3.780   8.795  1.8581 -2.8556  1.7716
  135SAPE  H17S14634   0.396   3.938   8.804  0.3720  0.1669 -0.1077
  135SAPE  C21814635   0.300   3.888   8.995  0.2888  0.1736 -0.7552
  135SAPE  H18R14636   0.295   3.807   9.071 -2.0391  0.8033 -0.1523
  135SAPE  H18S14637   0.193   3.913   8.975 -0.3073 -0.2644  1.5270
  135SAPE  C21914638   0.366   4.015   9.053  0.2495  0.1427  0.0615
  135SAPE  H19R14639   0.354   4.109   8.995 -3.3062  1.0037  1.8805
  135SAPE  H19S14640   0.477   4.008   9.054  0.1964 -1.0402  1.5338
  135SAPE  C22014641   0.320   4.045   9.193 -0.2721  0.2598 -0.2132
  135SAPE  H20R14642   0.369   4.132   9.241  1.3858  0.0518 -1.4598
  135SAPE  H20S14643   0.344   3.956   9.257  0.4515 -0.4320 -1.4050
  135SAPE  H20T14644   0.210   4.052   9.203 -0.2223  0.8576 -0.0825
  135SAPE   C3314645   0.959   4.095   9.871  0.1496 -0.3487  0.2697
  135SAPE   H3X14646   1.054   4.038   9.887  1.1629  1.5167  1.1801
  135SAPE   H3Y14647   0.979   4.199   9.905  0.8730 -0.7481  1.0845
  135SAPE   C3414648   0.915   4.100   9.717 -0.1756 -0.7765 -0.4413
  135SAPE   H4X14649   0.972   4.172   9.656 -0.8305 -0.0861 -0.2472
  135SAPE   H4Y14650   0.815   4.147   9.712  0.0930  0.2301  1.9440
  135SAPE   C3514651   0.908   3.964   9.649 -0.1754 -0.1975 -0.2705
  135SAPE   H5X14652   0.827   3.906   9.697  0.5398  0.2202  1.5271
  135SAPE   H5Y14653   1.010   3.918   9.650  0.2976  0.7513 -1.5281
  135SAPE   C3614654   0.865   3.976   9.501 -0.3347 -0.3066  0.0208
  135SAPE   H6X14655   0.946   4.045   9.467 -0.2191  0.1226  1.1042
  135SAPE   H6Y14656   0.768   4.024   9.476  0.3761  0.5451 -1.1809
  135SAPE   C3714657   0.863   3.843   9.429 -0.3573 -0.2618  1.1723
  135SAPE   H7X14658   0.804   3.760   9.474 -0.9385 -0.1954  0.5477
  135SAPE   H7Y14659   0.969   3.810   9.424 -0.3656 -0.1379 -0.0852
  135SAPE   C3814660   0.820   3.865   9.284 -0.0277 -0.5539  0.1114
  135SAPE   H8X14661   0.879   3.951   9.246  0.9435 -0.9501  0.6835
  135SAPE   H8Y14662   0.712   3.885   9.272 -0.6334 -4.1694 -1.6823
  135SAPE   C3914663   0.861   3.746   9.201  0.5394 -0.1179  0.4828
  135SAPE   H9X14664   0.801   3.656   9.228 -0.0614  0.3517  0.7320
  135SAPE   H9Y14665   0.964   3.720   9.235 -0.4659 -1.1297  3.0246
  135SAPE  C31014666   0.860   3.770   9.048  0.5607  0.3204 -0.8437
  135SAPE  H10X14667   0.918   3.863   9.027  0.2181  1.1320  1.5159
  135SAPE  H10Y14668   0.760   3.788   9.001  0.5737 -3.1185 -2.4576
  135SAPE  C31114669   0.912   3.653   8.969  0.1458  0.1372  0.5309
  135SAPE  H11X14670   0.835   3.573   8.973  0.9466 -1.0900 -3.6542
  135SAPE  H11Y14671   0.992   3.612   9.035  2.0931 -0.4773 -2.0670
  135SAPE  C31214672   0.956   3.681   8.828  0.4724 -0.8768 -0.8384
  135SAPE  H12X14673   1.017   3.775   8.829  0.0198 -0.5840  0.2778
  135SAPE  H12Y14674   0.854   3.703   8.790  1.0740 -0.5563 -2.3305
  135SAPE  C31314675   1.028   3.564   8.758  0.1149 -0.1236 -0.0178
  135SAPE  H13X14676   0.956   3.492   8.712 -0.6239  0.4138  0.2800
  135SAPE  H13Y14677   1.101   3.517   8.827  1.4011  0.0903 -1.1833
  135SAPE  C31414678   1.113   3.611   8.637 -0.1239 -0.0093 -0.7880
  135SAPE  H14X14679   1.171   3.526   8.595  0.8312 -0.2263  0.8942
  135SAPE  H14Y14680   1.189   3.681   8.678 -0.0657 -0.4615 -0.1097
  135SAPE  C31514681   1.041   3.684   8.525 -0.4756 -0.1698 -0.5082
  135SAPE  H15X14682   1.008   3.780   8.571 -0.0489  0.2032 -0.9726
  135SAPE  H15Y14683   0.945   3.632   8.505  0.5204 -1.7415 -1.4051
  135SAPE  C31614684   1.116   3.729   8.403  0.2135 -0.1492 -0.3249
  135SAPE  H16X14685   1.127   3.644   8.331 -0.1355  0.7170 -1.4350
  135SAPE  H16Y14686   1.219   3.759   8.432  0.2429 -0.4058 -0.1575
  135SAPE  C31714687   1.048   3.848   8.326  0.6033 -0.1927  0.3100
  135SAPE  H17X14688   1.037   3.934   8.395 -2.2389  1.6040 -2.1205
  135SAPE  H17Y14689   0.943   3.829   8.294  0.0258 -0.4113  2.2031
  135SAPE  C31814690   1.131   3.898   8.209  0.3414 -0.1555 -0.2160
  135SAPE  H18X14691   1.171   3.813   8.150  1.4663 -1.4408  2.2372
  135SAPE  H18Y14692   1.222   3.950   8.246  0.5246 -2.5467  3.2020
  135SAPE  H18Z14693   1.066   3.968   8.153 -1.7101 -0.8633  1.1345
  136SAPE     N14694   1.576   3.213  10.864  0.2146  0.3120 -0.4959
  136SAPE   HN114695   1.531   3.167  10.783  0.2987 -0.3310 -0.1807
  136SAPE   HN214696   1.536   3.309  10.861  1.5353  0.9992  1.5924
  136SAPE   HN314697   1.680   3.210  10.860  0.2215 -2.5534 -0.1045
  136SAPE   C1214698   1.529   3.155  10.995 -0.3371  0.2779 -0.1221
  136SAPE  H12A14699   1.424   3.182  11.017  0.1884  0.3129  2.7824
  136SAPE  H12B14700   1.604   3.195  11.068  1.9701 -2.2532 -0.9288
  136SAPE   C1114701   1.528   2.997  10.983 -0.2049 -0.4181  0.1595
  136SAPE  H11A14702   1.472   2.959  10.895 -1.6082  0.8838  0.4339
  136SAPE  H11B14703   1.462   2.965  11.067 -2.4037  0.6254 -1.0656
  136SAPE     P14704   1.678   2.788  10.991  0.4722  0.2733 -0.1024
  136SAPE   O1314705   1.820   2.754  10.994  0.2574 -0.0103 -0.1469
  136SAPE   O1414706   1.595   2.732  11.097  0.1132 -0.2849  0.2637
  136SAPE   O1214707   1.665   2.944  10.986  0.5723  0.7601 -0.2583
  136SAPE   O1114708   1.631   2.732  10.846  0.5345 -0.1715  0.1025
  136SAPE    C114709   1.660   2.818  10.737 -0.1595 -0.1945  0.0742
  136SAPE    HA14710   1.571   2.881  10.712 -0.5043 -0.2318  1.1452
  136SAPE    HB14711   1.740   2.891  10.761 -1.0954  0.7772  0.3325
  136SAPE    C214712   1.717   2.754  10.614 -0.6886  0.0346 -0.0797
  136SAPE    HS14713   1.820   2.789  10.591 -0.4486 -0.4575  0.2252
  136SAPE   O2114714   1.624   2.772  10.502 -0.0317  0.0200  0.9146
  136SAPE   C2114715   1.626   2.899  10.459  0.2617 -0.1428  1.4097
  136SAPE   O2214716   1.703   2.987  10.484  0.0228  0.0145  0.0930
  136SAPE   C2214717   1.528   2.913  10.345 -0.2018  0.4424 -0.0718
  136SAPE   H2R14718   1.582   2.900  10.249 -1.1279  3.4091 -1.1059
  136SAPE   H2S14719   1.446   2.838  10.351 -0.4609  0.4378 -2.6446
  136SAPE    C314720   1.736   2.605  10.635  0.4152  0.2731 -0.7621
  136SAPE    HX14721   1.640   2.550  10.626  0.5343 -0.2904  0.9902
  136SAPE    HY14722   1.777   2.601  10.739  2.2733 -1.4518 -1.4949
  136SAPE   O3114723   1.845   2.557  10.547  0.0736  0.1047 -0.3750
  136SAPE   C3114724   1.834   2.429  10.512  0.4496 -0.3590 -0.0867
  136SAPE   O3214725   1.745   2.353  10.547 -0.1084  0.4260 -0.0070
  136SAPE   C3214726   1.948   2.411  10.412 -0.7147  0.2171 -0.2118
  136SAPE   H2X14727   2.042   2.442  10.463 -0.6814 -2.5999  1.6316
  136SAPE   H2Y14728   1.924   2.461  10.316  3.6709  0.0134 -1.6250
  136SAPE   C2314729   1.462   3.046  10.315  0.6307 -0.6149 -0.0644
  136SAPE   H3R14730   1.538   3.127  10.326  1.3262 -1.2349 -0.1849
  136SAPE   H3S14731   1.384   3.067  10.390  1.8485 -0.0089  1.0736
  136SAPE   C2414732   1.401   3.064  10.176 -0.2494  0.1877 -0.2042
  136SAPE   H4R14733   1.485   3.040  10.107 -1.1583  0.7723 -1.5740
  136SAPE   H4S14734   1.374   3.169  10.151  0.6738  0.5189  0.1691
  136SAPE   C2514735   1.287   2.968  10.144 -0.1300 -0.8506 -1.3592
  136SAPE   H5R14736   1.243   2.926  10.235  1.7552 -1.9461 -0.8843
  136SAPE   C2614737   1.247   2.939  10.021 -0.0809  0.0485  0.9137
  136SAPE   H6R14738   1.180   2.854  10.003 -2.8873  2.5564 -1.6225
  136SAPE   C2714739   1.314   2.992   9.895 -0.1160  0.2647 -0.1436
  136SAPE   H7R14740   1.371   2.903   9.860 -0.0402 -0.0489  0.7575
  136SAPE   H7S14741   1.380   3.080   9.909 -0.7591  0.5318  1.4388
  136SAPE   C2814742   1.205   3.018   9.799  0.0191  0.6186 -0.5957
  136SAPE   H8R14743   1.109   3.050   9.842  0.2234  0.6154 -0.1225
  136SAPE   C2914744   1.218   3.003   9.667 -0.7252 -0.2627 -0.4136
  136SAPE   H9R14745   1.125   3.036   9.619 -1.0734  0.7786  0.9124
  136SAPE  C21014746   1.335   2.955   9.574  0.1023  0.0367  0.6257
  136SAPE  H10R14747   1.410   2.892   9.627  1.4966 -0.2868 -1.5823
  136SAPE  H10S14748   1.397   3.044   9.551  1.9936 -1.4531 -0.4199
  136SAPE  C21114749   1.304   2.904   9.434  0.2486  0.2727  0.7637
  136SAPE  H11R14750   1.373   2.934   9.354  1.3951 -1.7125  0.9541
  136SAPE  C21214751   1.196   2.838   9.404  1.2269  0.6947  0.5579
  136SAPE  H12R14752   1.196   2.811   9.297  1.6234  3.6640 -0.2664
  136SAPE  C21314753   1.072   2.784   9.476  0.1346 -0.5160  0.0755
  136SAPE  H13R14754   1.076   2.793   9.586 -1.1477 -0.3492  0.1179
  136SAPE  H13S14755   1.069   2.673   9.466  1.4390 -0.7923  2.1223
  136SAPE  C21414756   0.942   2.842   9.428  0.5614 -0.5518 -0.5248
  136SAPE  H14R14757   0.900   2.912   9.502  0.9637  2.2728 -2.7524
  136SAPE  C21514758   0.864   2.818   9.319  0.1265 -0.3500  0.0769
  136SAPE  H15R14759   0.771   2.876   9.316  1.0353  1.2410  1.3561
  136SAPE  C21614760   0.907   2.730   9.204  0.8516  0.5686 -1.3845
  136SAPE  H16R14761   0.827   2.656   9.179 -0.8947  1.7178  0.5192
  136SAPE  H16S14762   0.999   2.672   9.228 -0.0481  0.4270  2.2589
  136SAPE  C21714763   0.941   2.805   9.071  1.0404 -0.4407 -0.0047
  136SAPE  H17R14764   1.003   2.737   9.009  0.5951 -0.5819 -0.2995
  136SAPE  H17S14765   1.010   2.888   9.094  0.1003  0.2068  0.5306
  136SAPE  C21814766   0.823   2.866   8.993 -0.6287  0.8821  0.3130
  136SAPE  H18R14767   0.790   2.962   9.038 -4.1511  1.1058 -2.3920
  136SAPE  H18S14768   0.737   2.796   8.997  0.6795 -0.7911  1.1867
  136SAPE  C21914769   0.873   2.895   8.847 -0.7200  0.1738  0.1457
  136SAPE  H19R14770   0.878   2.795   8.798  2.1778  1.5232 -2.6434
  136SAPE  H19S14771   0.976   2.933   8.859 -0.6394  0.3327 -0.9253
  136SAPE  C22014772   0.788   2.994   8.772 -0.3288  0.2685  1.0424
  136SAPE  H20R14773   0.687   2.950   8.771  1.2055 -3.6832 -1.0299
  136SAPE  H20S14774   0.824   3.009   8.668  0.0866  1.0384  1.2875
  136SAPE  H20T14775   0.789   3.093   8.822 -0.4321  0.7211  0.1678
  136SAPE   C3314776   1.968   2.257  10.393  0.5381  0.2058  0.0865
  136SAPE   H3X14777   1.883   2.222  10.331 -0.8117 -0.5557  2.2553
  136SAPE   H3Y14778   1.966   2.192  10.483 -2.1641  0.9855  0.6857
  136SAPE   C3414779   2.096   2.220  10.316  0.7921 -0.1946 -0.0468
  136SAPE   H4X14780   2.090   2.116  10.277 -1.7142 -0.1399  0.0115
  136SAPE   H4Y14781   2.185   2.233  10.382  0.4925 -2.2928  0.8874
  136SAPE   C3514782   2.118   2.310  10.189  0.5248 -0.4669 -0.4478
  136SAPE   H5X14783   2.216   2.273  10.153 -0.4030 -0.9280 -2.6662
  136SAPE   H5Y14784   2.127   2.417  10.220  1.2705 -0.6582  0.0231
  136SAPE   C3614785   2.018   2.291  10.076 -0.1009  0.1566  0.7078
  136SAPE   H6X14786   1.915   2.332  10.088 -0.7174 -0.7084 -1.3175
  136SAPE   H6Y14787   2.015   2.186  10.041 -0.1386  0.7238 -1.0963
  136SAPE   C3714788   2.060   2.371   9.951  0.9515 -0.1723 -1.0774
  136SAPE   H7X14789   2.160   2.334   9.921 -0.0633 -2.1270 -2.2355
  136SAPE   H7Y14790   2.050   2.481   9.965  2.7983  0.1376 -1.8178
  136SAPE   C3814791   1.986   2.350   9.818  0.3568 -0.2531 -0.1443
  136SAPE   H8X14792   2.013   2.427   9.743 -0.3473 -0.6374 -0.7999
  136SAPE   H8Y14793   1.876   2.365   9.826  0.2421  0.4231 -2.4005
  136SAPE   C3914794   1.989   2.205   9.756  0.6684 -0.0531  0.0545
  136SAPE   H9X14795   1.912   2.141   9.804  0.8673 -0.7876 -0.5805
  136SAPE   H9Y14796   2.093   2.170   9.776  0.6772  0.5021  1.0405
  136SAPE  C31014797   1.966   2.209   9.599 -0.9727  0.1991 -0.5620
  136SAPE  H10X14798   1.960   2.107   9.556  0.1409  0.0991 -0.4965
  136SAPE  H10Y14799   2.056   2.251   9.549 -0.8446 -0.5134 -0.9420
  136SAPE  C31114800   1.847   2.293   9.542  0.5584  0.1782  0.3895
  136SAPE  H11X14801   1.840   2.390   9.596 -2.3974 -0.4075  1.2349
  136SAPE  H11Y14802   1.747   2.249   9.562  0.3787  0.5316  0.2750
  136SAPE  C31214803   1.868   2.321   9.391  0.3064  0.2654  0.4405
  136SAPE  H12X14804   1.960   2.380   9.372  0.6044 -0.5767 -0.8118
  136SAPE  H12Y14805   1.777   2.378   9.361 -1.9187 -3.6490 -1.0483
  136SAPE  C31314806   1.864   2.196   9.303  0.5285  0.3331  0.0748
  136SAPE  H13X14807   1.774   2.136   9.329 -0.3851  1.3493 -0.6502
  136SAPE  H13Y14808   1.954   2.130   9.308 -0.4260 -1.1584 -1.2510
  136SAPE  C31414809   1.849   2.243   9.151  0.5023 -0.6185 -0.1051
  136SAPE  H14X14810   1.945   2.292   9.129 -1.0659  2.5333 -0.4407
  136SAPE  H14Y14811   1.770   2.321   9.144  0.1598 -0.3456  4.0722
  136SAPE  C31514812   1.819   2.132   9.052 -0.1511  0.1399  0.2220
  136SAPE  H15X14813   1.711   2.107   9.045 -0.7568  2.5751 -0.4554
  136SAPE  H15Y14814   1.872   2.044   9.093 -1.3643 -0.0116  1.5654
  136SAPE  C31614815   1.881   2.152   8.912 -0.3826 -0.1370 -0.2465
  136SAPE  H16X14816   1.984   2.189   8.931 -1.4818  2.4845  1.1129
  136SAPE  H16Y14817   1.828   2.241   8.871  2.3216  1.2865 -0.8505
  136SAPE  C31714818   1.870   2.027   8.832 -0.3300 -0.1429 -0.4476
  136SAPE  H17X14819   1.774   2.001   8.781  0.2496  0.6124 -1.9951
  136SAPE  H17Y14820   1.894   1.942   8.899  0.7016  0.4720 -0.0310
  136SAPE  C31814821   1.967   2.021   8.713 -0.0422 -0.5143 -0.2123
  136SAPE  H18X14822   2.068   2.049   8.750 -0.2502 -1.1348  0.8406
  136SAPE  H18Y14823   1.921   2.083   8.633 -1.6105  0.1386  1.1336
  136SAPE  H18Z14824   1.979   1.919   8.670  2.9129  0.0860 -1.0241
  137SAPE     N14825   1.064   1.690  11.027 -0.0352  0.9987 -0.2196
  137SAPE   HN114826   1.075   1.660  10.929 -3.2050 -0.6362 -0.2263
  137SAPE   HN214827   1.114   1.635  11.100  1.9520  2.9814  0.0140
  137SAPE   HN314828   0.961   1.683  11.039 -0.4125 -0.3018 -3.4097
  137SAPE   C1214829   1.109   1.836  11.030 -0.0789 -0.0594  0.1986
  137SAPE  H12A14830   1.218   1.855  11.019 -0.6707  3.1565 -1.2656
  137SAPE  H12B14831   1.077   1.882  11.126  3.7474 -2.9405  3.2308
  137SAPE   C1114832   1.054   1.916  10.913 -0.1201  0.2989  1.2328
  137SAPE  H11A14833   1.101   1.875  10.821 -0.8941 -0.5435  1.2026
  137SAPE  H11B14834   1.073   2.025  10.926 -2.3629  0.5220  3.2525
  137SAPE     P14835   0.812   2.004  10.910  0.0120  0.3948 -0.1937
  137SAPE   O1314836   0.676   1.954  10.897  0.5338  0.4323  0.1195
  137SAPE   O1414837   0.839   2.072  11.041 -0.2653 -0.4624 -0.6346
  137SAPE   O1214838   0.913   1.883  10.889  0.3971  0.6288 -0.5541
  137SAPE   O1114839   0.846   2.106  10.789  0.3131 -0.7070 -0.4641
  137SAPE    C114840   0.793   2.067  10.659 -0.0289 -0.3033 -0.4728
  137SAPE    HA14841   0.792   1.958  10.641 -0.5556 -1.3237  4.5124
  137SAPE    HB14842   0.690   2.105  10.644  0.3912  2.0277  1.7776
  137SAPE    C214843   0.880   2.136  10.548 -0.3899 -0.2124 -0.0993
  137SAPE    HS14844   0.833   2.114  10.449  1.2995 -0.2190 -0.9325
  137SAPE   O2114845   1.019   2.085  10.542  0.7870 -0.0975 -0.2432
  137SAPE   C2114846   1.027   1.959  10.510 -0.4591  0.3939  0.3729
  137SAPE   O2214847   0.940   1.888  10.466  0.3772 -0.4909 -0.0147
  137SAPE   C2214848   1.170   1.913  10.533 -0.4708  0.5626  0.0157
  137SAPE   H2R14849   1.225   2.009  10.543 -1.1656  1.0849 -1.0779
  137SAPE   H2S14850   1.164   1.851  10.625 -1.1070  2.0233  0.9851
  137SAPE    C314851   0.891   2.289  10.563 -0.6354 -0.3601  0.3552
  137SAPE    HX14852   0.948   2.311  10.656 -1.7818  0.1384  0.9635
  137SAPE    HY14853   0.790   2.329  10.587 -0.6603  0.7354 -1.3901
  137SAPE   O3114854   0.955   2.352  10.440  0.3631 -0.2317  0.2551
  137SAPE   C3114855   1.074   2.414  10.448 -0.2419  0.6842 -0.0066
  137SAPE   O3214856   1.141   2.417  10.545 -0.6030  0.5109 -0.4269
  137SAPE   C3214857   1.107   2.476  10.316  0.2827  0.6502 -0.0453
  137SAPE   H2X14858   1.021   2.544  10.302 -0.8285 -0.8989 -1.0468
  137SAPE   H2Y14859   1.102   2.398  10.238  0.7663  2.2797 -1.7890
  137SAPE   C2314860   1.235   1.816  10.428  0.2231  0.5608 -0.1840
  137SAPE   H3R14861   1.175   1.724  10.412  1.2320 -0.3876  1.2622
  137SAPE   H3S14862   1.330   1.774  10.467 -1.0541 -2.8139 -0.3922
  137SAPE   C2414863   1.253   1.885  10.289  0.8029  0.2244  0.1015
  137SAPE   H4R14864   1.316   1.813  10.233  0.0645  0.4202 -0.9918
  137SAPE   H4S14865   1.292   1.988  10.304 -0.5088  0.9151 -1.0544
  137SAPE   C2514866   1.122   1.877  10.213  1.2224 -0.0186  0.1022
  137SAPE   H5R14867   1.062   1.787  10.228  0.7869  0.3251  0.4300
  137SAPE   C2614868   1.048   1.977  10.154 -0.2798  0.7884  0.3102
  137SAPE   H6R14869   0.952   1.944  10.111  0.0901 -0.1797  0.2001
  137SAPE   C2714870   1.080   2.124  10.142 -0.0457  0.3005 -0.1331
  137SAPE   H7R14871   1.092   2.166  10.244 -0.9234  1.0825 -0.3389
  137SAPE   H7S14872   0.991   2.171  10.096 -0.4102  0.4725  0.7416
  137SAPE   C2814873   1.202   2.163  10.058 -0.4640 -0.3715  0.2658
  137SAPE   H8R14874   1.292   2.187  10.116 -0.2899  2.3530 -0.9779
  137SAPE   C2914875   1.210   2.176   9.930 -0.3745 -0.8090 -0.2896
  137SAPE   H9R14876   1.312   2.204   9.899 -0.0872 -0.0975  1.2052
  137SAPE  C21014877   1.107   2.145   9.825 -0.0911 -0.5804  1.1842
  137SAPE  H10R14878   1.078   2.242   9.778 -0.4486 -1.0062  0.5251
  137SAPE  H10S14879   1.018   2.101   9.874  0.5154 -1.4222  1.5569
  137SAPE  C21114880   1.159   2.061   9.709 -0.2188  0.1731 -0.6258
  137SAPE  H11R14881   1.223   2.113   9.636  0.7742 -0.5392 -0.2935
  137SAPE  C21214882   1.134   1.935   9.681 -0.3438  0.5671  0.2659
  137SAPE  H12R14883   1.174   1.905   9.584  1.6693 -0.5028  1.3581
  137SAPE  C21314884   1.058   1.822   9.752 -0.2394 -0.6651  0.4094
  137SAPE  H13R14885   1.012   1.751   9.681 -0.1464  0.2372 -0.5807
  137SAPE  H13S14886   0.976   1.874   9.806  0.5632  0.0520  0.9641
  137SAPE  C21414887   1.158   1.764   9.847  0.2702 -0.0391  0.2266
  137SAPE  H14R14888   1.211   1.838   9.908  2.7268 -0.0404 -1.6982
  137SAPE  C21514889   1.186   1.628   9.862 -0.8821 -0.9183 -0.7372
  137SAPE  H15R14890   1.259   1.597   9.939  0.6181 -0.6893 -2.0215
  137SAPE  C21614891   1.118   1.517   9.788 -0.2010 -0.4842 -0.4521
  137SAPE  H16R14892   1.142   1.525   9.680 -1.3621 -0.4233 -0.7222
  137SAPE  H16S14893   1.007   1.528   9.788 -0.1631 -0.0393 -1.0700
  137SAPE  C21714894   1.164   1.374   9.831 -0.4133 -0.3352  0.0912
  137SAPE  H17R14895   1.114   1.348   9.927 -0.9006 -0.7710 -0.2779
  137SAPE  H17S14896   1.273   1.377   9.853 -0.2151 -0.9416 -0.7965
  137SAPE  C21814897   1.129   1.270   9.728  0.4416  0.1425  0.4437
  137SAPE  H18R14898   1.163   1.308   9.630 -0.6455 -1.7618 -0.7372
  137SAPE  H18S14899   1.018   1.263   9.730  0.4299  0.2689  0.2631
  137SAPE  C21914900   1.207   1.137   9.745 -0.4174 -0.3263 -0.0618
  137SAPE  H19R14901   1.190   1.096   9.847  0.0289 -0.6639 -0.1202
  137SAPE  H19S14902   1.314   1.167   9.749 -0.6625  1.2541 -2.8739
  137SAPE  C22014903   1.168   1.033   9.637  0.1516  0.1691 -0.2189
  137SAPE  H20R14904   1.057   1.023   9.633 -0.2396  3.4154 -0.6637
  137SAPE  H20S14905   1.215   0.933   9.646 -1.4406 -0.5138  0.9327
  137SAPE  H20T14906   1.199   1.079   9.541  1.3754  1.3547  0.6994
  137SAPE   C3314907   1.237   2.555  10.320 -0.3321 -0.3774  0.8724
  137SAPE   H3X14908   1.252   2.633  10.398  1.0424  0.2554  0.0175
  137SAPE   H3Y14909   1.236   2.627  10.236 -0.8341 -1.8685 -0.4398
  137SAPE   C3414910   1.361   2.465  10.289  1.0488  0.0564  0.1429
  137SAPE   H4X14911   1.320   2.399  10.209 -0.7709 -0.2754  1.2810
  137SAPE   H4Y14912   1.390   2.409  10.380  0.6639  0.6789  0.6586
  137SAPE   C3514913   1.481   2.551  10.246 -0.4454  0.5307  0.3534
  137SAPE   H5X14914   1.521   2.611  10.330  0.1887  1.7657 -0.7934
  137SAPE   H5Y14915   1.444   2.621  10.168  1.1684 -0.0001 -0.9505
  137SAPE   C3614916   1.599   2.475  10.185  0.1753 -0.4153 -0.2440
  137SAPE   H6X14917   1.554   2.408  10.108 -0.5596 -0.1100 -0.0946
  137SAPE   H6Y14918   1.642   2.415  10.268  0.7964 -0.2408 -0.4383
  137SAPE   C3714919   1.703   2.562  10.114  0.1236 -0.2932 -1.0205
  137SAPE   H7X14920   1.769   2.483  10.072  1.7636 -0.9843  2.4591
  137SAPE   H7Y14921   1.747   2.618  10.199 -2.0684 -1.8748  1.3088
  137SAPE   C3814922   1.659   2.661  10.013 -0.0573  0.2717  0.1862
  137SAPE   H8X14923   1.607   2.749  10.057 -0.2704 -0.5075  1.5314
  137SAPE   H8Y14924   1.595   2.613   9.935 -0.1338 -0.7144  0.8451
  137SAPE   C3914925   1.773   2.732   9.940 -0.1854 -0.3221  0.2959
  137SAPE   H9X14926   1.848   2.654   9.913  1.9651  1.3840  0.9965
  137SAPE   H9Y14927   1.815   2.810  10.008 -1.8823  0.2177  0.7595
  137SAPE  C31014928   1.743   2.813   9.811 -0.4357  1.1854 -0.3801
  137SAPE  H10X14929   1.839   2.862   9.784  0.0559 -0.6811 -2.3621
  137SAPE  H10Y14930   1.664   2.889   9.827  0.3284  1.7253  1.0121
  137SAPE  C31114931   1.714   2.720   9.694 -0.1845 -0.2788 -0.4135
  137SAPE  H11X14932   1.619   2.664   9.708 -0.4399  0.0384 -0.8619
  137SAPE  H11Y14933   1.801   2.651   9.694 -0.1368 -0.3534  2.8354
  137SAPE  C31214934   1.701   2.788   9.561 -0.1605 -0.4404  0.6595
  137SAPE  H12X14935   1.785   2.858   9.547 -1.0743  1.1304  2.5320
  137SAPE  H12Y14936   1.604   2.842   9.551  0.1685  0.0898  0.2985
  137SAPE  C31314937   1.704   2.691   9.454 -0.3811  0.3957 -0.1137
  137SAPE  H13X14938   1.623   2.617   9.439 -0.0208  0.3855 -2.1972
  137SAPE  H13Y14939   1.802   2.638   9.460 -0.4624  0.1954 -0.5132
  137SAPE  C31414940   1.717   2.762   9.313 -0.0267 -0.3033 -0.8789
  137SAPE  H14X14941   1.810   2.822   9.321 -0.8451  0.7627  1.2813
  137SAPE  H14Y14942   1.631   2.832   9.307  1.0434  0.9103 -2.9490
  137SAPE  C31514943   1.715   2.660   9.206 -0.2003  0.6828 -0.2254
  137SAPE  H15X14944   1.620   2.603   9.211  0.6082 -1.1587 -3.0209
  137SAPE  H15Y14945   1.807   2.599   9.214 -0.1584  0.9683  2.1068
  137SAPE  C31614946   1.715   2.724   9.068 -0.7053  0.5226  0.1155
  137SAPE  H16X14947   1.819   2.760   9.048  0.0381 -1.4675  0.2115
  137SAPE  H16Y14948   1.642   2.808   9.071 -2.6621 -1.0582 -0.7756
  137SAPE  C31714949   1.673   2.630   8.960  0.0251  0.7493  0.3239
  137SAPE  H17X14950   1.582   2.577   8.994  1.1754 -0.5664  1.4520
  137SAPE  H17Y14951   1.747   2.551   8.937 -1.7569 -1.2077  0.9377
  137SAPE  C31814952   1.631   2.711   8.837  0.2866  0.4111 -1.0668
  137SAPE  H18X14953   1.720   2.744   8.780  0.5483 -1.9994 -2.1954
  137SAPE  H18Y14954   1.578   2.803   8.868 -0.8466 -0.3759 -0.5612
  137SAPE  H18Z14955   1.569   2.648   8.768 -0.8686  0.4942 -0.1400
  138SAPE     N14956   4.735   1.785  11.028 -0.5289  0.5703  0.2034
  138SAPE   HN114957   4.721   1.887  11.047 -0.7335  0.7746 -0.9718
  138SAPE   HN214958   4.770   1.741  11.115 -2.0646 -2.3864 -0.5646
  138SAPE   HN314959   4.809   1.773  10.956  2.1743  0.7902  2.7527
  138SAPE   C1214960   4.606   1.716  10.988  0.6586  0.8508 -0.9842
  138SAPE  H12A14961   4.529   1.731  11.067 -0.8194 -0.7783 -2.0334
  138SAPE  H12B14962   4.631   1.609  10.973 -0.8550  0.2753  0.2525
  138SAPE   C1114963   4.551   1.780  10.861 -0.4356  0.0861 -0.7018
  138SAPE  H11A14964   4.474   1.712  10.819 -0.0812 -0.7231 -0.0710
  138SAPE  H11B14965   4.636   1.790  10.790  0.4738  2.4051  0.6068
  138SAPE     P14966   4.352   1.939  10.892 -0.3826 -0.2313 -0.2524
  138SAPE   O1314967   4.293   1.865  11.003 -0.2614  0.8482  0.8038
  138SAPE   O1414968   4.340   2.084  10.904  0.5720 -1.0020  0.0745
  138SAPE   O1214969   4.502   1.912  10.887 -0.8501 -0.2394  0.0713
  138SAPE   O1114970   4.306   1.880  10.753  0.1850  0.5830  0.3031
  138SAPE    C114971   4.367   1.918  10.629  0.5272  0.5383  0.3547
  138SAPE    HA14972   4.386   2.027  10.628 -1.0413  0.8547 -1.7371
  138SAPE    HB14973   4.454   1.854  10.604  2.7432  3.4927 -0.0046
  138SAPE    C214974   4.277   1.877  10.505 -0.3853 -0.1238 -0.3676
  138SAPE    HS14975   4.302   1.941  10.417  1.3798 -0.6626 -0.2901
  138SAPE   O2114976   4.140   1.898  10.542 -0.2583 -0.2431 -0.2849
  138SAPE   C2114977   4.100   2.028  10.538  1.0220 -0.4328  0.2938
  138SAPE   O2214978   4.169   2.124  10.522 -0.3795 -0.4575  0.0953
  138SAPE   C2214979   3.956   2.033  10.561  0.2119 -0.1775  1.1441
  138SAPE   H2R14980   3.923   1.932  10.593 -0.8948  0.4789  2.1736
  138SAPE   H2S14981   3.938   2.106  10.643 -0.3614 -0.1112  0.9620
  138SAPE    C314982   4.284   1.728  10.466  0.3555 -0.1817 -0.4903
  138SAPE    HX14983   4.239   1.661  10.542  1.3544  0.7764  0.9935
  138SAPE    HY14984   4.389   1.693  10.462  0.8167  1.1909 -1.1863
  138SAPE   O3114985   4.229   1.712  10.335  0.2294  1.0200 -0.1824
  138SAPE   C3114986   4.116   1.639  10.322  0.5769 -0.1332  0.3648
  138SAPE   O3214987   4.066   1.571  10.410  0.4441  0.3066  0.1072
  138SAPE   C3214988   4.055   1.670  10.178 -0.2939 -0.5474  0.3043
  138SAPE   H2X14989   4.028   1.778  10.183 -1.6318 -0.6284 -2.8838
  138SAPE   H2Y14990   3.954   1.622  10.181 -0.5386 -0.0887  3.6613
  138SAPE   C2314991   3.881   2.087  10.442  0.4110 -0.0305  0.1201
  138SAPE   H3R14992   3.929   2.184  10.414  0.2663 -0.5264 -1.9489
  138SAPE   H3S14993   3.780   2.115  10.478  0.2373  1.4501 -1.3839
  138SAPE   C2414994   3.871   1.989  10.321  0.0073  0.2413 -0.2378
  138SAPE   H4R14995   3.970   1.940  10.309 -0.0886  0.5939 -3.1851
  138SAPE   H4S14996   3.863   2.051  10.230 -0.8077  2.3019  1.1770
  138SAPE   C2514997   3.761   1.880  10.337 -0.2252 -0.1237  0.2477
  138SAPE   H5R14998   3.775   1.824  10.431 -0.5156 -0.9933 -0.2188
  138SAPE   C2614999   3.678   1.840  10.234 -0.4833  0.5723  0.9014
  138SAPE   H6R15000   3.604   1.760  10.251 -0.1641  0.2504  0.7954
  138SAPE   C2715001   3.680   1.893  10.093 -0.7704 -0.5659 -0.0814
  138SAPE   H7R15002   3.775   1.950  10.082 -1.3709  0.9680  1.9000
  138SAPE   H7S15003   3.596   1.965  10.097 -0.1124  0.2234 -0.0149
  138SAPE   C2815004   3.658   1.796   9.978  0.6637  0.0824 -0.4393
  138SAPE   H8R15005   3.575   1.725   9.987  1.9608 -1.3789  0.5824
  138SAPE   C2915006   3.709   1.804   9.854 -0.3167 -0.7009  0.2447
  138SAPE   H9R15007   3.665   1.730   9.786 -2.6155 -1.1755  2.0924
  138SAPE  C21015008   3.807   1.910   9.802  0.7048 -0.0065  0.5104
  138SAPE  H10R15009   3.888   1.847   9.759  0.1075  1.3585 -2.9323
  138SAPE  H10S15010   3.852   1.963   9.888 -0.0356  0.2831  0.7300
  138SAPE  C21115011   3.755   2.005   9.698 -0.2164  0.1029 -0.1955
  138SAPE  H11R15012   3.698   2.085   9.749 -0.9068 -0.3357 -0.2564
  138SAPE  C21215013   3.766   2.009   9.565  0.1032  0.1214 -0.0431
  138SAPE  H12R15014   3.705   2.089   9.519 -0.1385 -0.7131 -1.2364
  138SAPE  C21315015   3.829   1.920   9.465 -0.3684 -0.4343  0.2056
  138SAPE  H13R15016   3.887   1.838   9.513 -0.8886  0.2582  2.0709
  138SAPE  H13S15017   3.911   1.976   9.416 -0.3809 -1.0411 -0.5473
  138SAPE  C21415018   3.716   1.854   9.386  0.4748 -0.4055  0.4912
  138SAPE  H14R15019   3.619   1.832   9.434 -0.4397 -3.2206 -2.3372
  138SAPE  C21515020   3.723   1.809   9.257 -0.6011 -0.7070 -0.0483
  138SAPE  H15R15021   3.635   1.759   9.214 -1.5863  0.8608  0.0251
  138SAPE  C21615022   3.852   1.836   9.175 -0.1184  0.2833  0.0417
  138SAPE  H16R15023   3.849   1.766   9.089  0.2550 -0.3780  0.5519
  138SAPE  H16S15024   3.948   1.819   9.229  0.6505 -1.5215 -1.7779
  138SAPE  C21715025   3.846   1.979   9.117  0.0888  0.2014 -0.1910
  138SAPE  H17R15026   3.940   1.995   9.060  0.6169  0.0658  0.6266
  138SAPE  H17S15027   3.844   2.048   9.204  0.3851 -0.0592  0.0277
  138SAPE  C21815028   3.734   2.015   9.015  0.5434  0.3718 -0.2571
  138SAPE  H18R15029   3.766   2.114   8.975  0.0249  0.6562  0.0332
  138SAPE  H18S15030   3.636   2.027   9.065 -0.0488  0.1689 -1.3400
  138SAPE  C21915031   3.722   1.910   8.904 -0.0451  0.4408 -0.8893
  138SAPE  H19R15032   3.632   1.936   8.844 -0.3766  2.6827  0.4625
  138SAPE  H19S15033   3.711   1.810   8.950 -0.2124  1.0096  0.3490
  138SAPE  C22015034   3.848   1.885   8.819  0.3860  0.0470 -0.0221
  138SAPE  H20R15035   3.867   1.985   8.773 -0.0551  0.7668  1.3315
  138SAPE  H20S15036   3.823   1.805   8.745 -1.2303 -0.2213  0.7630
  138SAPE  H20T15037   3.935   1.867   8.885 -0.2188 -0.7227  0.5824
  138SAPE   C3315038   4.154   1.658  10.060 -0.6411  0.0912 -0.9758
  138SAPE   H3X15039   4.197   1.556  10.053 -1.2354 -0.1008 -2.0871
  138SAPE   H3Y15040   4.237   1.730  10.076 -1.2931  0.4169  1.2192
  138SAPE   C3415041   4.080   1.677   9.923 -0.4105 -0.5128 -0.4606
  138SAPE   H4X15042   4.078   1.787   9.907 -0.2136 -0.5188 -0.5260
  138SAPE   H4Y15043   3.976   1.646   9.948 -0.8452  1.9728  1.1774
  138SAPE   C3515044   4.134   1.610   9.793 -0.0332  0.3810  0.4145
  138SAPE   H5X15045   4.149   1.503   9.820  2.1768  0.2807 -0.9756
  138SAPE   H5Y15046   4.234   1.657   9.788 -0.1772  0.8587  1.6362
  138SAPE   C3615047   4.064   1.638   9.665  0.2906  0.0761 -0.8189
  138SAPE   H6X15048   4.095   1.737   9.626  1.0809  0.2711  0.2525
  138SAPE   H6Y15049   3.954   1.643   9.680  0.6782  1.8079  2.3587
  138SAPE   C3715050   4.085   1.523   9.557  0.6291 -0.6565 -0.4744
  138SAPE   H7X15051   4.013   1.445   9.587 -3.2908  2.3912 -1.1423
  138SAPE   H7Y15052   4.192   1.496   9.569  0.6245 -0.9119 -1.0009
  138SAPE   C3815053   4.055   1.566   9.412  0.8845  0.0664  0.6622
  138SAPE   H8X15054   4.117   1.654   9.386  2.8327 -1.5356 -0.4184
  138SAPE   H8Y15055   3.946   1.586   9.401  0.7777 -1.6150 -2.5638
  138SAPE   C3915056   4.073   1.461   9.311  0.2120 -0.4704  0.0721
  138SAPE   H9X15057   4.015   1.369   9.334 -0.2615  0.3442  2.3466
  138SAPE   H9Y15058   4.181   1.432   9.317 -0.5851 -3.7974  0.2856
  138SAPE  C31015059   4.046   1.523   9.174  0.2899 -0.2738  0.0848
  138SAPE  H10X15060   3.979   1.611   9.186 -1.4431 -1.6468  0.9370
  138SAPE  H10Y15061   3.989   1.456   9.107  0.0631  3.1440 -3.5478
  138SAPE  C31115062   4.171   1.557   9.106  0.3931  0.1842  0.1772
  138SAPE  H11X15063   4.234   1.466   9.121 -0.3709 -0.4649 -0.4626
  138SAPE  H11Y15064   4.226   1.633   9.166  0.1789 -0.9627  1.8946
  138SAPE  C31215065   4.178   1.602   8.957 -0.3134 -0.2440 -0.5757
  138SAPE  H12X15066   4.278   1.641   8.929 -0.9406 -0.3329 -3.1537
  138SAPE  H12Y15067   4.104   1.685   8.959 -0.8745 -0.7237  1.3319
  138SAPE  C31315068   4.142   1.495   8.854  0.0663  0.4700 -0.4556
  138SAPE  H13X15069   4.034   1.472   8.872 -0.6834  3.0387 -1.2550
  138SAPE  H13Y15070   4.193   1.399   8.876  0.4391  0.5805 -0.8372
  138SAPE  C31415071   4.151   1.542   8.706 -0.5839  0.1544 -0.1130
  138SAPE  H14X15072   4.255   1.578   8.689 -0.2840 -0.9326 -0.6673
  138SAPE  H14Y15073   4.080   1.627   8.704 -0.9956 -0.1912 -1.5487
  138SAPE  C31515074   4.106   1.436   8.601 -0.5362 -0.7078 -0.0686
  138SAPE  H15X15075   4.011   1.389   8.634 -1.1564  0.4019 -0.2232
  138SAPE  H15Y15076   4.180   1.354   8.594 -1.0043 -1.1004 -0.5381
  138SAPE  C31615077   4.084   1.487   8.458  0.0435  0.2057  0.1898
  138SAPE  H16X15078   4.003   1.562   8.466 -0.3819 -0.4406  2.6249
  138SAPE  H16Y15079   4.058   1.399   8.396  0.5861 -0.3153  0.6878
  138SAPE  C31715080   4.215   1.544   8.395  0.4609 -0.2585  0.7752
  138SAPE  H17X15081   4.299   1.477   8.366  1.4254  2.2268 -2.8352
  138SAPE  H17Y15082   4.260   1.622   8.460  1.0256  0.7703 -0.7890
  138SAPE  C31815083   4.184   1.616   8.265 -0.2841 -0.5315 -0.3486
  138SAPE  H18X15084   4.135   1.714   8.282  1.6522  0.5166 -0.6860
  138SAPE  H18Y15085   4.122   1.561   8.191  0.8305 -1.7930 -0.3886
  138SAPE  H18Z15086   4.272   1.640   8.203 -0.7044  0.3795 -0.5973
  139SAPE     N15087   5.866   4.905  10.701 -0.0222  0.2653  0.3503
  139SAPE   HN115088   5.881   4.998  10.657 -0.2261  0.3544  0.4678
  139SAPE   HN215089   5.874   4.829  10.630  1.6455  2.4509 -1.9862
  139SAPE   HN315090   5.770   4.900  10.740 -0.5274  0.4455 -0.8298
  139SAPE   C1215091   5.969   4.881  10.806  0.1776  0.2456  0.1914
  139SAPE  H12A15092   5.982   4.775  10.836 -0.6236  0.0504 -0.1330
  139SAPE  H12B15093   5.931   4.931  10.898 -2.7867 -2.8171  0.8318
  139SAPE   C1115094   6.103   4.931  10.761 -0.1304 -0.1830 -0.1913
  139SAPE  H11A15095   6.175   4.941  10.845 -0.9104 -3.6089  1.0502
  139SAPE  H11B15096   6.104   5.032  10.714  0.9026 -0.6650 -1.2609
  139SAPE     P15097   6.303   4.875  10.611  0.1619  0.2508 -0.2690
  139SAPE   O1315098   6.387   4.956  10.709  0.1921  0.1514  0.8100
  139SAPE   O1415099   6.361   4.748  10.563 -0.4334  0.0881 -0.1249
  139SAPE   O1215100   6.154   4.841  10.669 -0.1479 -0.5018 -0.3768
  139SAPE   O1115101   6.272   4.963  10.486 -0.3539 -0.0053  0.2912
  139SAPE    C115102   6.148   4.957  10.408 -0.2176 -0.4522 -0.7691
  139SAPE    HA15103   6.066   4.977  10.480  0.6235 -0.1142  0.1198
  139SAPE    HB15104   6.159   5.037  10.333 -0.0406  2.1831  1.8598
  139SAPE    C215105   6.117   4.821  10.344  0.1308 -0.0942  0.0895
  139SAPE    HS15106   6.114   4.748  10.427 -0.1648 -1.3196 -0.9571
  139SAPE   O2115107   6.220   4.789  10.253  0.2267  0.3936 -0.2847
  139SAPE   C2115108   6.202   4.667  10.202  1.0150  0.9181  0.2989
  139SAPE   O2215109   6.117   4.583  10.244 -1.2352  0.7122  0.3451
  139SAPE   C2215110   6.301   4.644  10.090  0.1510  0.3007 -0.2776
  139SAPE   H2R15111   6.326   4.741  10.042 -0.6069  0.2698 -0.7528
  139SAPE   H2S15112   6.396   4.605  10.133  1.0493  0.6100 -1.9015
  139SAPE    C315113   5.970   4.833  10.271 -0.3103  0.4409 -0.9812
  139SAPE    HX15114   5.923   4.907  10.339  0.9268  0.0530  0.3700
  139SAPE    HY15115   5.915   4.736  10.268  0.4438 -0.1087  0.9755
  139SAPE   O3115116   5.986   4.882  10.138  0.2400  0.0964 -0.2327
  139SAPE   C3115117   5.874   4.904  10.076 -0.1070  0.2624  0.9032
  139SAPE   O3215118   5.763   4.866  10.105 -0.5189 -0.1160 -0.0511
  139SAPE   C3215119   5.903   4.991   9.955  0.0286  0.1170  0.5150
  139SAPE   H2X15120   6.005   4.965   9.919 -0.5680  0.7249 -1.7809
  139SAPE   H2Y15121   5.916   5.092   9.999 -2.1310  1.1162 -0.9717
  139SAPE   C2315122   6.236   4.532   9.993 -0.7493 -0.9633 -0.0185
  139SAPE   H3R15123   6.180   4.459  10.055 -0.6130 -1.3823 -0.3854
  139SAPE   H3S15124   6.333   4.483   9.968 -0.5829 -0.7850  0.2676
  139SAPE   C2415125   6.146   4.601   9.885  0.1339  0.2729 -0.0450
  139SAPE   H4R15126   6.205   4.674   9.826  1.3854 -2.1328 -1.9530
  139SAPE   H4S15127   6.049   4.645   9.918 -1.3627  0.2166 -3.8829
  139SAPE   C2515128   6.093   4.489   9.797 -0.3293  0.3283 -0.5804
  139SAPE   H5R15129   6.057   4.399   9.850  1.8593 -0.8706 -1.0293
  139SAPE   C2615130   6.086   4.492   9.663  0.1408 -0.1930  0.2079
  139SAPE   H6R15131   6.047   4.406   9.606 -0.2029  1.0718 -1.5324
  139SAPE   C2715132   6.147   4.605   9.576  0.5630 -0.3652  0.2366
  139SAPE   H7R15133   6.226   4.564   9.508  0.4560 -2.3374  1.2116
  139SAPE   H7S15134   6.201   4.676   9.641  0.0306  0.5105 -0.2564
  139SAPE   C2815135   6.034   4.670   9.507 -0.1913 -0.7987  0.1626
  139SAPE   H8R15136   5.970   4.720   9.580  0.0095 -3.0330  1.9749
  139SAPE   C2915137   6.014   4.675   9.371  0.5023  0.2604  0.6163
  139SAPE   H9R15138   5.925   4.723   9.328  0.2774 -1.7271 -1.2422
  139SAPE  C21015139   6.102   4.611   9.266  0.3916  0.4924 -0.9697
  139SAPE  H10R15140   6.042   4.519   9.250 -0.2763  0.5439  0.9871
  139SAPE  H10S15141   6.200   4.577   9.307 -1.1118 -2.0777  0.8031
  139SAPE  C21115142   6.129   4.696   9.152 -0.9949  0.4505  0.1864
  139SAPE  H11R15143   6.236   4.720   9.159 -1.1377  0.9772  0.6085
  139SAPE  C21215144   6.049   4.743   9.052  0.2796 -0.2068 -0.5030
  139SAPE  H12R15145   6.102   4.794   8.970 -0.4270  1.1162 -0.1710
  139SAPE  C21315146   5.899   4.723   9.032  0.3021  0.2763  0.7167
  139SAPE  H13R15147   5.842   4.807   9.078 -0.6218  1.4376 -2.3215
  139SAPE  H13S15148   5.863   4.627   9.074  0.4488 -1.6051 -3.0893
  139SAPE  C21415149   5.853   4.718   8.889 -0.8680 -0.5495  0.5871
  139SAPE  H14R15150   5.891   4.797   8.823  1.6320 -1.0504  1.2857
  139SAPE  C21515151   5.771   4.633   8.833 -0.0932 -0.4081 -0.0282
  139SAPE  H15R15152   5.741   4.653   8.729  1.1581 -0.2553 -0.3828
  139SAPE  C21615153   5.695   4.521   8.903  0.7436  0.7073 -0.3471
  139SAPE  H16R15154   5.643   4.562   8.993  1.1377 -1.7534  1.1130
  139SAPE  H16S15155   5.753   4.431   8.932 -0.5377  0.1385  0.6057
  139SAPE  C21715156   5.585   4.481   8.806  0.2317  0.5989  0.6929
  139SAPE  H17R15157   5.533   4.575   8.780 -0.1126  0.9389  2.4826
  139SAPE  H17S15158   5.512   4.412   8.854  2.6841 -1.1760  2.1083
  139SAPE  C21815159   5.633   4.398   8.687 -0.3680 -0.3804 -0.3027
  139SAPE  H18R15160   5.680   4.306   8.728  0.4213 -1.3772 -3.2233
  139SAPE  H18S15161   5.697   4.461   8.623 -1.9686  0.0440 -1.5505
  139SAPE  C21915162   5.509   4.355   8.603  0.5870 -0.3868 -0.3574
  139SAPE  H19R15163   5.467   4.449   8.562  2.0131  0.7534  0.6875
  139SAPE  H19S15164   5.440   4.306   8.676  0.6707 -3.1527 -1.9752
  139SAPE  C22015165   5.537   4.261   8.492 -0.2348 -0.7213  0.2240
  139SAPE  H20R15166   5.609   4.311   8.423  1.1190  2.4620  3.6052
  139SAPE  H20S15167   5.456   4.235   8.421 -0.8362  0.4289  0.4593
  139SAPE  H20T15168   5.575   4.171   8.543  0.8517  0.4183  1.5015
  139SAPE   C3315169   5.785   5.002   9.865  0.4592 -0.8941  0.5261
  139SAPE   H3X15170   5.808   5.082   9.791 -1.9952  0.1647  0.8061
  139SAPE   H3Y15171   5.688   5.025   9.915 -0.5042 -2.5948 -0.4285
  139SAPE   C3415172   5.768   4.878   9.785  0.0900 -0.0698 -0.1985
  139SAPE   H4X15173   5.732   4.795   9.848  0.8021 -1.0436 -1.0372
  139SAPE   H4Y15174   5.871   4.849   9.755 -0.0228  0.7050 -1.4307
  139SAPE   C3515175   5.675   4.902   9.665 -0.3281  0.0692 -0.3095
  139SAPE   H5X15176   5.589   4.970   9.684 -1.0320 -0.2615 -2.0630
  139SAPE   H5Y15177   5.627   4.808   9.628 -3.0605  1.5684 -0.8944
  139SAPE   C3615178   5.758   4.964   9.552 -0.4330 -0.3955 -0.5205
  139SAPE   H6X15179   5.839   4.893   9.522  2.2535  1.8435  0.9286
  139SAPE   H6Y15180   5.804   5.062   9.579 -1.9745  0.3348 -0.4408
  139SAPE   C3715181   5.678   5.002   9.429  0.1142 -0.0422  0.0351
  139SAPE   H7X15182   5.593   5.067   9.459 -1.0343 -0.9717 -1.0860
  139SAPE   H7Y15183   5.631   4.915   9.377 -1.5006  1.0987 -0.4934
  139SAPE   C3815184   5.754   5.078   9.322 -0.1320  0.3866  0.8925
  139SAPE   H8X15185   5.852   5.027   9.309 -1.0674 -1.7935  1.8612
  139SAPE   H8Y15186   5.783   5.181   9.350 -1.3461  0.6315  1.3253
  139SAPE   C3915187   5.676   5.072   9.186 -0.5705 -0.7342  0.3747
  139SAPE   H9X15188   5.576   5.117   9.204 -0.5434 -0.3917 -0.3095
  139SAPE   H9Y15189   5.673   4.969   9.144 -3.2028 -1.0469  1.1067
  139SAPE  C31015190   5.762   5.167   9.083  0.2792  0.8905 -0.7594
  139SAPE  H10X15191   5.868   5.137   9.070  0.3242  1.2240 -1.2052
  139SAPE  H10Y15192   5.748   5.267   9.130 -3.0923 -0.3954  1.3128
  139SAPE  C31115193   5.695   5.192   8.944  0.3375  0.0126  0.3262
  139SAPE  H11X15194   5.745   5.271   8.885 -2.9679  1.7360 -0.4407
  139SAPE  H11Y15195   5.590   5.225   8.958  0.0707 -1.4658  2.1561
  139SAPE  C31215196   5.685   5.060   8.876 -0.0407 -0.5179  0.4395
  139SAPE  H12X15197   5.648   4.979   8.942 -0.0555  1.5311  3.0737
  139SAPE  H12Y15198   5.789   5.021   8.869 -0.7267 -2.3808 -0.1566
  139SAPE  C31315199   5.628   5.067   8.733 -0.1037 -0.1773 -0.4338
  139SAPE  H13X15200   5.696   5.132   8.675 -0.5972 -0.9617 -1.9402
  139SAPE  H13Y15201   5.524   5.106   8.737 -0.3249 -0.7426 -0.5309
  139SAPE  C31415202   5.620   4.933   8.659 -0.2081 -0.1058 -0.2074
  139SAPE  H14X15203   5.550   4.861   8.709  0.6130 -2.1070 -1.7886
  139SAPE  H14Y15204   5.724   4.893   8.668 -0.2548 -0.2754 -0.4231
  139SAPE  C31515205   5.596   4.941   8.509  0.0764  0.5385  0.4200
  139SAPE  H15X15206   5.677   5.001   8.462  0.3363 -1.3430 -1.7053
  139SAPE  H15Y15207   5.503   4.999   8.486  0.7552  0.4206 -3.2943
  139SAPE  C31615208   5.582   4.797   8.447 -0.2022 -0.0587 -0.0189
  139SAPE  H16X15209   5.675   4.741   8.472  0.6932  0.9392 -1.0087
  139SAPE  H16Y15210   5.501   4.753   8.510 -0.1277  1.6884  1.3758
  139SAPE  C31715211   5.547   4.804   8.298 -0.2233  0.2705 -0.5590
  139SAPE  H17X15212   5.617   4.881   8.260  0.8111 -0.6302 -0.5674
  139SAPE  H17Y15213   5.443   4.841   8.302 -0.6187 -0.9049  0.9181
  139SAPE  C31815214   5.553   4.671   8.218 -0.2401 -0.4885  0.6414
  139SAPE  H18X15215   5.505   4.583   8.267 -0.6803  0.3149  1.6923
  139SAPE  H18Y15216   5.658   4.643   8.194 -0.3063 -2.5837  2.4449
  139SAPE  H18Z15217   5.489   4.691   8.130 -1.4927  1.3904  1.9118
  140SAPE     N15218   6.279   1.643  11.058 -0.1698 -0.0498 -0.3687
  140SAPE   HN115219   6.366   1.605  11.100  0.3861  0.9711 -0.5706
  140SAPE   HN215220   6.225   1.566  11.013 -0.9486  0.9374 -1.1768
  140SAPE   HN315221   6.295   1.717  10.987  1.3538 -1.4741 -1.6041
  140SAPE   C1215222   6.197   1.696  11.172 -0.0665 -0.4325 -0.2214
  140SAPE  H12A15223   6.232   1.800  11.188  1.0405 -0.5569 -1.6116
  140SAPE  H12B15224   6.219   1.630  11.259 -0.5468 -1.2903 -0.7319
  140SAPE   C1115225   6.047   1.676  11.143 -0.1089  0.1836 -0.4457
  140SAPE  H11A15226   5.999   1.741  11.219  0.8472  1.2043 -0.6961
  140SAPE  H11B15227   6.012   1.571  11.156  0.9096 -0.1711 -0.4461
  140SAPE     P15228   5.907   1.818  10.968 -0.4606 -0.2266 -0.2862
  140SAPE   O1315229   5.789   1.766  11.035 -0.1134  0.1223 -0.2818
  140SAPE   O1415230   5.951   1.957  11.002 -0.7080  0.3632  0.0584
  140SAPE   O1215231   6.018   1.714  11.007  0.1948  0.2148  0.3318
  140SAPE   O1115232   5.902   1.801  10.813 -0.5788  0.1149 -0.2480
  140SAPE    C115233   6.019   1.816  10.732  0.1240  0.6686  0.1215
  140SAPE    HA15234   5.985   1.844  10.630  1.6670  1.4715 -0.2016
  140SAPE    HB15235   6.080   1.904  10.763  2.4149 -1.3324  1.6966
  140SAPE    C215236   6.105   1.688  10.713 -0.4743 -1.1949  0.3930
  140SAPE    HS15237   6.163   1.673  10.807  0.7779 -0.3782 -0.2274
  140SAPE   O2115238   6.199   1.715  10.610  0.0930 -0.2099  0.0269
  140SAPE   C2115239   6.312   1.638  10.618 -0.2295  0.5097 -0.4656
  140SAPE   O2215240   6.334   1.549  10.699  0.0459 -0.1112 -0.0498
  140SAPE   C2215241   6.397   1.670  10.498 -0.2685  0.4679 -0.0860
  140SAPE   H2R15242   6.334   1.643  10.411  0.2843  0.2007 -0.4033
  140SAPE   H2S15243   6.413   1.779  10.490  1.7884  0.2872  0.9521
  140SAPE    C315244   6.020   1.558  10.692  0.2497 -0.6446  0.8688
  140SAPE    HX15245   5.947   1.543  10.774 -1.1397  1.4662  0.0933
  140SAPE    HY15246   6.098   1.481  10.709 -0.6934 -1.5561  1.1363
  140SAPE   O3115247   5.955   1.549  10.565 -0.6654  0.2224 -0.4472
  140SAPE   C3115248   6.012   1.475  10.472  0.7786 -0.1119  0.4115
  140SAPE   O3215249   6.114   1.413  10.486  0.7095 -0.2709 -0.8214
  140SAPE   C3215250   5.912   1.460  10.355  0.6885 -0.1831 -0.2873
  140SAPE   H2X15251   5.890   1.565  10.325  2.5150  0.0138 -1.0781
  140SAPE   H2Y15252   5.823   1.408  10.396  0.8375 -0.3974 -0.2345
  140SAPE   C2315253   6.532   1.598  10.497 -0.1703  0.4149  0.1863
  140SAPE   H3R15254   6.529   1.487  10.502  1.3696  0.3334 -0.1340
  140SAPE   H3S15255   6.599   1.634  10.578  0.1846  2.2638 -0.8805
  140SAPE   C2415256   6.598   1.626  10.356  0.2765  0.2611 -0.0571
  140SAPE   H4R15257   6.530   1.588  10.276  1.6249  1.5720 -1.9084
  140SAPE   H4S15258   6.687   1.560  10.363 -0.4334 -0.5601  1.9097
  140SAPE   C2515259   6.638   1.770  10.332  0.0832  0.7184 -0.0123
  140SAPE   H5R15260   6.668   1.829  10.420  0.2746 -1.9320  1.8295
  140SAPE   C2615261   6.635   1.840  10.215  0.4270  0.4071 -0.6518
  140SAPE   H6R15262   6.653   1.948  10.218  2.5757  0.0724  1.3826
  140SAPE   C2715263   6.588   1.785  10.083  0.1362 -0.3786  0.2737
  140SAPE   H7R15264   6.523   1.861  10.034 -0.7648 -1.0510  0.4222
  140SAPE   H7S15265   6.525   1.694  10.092  0.5210 -0.7581 -0.6812
  140SAPE   C2815266   6.701   1.750   9.988  0.5900  0.0851  0.3699
  140SAPE   H8R15267   6.793   1.803  10.015  1.0141 -0.6746  0.4376
  140SAPE   C2915268   6.692   1.682   9.867 -0.0152 -0.5365  0.0856
  140SAPE   H9R15269   6.785   1.678   9.808  0.3995  0.7438  0.6030
  140SAPE  C21015270   6.565   1.616   9.814 -0.5529 -0.8245 -0.2651
  140SAPE  H10R15271   6.491   1.600   9.895 -1.0114  2.3770  0.0665
  140SAPE  H10S15272   6.601   1.525   9.762 -1.6805 -1.1387 -0.5106
  140SAPE  C21115273   6.489   1.700   9.712  0.3017 -0.9447  0.4256
  140SAPE  H11R15274   6.496   1.809   9.712  3.5329 -0.9802 -2.3276
  140SAPE  C21215275   6.405   1.646   9.626 -0.2835  0.7493 -0.2735
  140SAPE  H12R15276   6.354   1.705   9.548 -3.1585 -1.8589 -0.5530
  140SAPE  C21315277   6.370   1.498   9.617  0.7471  0.3627  0.0607
  140SAPE  H13R15278   6.261   1.478   9.617  0.6344  0.8942  1.3062
  140SAPE  H13S15279   6.408   1.439   9.704  2.8913  2.4731  0.6803
  140SAPE  C21415280   6.429   1.429   9.499 -1.2322  0.5381  0.4865
  140SAPE  H14R15281   6.535   1.402   9.515 -0.7016  3.0446  1.7425
  140SAPE  C21515282   6.376   1.392   9.386  0.6773 -0.1672 -0.0633
  140SAPE  H15R15283   6.441   1.352   9.306  1.3633  1.0513 -0.1392
  140SAPE  C21615284   6.234   1.418   9.346 -0.3416  0.2871 -0.5187
  140SAPE  H16R15285   6.194   1.509   9.395 -1.2900 -1.0739  1.3945
  140SAPE  H16S15286   6.173   1.335   9.388  1.3575  1.0777  4.0926
  140SAPE  C21715287   6.208   1.446   9.193  0.0105 -0.7144 -0.2321
  140SAPE  H17R15288   6.098   1.452   9.180 -0.0544  0.5309  0.7419
  140SAPE  H17S15289   6.253   1.363   9.134  0.7314 -0.1532 -0.4837
  140SAPE  C21815290   6.268   1.569   9.138 -0.1859  0.3244  0.1225
  140SAPE  H18R15291   6.378   1.574   9.152  0.1480  1.5972 -2.2718
  140SAPE  H18S15292   6.215   1.658   9.179 -0.1933 -0.4594  1.8606
  140SAPE  C21915293   6.249   1.599   8.986  0.3564  0.4168 -0.1869
  140SAPE  H19R15294   6.142   1.584   8.960  1.0686 -1.0122 -2.5787
  140SAPE  H19S15295   6.302   1.516   8.935 -0.4951  0.2846 -0.8887
  140SAPE  C22015296   6.306   1.735   8.939  0.1755  0.4801 -0.1366
  140SAPE  H20R15297   6.286   1.745   8.830  2.2963 -1.8182 -0.8428
  140SAPE  H20S15298   6.416   1.740   8.959 -0.3879  1.5066  3.3922
  140SAPE  H20T15299   6.264   1.810   9.009  2.0843  0.9309  0.6009
  140SAPE   C3315300   5.973   1.394  10.232 -0.0948  0.0176 -0.3936
  140SAPE   H3X15301   6.008   1.296  10.269 -0.4492  0.3198  0.7850
  140SAPE   H3Y15302   6.071   1.440  10.207  0.4446 -1.1160 -0.4100
  140SAPE   C3415303   5.886   1.399  10.115  0.1577 -0.0852  0.0765
  140SAPE   H4X15304   5.866   1.505  10.090 -0.8204 -0.2396  0.1632
  140SAPE   H4Y15305   5.791   1.349  10.145  0.2333  1.1854  2.7206
  140SAPE   C3515306   5.941   1.327   9.985 -0.5864  0.5281  0.6830
  140SAPE   H5X15307   5.956   1.218  10.004 -1.3823  0.4412  0.8452
  140SAPE   H5Y15308   6.038   1.368   9.949 -0.9464 -0.8595 -2.2091
  140SAPE   C3615309   5.835   1.339   9.872 -0.1007 -0.4731  0.0537
  140SAPE   H6X15310   5.801   1.445   9.864  0.7994 -0.0440  1.4495
  140SAPE   H6Y15311   5.739   1.291   9.900 -0.6338  1.0936  1.0960
  140SAPE   C3715312   5.872   1.293   9.727 -0.7097 -0.2372 -0.1569
  140SAPE   H7X15313   5.901   1.186   9.727 -0.8400 -0.3173  2.3540
  140SAPE   H7Y15314   5.961   1.357   9.705 -0.9103  0.5983  1.3337
  140SAPE   C3815315   5.759   1.312   9.619  0.2967 -0.2970 -0.5494
  140SAPE   H8X15316   5.720   1.415   9.632  0.8783 -0.2202  0.8270
  140SAPE   H8Y15317   5.676   1.241   9.636 -0.9355  1.5375  1.6713
  140SAPE   C3915318   5.818   1.290   9.479 -0.1658 -0.3727 -0.0875
  140SAPE   H9X15319   5.876   1.195   9.473 -0.0828 -0.2415 -2.1205
  140SAPE   H9Y15320   5.890   1.370   9.452  0.5589 -1.0081 -0.0838
  140SAPE  C31015321   5.701   1.282   9.380 -0.6707 -1.0303 -0.0465
  140SAPE  H10X15322   5.633   1.369   9.396 -0.0161 -0.8167  1.8856
  140SAPE  H10Y15323   5.647   1.186   9.392  0.9457 -1.8261  1.3455
  140SAPE  C31115324   5.750   1.279   9.236  0.5476  0.1624 -0.1879
  140SAPE  H11X15325   5.835   1.212   9.214  1.1054  1.0238 -0.7197
  140SAPE  H11Y15326   5.767   1.383   9.198 -1.2032  0.0282 -1.5072
  140SAPE  C31215327   5.643   1.232   9.136 -0.7152  0.1516 -0.0391
  140SAPE  H12X15328   5.552   1.296   9.136 -0.2447  0.8245 -0.5002
  140SAPE  H12Y15329   5.617   1.134   9.182  0.3377 -1.2533 -2.2483
  140SAPE  C31315330   5.697   1.223   8.992  0.1690  0.1316  0.1603
  140SAPE  H13X15331   5.612   1.178   8.936  0.6415 -0.5013 -0.0735
  140SAPE  H13Y15332   5.785   1.155   8.986 -0.2840 -0.3675 -1.2235
  140SAPE  C31415333   5.735   1.361   8.940  0.0473  0.9157  0.8027
  140SAPE  H14X15334   5.829   1.402   8.981 -1.0947  3.8986  0.7342
  140SAPE  H14Y15335   5.655   1.435   8.963  0.1157  0.9468  0.9375
  140SAPE  C31515336   5.758   1.351   8.787  0.1745  0.6466 -0.4890
  140SAPE  H15X15337   5.669   1.327   8.726 -0.8075  0.4916  0.9634
  140SAPE  H15Y15338   5.821   1.260   8.776 -1.5999 -1.1540  2.7956
  140SAPE  C31615339   5.831   1.473   8.732 -0.5451  0.9790 -0.2155
  140SAPE  H16X15340   5.937   1.448   8.753  0.2051  1.2001 -3.2762
  140SAPE  H16Y15341   5.788   1.557   8.791 -0.5405  2.8166 -2.6508
  140SAPE  C31715342   5.805   1.505   8.581 -0.4728  0.2161  0.4976
  140SAPE  H17X15343   5.864   1.595   8.555 -1.9117  0.6708 -1.4156
  140SAPE  H17Y15344   5.699   1.539   8.575 -0.9755 -1.3920 -4.1737
  140SAPE  C31815345   5.825   1.388   8.486  0.3755 -0.2221  0.1909
  140SAPE  H18X15346   5.931   1.354   8.492  0.4342 -0.0332  0.2071
  140SAPE  H18Y15347   5.782   1.422   8.389 -0.7708 -0.0129  0.7556
  140SAPE  H18Z15348   5.759   1.302   8.511  1.0114 -0.5376  0.8143
  141SAPE     N15349   5.503   3.068  10.918  0.2079 -0.1720  0.0999
  141SAPE   HN115350   5.405   3.041  10.895  0.3789 -0.8779  0.1860
  141SAPE   HN215351   5.548   3.008  10.989 -0.9912  0.2520  1.2567
  141SAPE   HN315352   5.511   3.168  10.947 -2.5111  0.4204 -0.8984
  141SAPE   C1215353   5.584   3.057  10.788 -0.0751 -0.7359  0.0698
  141SAPE  H12A15354   5.513   3.078  10.706 -0.4848 -1.9751  0.0821
  141SAPE  H12B15355   5.616   2.951  10.779 -3.4296 -1.9348  0.6223
  141SAPE   C1115356   5.705   3.153  10.778  0.2170 -0.1671  0.4033
  141SAPE  H11A15357   5.711   3.188  10.673 -0.9637  2.6320  1.1982
  141SAPE  H11B15358   5.801   3.100  10.798  0.6791  0.5044 -0.0027
  141SAPE     P15359   5.804   3.368  10.909  0.2774  0.2449  0.4225
  141SAPE   O1315360   5.755   3.441  11.028  0.1520 -0.0498 -0.6394
  141SAPE   O1415361   5.924   3.292  10.922  0.4856  0.4576 -0.4119
  141SAPE   O1215362   5.683   3.260  10.874  0.4759 -0.0420  0.1241
  141SAPE   O1115363   5.803   3.461  10.783 -0.2020  0.2355  0.0577
  141SAPE    C115364   5.691   3.495  10.702 -0.5360  0.3526  0.1326
  141SAPE    HA15365   5.628   3.406  10.683  1.6262 -0.8443 -1.9654
  141SAPE    HB15366   5.632   3.580  10.744  0.1659  0.9566 -0.0788
  141SAPE    C215367   5.738   3.561  10.576  0.4676 -0.2483 -0.4601
  141SAPE    HS15368   5.643   3.585  10.523 -0.2629  0.3853  1.0858
  141SAPE   O2115369   5.821   3.476  10.505  0.1158  0.0552  0.1627
  141SAPE   C2115370   5.750   3.370  10.432 -0.3220  0.1165 -0.6742
  141SAPE   O2215371   5.632   3.366  10.437  0.4562  0.2832  0.0589
  141SAPE   C2215372   5.846   3.279  10.360  0.4129 -0.5793 -0.3798
  141SAPE   H2R15373   5.944   3.281  10.412  0.3266  0.8276 -0.2311
  141SAPE   H2S15374   5.807   3.178  10.385 -1.0021 -0.0472 -0.3687
  141SAPE    C315375   5.815   3.695  10.594 -0.6681 -0.0150 -0.1055
  141SAPE    HX15376   5.881   3.686  10.683 -0.1789  0.6609 -0.3979
  141SAPE    HY15377   5.734   3.768  10.616  0.4393  0.8601  1.2163
  141SAPE   O3115378   5.881   3.724  10.471 -0.4178  0.8018 -0.1439
  141SAPE   C3115379   5.984   3.806  10.479 -0.5008 -0.2173 -0.3466
  141SAPE   O3215380   6.010   3.879  10.575  0.3765 -1.1193  0.3114
  141SAPE   C3215381   6.053   3.799  10.347 -1.0736 -0.1687  0.3668
  141SAPE   H2X15382   5.973   3.838  10.281  0.0210  1.6415  0.0533
  141SAPE   H2Y15383   6.072   3.692  10.324  0.6930  0.3666 -0.8651
  141SAPE   C2315384   5.854   3.295  10.208 -0.0780  0.5219 -0.2770
  141SAPE   H3R15385   5.754   3.279  10.163 -0.2813  0.3570  0.2265
  141SAPE   H3S15386   5.921   3.223  10.157  0.9030  0.4976  0.9709
  141SAPE   C2415387   5.911   3.428  10.170 -0.0441  0.2054  0.1615
  141SAPE   H4R15388   5.853   3.504  10.228 -2.2215 -2.1865  1.2915
  141SAPE   H4S15389   5.888   3.435  10.062  0.0417  1.8309  0.2190
  141SAPE   C2515390   6.058   3.432  10.196 -0.2049 -0.0950 -0.1409
  141SAPE   H5R15391   6.088   3.448  10.301  1.2482  2.0036 -0.7948
  141SAPE   C2615392   6.160   3.392  10.115  0.2105  0.3339 -0.4849
  141SAPE   H6R15393   6.264   3.412  10.145 -0.3600  1.0326  1.1000
  141SAPE   C2715394   6.145   3.351   9.972 -0.1652 -0.9184  0.1833
  141SAPE   H7R15395   6.229   3.392   9.911  0.2174  0.8436  1.7969
  141SAPE   H7S15396   6.066   3.408   9.918  0.9225  0.6480  0.1654
  141SAPE   C2815397   6.113   3.205   9.940 -0.6184  0.2083 -0.4018
  141SAPE   H8R15398   6.148   3.143  10.024  2.6084  0.1292 -1.6625
  141SAPE   C2915399   6.073   3.156   9.821 -0.3304 -0.1673 -0.2410
  141SAPE   H9R15400   6.052   3.048   9.811  0.8977 -0.6289  1.7151
  141SAPE  C21015401   6.064   3.235   9.697 -0.1951 -0.1108  0.1666
  141SAPE  H10R15402   6.164   3.217   9.651 -0.4617  1.1006 -0.9382
  141SAPE  H10S15403   6.066   3.346   9.706 -2.0642  0.4204 -4.0280
  141SAPE  C21115404   5.946   3.206   9.600  0.4576 -0.0424 -0.0082
  141SAPE  H11R15405   5.845   3.233   9.635 -0.1028  1.5635 -2.5640
  141SAPE  C21215406   5.947   3.152   9.477 -0.8669  0.0918 -0.2884
  141SAPE  H12R15407   5.852   3.133   9.425 -1.8450 -0.4012  1.6010
  141SAPE  C21315408   6.076   3.100   9.411  0.1719  0.4857  0.1093
  141SAPE  H13R15409   6.160   3.112   9.482 -0.3574  2.6701  0.4599
  141SAPE  H13S15410   6.093   3.173   9.328 -4.4819  1.5645 -0.1605
  141SAPE  C21415411   6.068   2.955   9.364  0.1218  0.5603  0.7231
  141SAPE  H14R15412   6.061   2.880   9.444 -0.5029 -0.6566 -0.4301
  141SAPE  C21515413   6.080   2.906   9.239  0.0291  0.1005  0.6202
  141SAPE  H15R15414   6.080   2.797   9.230 -0.0366  0.1563 -0.0998
  141SAPE  C21615415   6.097   2.984   9.111  0.1226 -0.9858 -0.2396
  141SAPE  H16R15416   6.108   3.091   9.140  1.2293 -1.9650  3.6353
  141SAPE  H16S15417   6.003   2.972   9.054 -0.2417 -1.9305  0.5256
  141SAPE  C21715418   6.214   2.957   9.017 -0.0730 -0.1881  0.0140
  141SAPE  H17R15419   6.234   2.848   9.010  2.6907  0.2147  0.2449
  141SAPE  H17S15420   6.308   2.982   9.070  0.0887 -0.1826 -0.2713
  141SAPE  C21815421   6.203   3.030   8.882  0.3806 -0.2628 -0.1294
  141SAPE  H18R15422   6.305   3.056   8.846 -0.9087  0.7455 -3.4160
  141SAPE  H18S15423   6.153   3.128   8.897 -1.5064 -1.0759 -0.8994
  141SAPE  C21915424   6.145   2.944   8.760  0.0663 -0.1457  0.6897
  141SAPE  H19R15425   6.197   2.846   8.766  3.0601  1.3585  1.8288
  141SAPE  H19S15426   6.177   2.984   8.661 -1.4916 -1.3455 -0.3506
  141SAPE  C22015427   5.992   2.938   8.775  0.2052 -1.0527 -0.1138
  141SAPE  H20R15428   5.960   2.879   8.863 -1.2608  0.4173  0.4036
  141SAPE  H20S15429   5.948   2.885   8.689  0.5635 -0.7588 -0.4799
  141SAPE  H20T15430   5.926   3.028   8.778 -1.9585 -2.5381 -0.8806
  141SAPE   C3315431   6.171   3.891  10.322  0.2259 -0.4340 -0.1763
  141SAPE   H3X15432   6.271   3.842  10.332  1.9825  3.0666  0.9986
  141SAPE   H3Y15433   6.164   3.986  10.378 -0.9359  0.7689 -2.2545
  141SAPE   C3415434   6.166   3.924  10.174 -0.1246 -0.9921  0.6509
  141SAPE   H4X15435   6.249   3.994  10.151 -0.4464 -1.1742 -1.2441
  141SAPE   H4Y15436   6.071   3.978  10.150  0.3866 -1.0919 -1.7955
  141SAPE   C3515437   6.185   3.798  10.086 -0.6737  0.1390  0.4041
  141SAPE   H5X15438   6.098   3.731  10.101 -0.3864 -0.2774  0.2487
  141SAPE   H5Y15439   6.281   3.746  10.107  0.6404  3.0485  2.1445
  141SAPE   C3615440   6.193   3.839   9.936 -0.0977  0.0399  0.3836
  141SAPE   H6X15441   6.272   3.913   9.912 -2.9611  3.1903  0.0744
  141SAPE   H6Y15442   6.095   3.881   9.907  1.0046  1.2833 -1.7452
  141SAPE   C3715443   6.209   3.719   9.837 -0.2544 -0.2931 -0.2277
  141SAPE   H7X15444   6.118   3.662   9.864 -2.0022  2.2494 -0.3526
  141SAPE   H7Y15445   6.300   3.667   9.873 -0.1368  1.4592  2.2354
  141SAPE   C3815446   6.224   3.764   9.693 -0.9827 -0.2750  0.4117
  141SAPE   H8X15447   6.323   3.812   9.683 -0.9229 -0.2544  1.0438
  141SAPE   H8Y15448   6.142   3.836   9.669 -1.8065 -1.3151  0.0395
  141SAPE   C3915449   6.211   3.635   9.612 -0.5339 -0.1370  0.0816
  141SAPE   H9X15450   6.115   3.585   9.639  0.4537 -2.9847 -1.3443
  141SAPE   H9Y15451   6.293   3.563   9.631 -1.0478 -0.5846  0.6878
  141SAPE  C31015452   6.203   3.652   9.462  0.1570 -0.3435  1.0289
  141SAPE  H10X15453   6.285   3.720   9.432 -0.1019  0.2895  1.7298
  141SAPE  H10Y15454   6.111   3.702   9.427  1.0151 -1.0537 -2.6403
  141SAPE  C31115455   6.220   3.520   9.393 -0.4256 -0.0505  0.7305
  141SAPE  H11X15456   6.128   3.458   9.403  1.1200 -2.7815 -0.7075
  141SAPE  H11Y15457   6.313   3.463   9.413 -0.8562 -2.0620 -2.2774
  141SAPE  C31215458   6.246   3.547   9.242 -0.3642 -0.1322 -0.3030
  141SAPE  H12X15459   6.350   3.586   9.240  0.1492 -1.4430 -1.9654
  141SAPE  H12Y15460   6.175   3.618   9.196 -1.6788 -0.8773  0.5192
  141SAPE  C31315461   6.260   3.417   9.158 -0.2813  0.5317 -0.4381
  141SAPE  H13X15462   6.180   3.341   9.167 -0.3553  0.6498 -0.0736
  141SAPE  H13Y15463   6.356   3.368   9.186 -0.0115  0.8572 -0.7629
  141SAPE  C31415464   6.254   3.458   9.005  0.3114  0.8911  0.0878
  141SAPE  H14X15465   6.152   3.477   8.963  1.1512  1.3110 -1.8695
  141SAPE  H14Y15466   6.278   3.367   8.946  0.9570  1.6783 -0.8778
  141SAPE  C31515467   6.360   3.551   8.957  0.3361 -0.3777 -0.6836
  141SAPE  H15X15468   6.465   3.546   8.993  0.2645  1.6464 -0.0807
  141SAPE  H15Y15469   6.326   3.654   8.981  0.3535 -0.4337 -0.4095
  141SAPE  C31615470   6.378   3.549   8.809  0.1698 -0.8950  0.3663
  141SAPE  H16X15471   6.284   3.569   8.755  0.1910 -1.1555  0.2297
  141SAPE  H16Y15472   6.402   3.442   8.788 -0.7387 -0.7505 -1.5821
  141SAPE  C31715473   6.477   3.647   8.755 -0.7269  0.0491 -0.3768
  141SAPE  H17X15474   6.576   3.625   8.799 -1.4262 -3.1127 -0.1372
  141SAPE  H17Y15475   6.450   3.754   8.767  0.6817  0.5939 -1.7571
  141SAPE  C31815476   6.476   3.637   8.605  0.2764 -0.3239  0.5303
  141SAPE  H18X15477   6.513   3.540   8.567 -1.2827 -0.6630 -0.1948
  141SAPE  H18Y15478   6.538   3.718   8.560  0.5128 -0.9630 -0.3312
  141SAPE  H18Z15479   6.375   3.658   8.563  0.6630 -0.7900 -0.6668
  142SAPE     N15480   5.088   3.177  10.970  0.4645 -0.0449  0.2619
  142SAPE   HN115481   5.142   3.124  10.899 -1.9892  1.0341 -2.6368
  142SAPE   HN215482   5.110   3.276  10.947  0.3452  0.3217  1.6714
  142SAPE   HN315483   5.124   3.172  11.067 -1.7316  0.6583  1.1904
  142SAPE   C1215484   4.943   3.155  10.959  0.0373 -0.6796  0.3606
  142SAPE  H12A15485   4.923   3.057  11.007 -1.4096 -1.6519 -2.0556
  142SAPE  H12B15486   4.921   3.153  10.850  2.3477  1.2631 -0.2306
  142SAPE   C1115487   4.866   3.270  11.012 -0.4253 -0.2421 -0.5308
  142SAPE  H11A15488   4.877   3.274  11.123 -2.1054 -0.6945 -0.3283
  142SAPE  H11B15489   4.763   3.235  10.991  0.3367 -2.7006 -0.4933
  142SAPE     P15490   4.817   3.513  10.948  0.2853 -0.0750  0.2423
  142SAPE   O1315491   4.676   3.481  10.989 -0.2080 -0.3349  0.0641
  142SAPE   O1415492   4.894   3.619  11.026  0.8415 -0.2253 -0.6594
  142SAPE   O1215493   4.897   3.384  10.940 -0.1122 -0.0556  0.3725
  142SAPE   O1115494   4.820   3.564  10.800 -0.0495  0.5518 -0.0896
  142SAPE    C115495   4.915   3.521  10.706 -0.0728 -0.0681 -0.1162
  142SAPE    HA15496   5.015   3.551  10.742 -0.0313 -0.9585  0.5504
  142SAPE    HB15497   4.902   3.411  10.691 -2.4923  0.3855 -2.0497
  142SAPE    C215498   4.910   3.592  10.563  0.7816  0.0434 -0.2628
  142SAPE    HS15499   4.946   3.697  10.571 -1.1343  0.7207  0.1987
  142SAPE   O2115500   4.773   3.576  10.521 -0.9336  1.1021  0.3085
  142SAPE   C2115501   4.730   3.688  10.455 -0.0994 -0.2450  0.6572
  142SAPE   O2215502   4.795   3.794  10.433 -0.0166  0.0883 -0.7094
  142SAPE   C2215503   4.591   3.655  10.410  0.0497  0.3608 -0.3939
  142SAPE   H2R15504   4.594   3.562  10.349 -1.9359 -1.0700  1.5276
  142SAPE   H2S15505   4.525   3.631  10.496  0.0859  2.2639  0.2072
  142SAPE    C315506   5.009   3.520  10.468  0.6448  0.2162 -0.6049
  142SAPE    HX15507   4.951   3.429  10.443  1.0720 -0.0919 -0.4895
  142SAPE    HY15508   5.098   3.489  10.527 -1.4397 -0.5130  2.3639
  142SAPE   O3115509   5.031   3.601  10.352 -0.2429  0.2385  0.3721
  142SAPE   C3115510   5.135   3.570  10.277  0.3365  0.2933  0.4820
  142SAPE   O3215511   5.224   3.493  10.309 -0.7726  0.0268 -0.0733
  142SAPE   C3215512   5.118   3.646  10.140 -0.1161 -1.0568 -0.1719
  142SAPE   H2X15513   5.137   3.755  10.151 -0.1724 -1.2416  2.1439
  142SAPE   H2Y15514   5.009   3.640  10.116 -0.1659 -0.3088 -0.1659
  142SAPE   C2315515   4.528   3.768  10.327 -0.0516  0.1769 -0.1540
  142SAPE   H3R15516   4.541   3.866  10.378 -2.0839 -0.1239  1.0188
  142SAPE   H3S15517   4.418   3.759  10.322  0.0269 -1.0687  0.1141
  142SAPE   C2415518   4.592   3.788  10.186 -0.7582 -0.3167  0.0207
  142SAPE   H4R15519   4.701   3.783  10.204 -0.4315 -2.2144 -1.9909
  142SAPE   H4S15520   4.571   3.887  10.140 -1.2166  0.1451  1.1821
  142SAPE   C2515521   4.541   3.686  10.084 -0.5511  0.1952 -0.0769
  142SAPE   H5R15522   4.438   3.698  10.049  0.0312  0.6106 -1.7485
  142SAPE   C2615523   4.613   3.583  10.036  0.1973 -0.0377 -0.1653
  142SAPE   H6R15524   4.567   3.518   9.960  0.9983 -2.3166  1.1845
  142SAPE   C2715525   4.761   3.554  10.070  0.4914 -0.2394 -0.2038
  142SAPE   H7R15526   4.781   3.602  10.168 -0.6061 -1.6545  0.7513
  142SAPE   H7S15527   4.828   3.611  10.003  3.3329  0.3214  2.8231
  142SAPE   C2815528   4.805   3.405  10.053 -0.4581  0.3961 -0.3300
  142SAPE   H8R15529   4.808   3.345  10.144  1.8545  1.5142  0.4125
  142SAPE   C2915530   4.844   3.340   9.939  0.0957  0.0002 -0.7019
  142SAPE   H9R15531   4.882   3.237   9.943 -0.3549 -0.1500  2.3383
  142SAPE  C21015532   4.837   3.408   9.809  0.6803  0.0145 -0.1048
  142SAPE  H10R15533   4.941   3.411   9.770  0.1901 -1.1134 -1.5820
  142SAPE  H10S15534   4.814   3.516   9.809  0.1868 -0.0179 -2.8927
  142SAPE  C21115535   4.739   3.354   9.709  0.9439 -0.3603 -0.0584
  142SAPE  H11R15536   4.639   3.340   9.754  0.0714  2.8360 -0.7691
  142SAPE  C21215537   4.767   3.320   9.584  0.2595 -0.1451  0.1030
  142SAPE  H12R15538   4.680   3.282   9.530 -0.1169 -2.3210  2.0577
  142SAPE  C21315539   4.894   3.334   9.504  0.1545 -0.3629 -0.9079
  142SAPE  H13R15540   4.952   3.412   9.558 -2.9186  0.8761  0.8717
  142SAPE  H13S15541   4.869   3.376   9.405 -2.4919 -1.6159 -0.8666
  142SAPE  C21415542   4.967   3.203   9.486  0.4611 -0.2896  0.5027
  142SAPE  H14R15543   4.999   3.169   9.586 -1.9745  1.0710  1.8445
  142SAPE  C21515544   5.003   3.140   9.368 -0.6904 -0.4051 -0.3661
  142SAPE  H15R15545   5.051   3.042   9.378  1.0865  0.4044 -0.5277
  142SAPE  C21615546   4.975   3.193   9.230  0.3406  0.2046 -0.1596
  142SAPE  H16R15547   4.895   3.269   9.223 -0.7104 -0.6599  1.6438
  142SAPE  H16S15548   4.927   3.104   9.183  0.0518 -0.4548  1.3103
  142SAPE  C21715549   5.103   3.238   9.154  0.3746  0.1949 -0.7468
  142SAPE  H17R15550   5.170   3.150   9.152 -1.3786 -1.3088  1.7380
  142SAPE  H17S15551   5.142   3.332   9.199 -1.6692  0.7886 -0.1087
  142SAPE  C21815552   5.075   3.283   9.009 -0.3850  1.0045 -0.9174
  142SAPE  H18R15553   5.021   3.380   9.004 -1.0491  0.6896 -0.0709
  142SAPE  H18S15554   5.007   3.214   8.956  0.1722 -0.8717  0.6525
  142SAPE  C21915555   5.207   3.299   8.927  0.6161  0.1348  0.5443
  142SAPE  H19R15556   5.181   3.339   8.827 -0.7599 -0.2582  0.7318
  142SAPE  H19S15557   5.252   3.199   8.911  2.6085  0.9103  0.9910
  142SAPE  C22015558   5.299   3.394   8.995 -0.8121  0.1000 -0.0856
  142SAPE  H20R15559   5.375   3.341   9.057  0.8998  2.4071 -0.0837
  142SAPE  H20S15560   5.247   3.462   9.066 -1.5975 -0.1974 -0.3637
  142SAPE  H20T15561   5.358   3.460   8.928  0.0638  2.5422  2.8583
  142SAPE   C3315562   5.214   3.608  10.020 -0.7304  0.6574  0.0612
  142SAPE   H3X15563   5.196   3.502   9.989  0.0106  0.9080 -1.3195
  142SAPE   H3Y15564   5.313   3.613  10.069 -0.5459 -1.0884 -0.0692
  142SAPE   C3415565   5.187   3.687   9.891  0.0471 -0.5794  0.3954
  142SAPE   H4X15566   5.172   3.791   9.926  0.1778 -0.2680 -0.4592
  142SAPE   H4Y15567   5.088   3.667   9.845  0.8973  0.1431 -1.8892
  142SAPE   C3515568   5.308   3.682   9.789  0.3610  0.0836 -0.1210
  142SAPE   H5X15569   5.397   3.731   9.833  0.2184 -0.0970  0.3736
  142SAPE   H5Y15570   5.279   3.739   9.698  1.2550  1.1474  0.2448
  142SAPE   C3615571   5.356   3.552   9.727 -0.0030  0.5455 -0.1261
  142SAPE   H6X15572   5.402   3.496   9.812 -0.9154  0.6648  0.4575
  142SAPE   H6Y15573   5.430   3.577   9.648 -0.6979 -0.9682 -1.2834
  142SAPE   C3715574   5.244   3.471   9.662 -0.5741 -0.5390  0.8159
  142SAPE   H7X15575   5.206   3.537   9.581 -1.0021  0.4362  1.7869
  142SAPE   H7Y15576   5.164   3.454   9.737 -0.8950 -0.0287  0.5935
  142SAPE   C3815577   5.300   3.335   9.607 -0.6824 -0.3829 -0.5482
  142SAPE   H8X15578   5.209   3.280   9.578 -1.4331 -0.3757  1.6118
  142SAPE   H8Y15579   5.346   3.276   9.690 -0.4870 -0.2671 -0.5723
  142SAPE   C3915580   5.396   3.352   9.490  0.5145 -0.7116  0.6211
  142SAPE   H9X15581   5.494   3.387   9.526  1.2731 -1.0051 -1.0665
  142SAPE   H9Y15582   5.347   3.426   9.423 -1.0647 -1.1317  1.2631
  142SAPE  C31015583   5.421   3.217   9.420  1.3023  0.0744  0.3929
  142SAPE  H10X15584   5.327   3.189   9.369 -0.3063  3.2404  1.3632
  142SAPE  H10Y15585   5.439   3.140   9.498 -0.0923  0.2674  0.9184
  142SAPE  C31115586   5.530   3.220   9.319 -1.0074  1.0781  0.0547
  142SAPE  H11X15587   5.633   3.199   9.353 -0.9585  0.7126 -0.3207
  142SAPE  H11Y15588   5.531   3.318   9.266 -0.9422  1.7071  1.1971
  142SAPE  C31215589   5.505   3.112   9.210 -0.5355 -0.5485 -0.1450
  142SAPE  H12X15590   5.406   3.149   9.176  0.6304  0.8938 -2.1857
  142SAPE  H12Y15591   5.491   3.013   9.258 -1.2500  0.5119  1.9614
  142SAPE  C31315592   5.610   3.117   9.102 -0.2535 -1.2261  0.6987
  142SAPE  H13X15593   5.705   3.073   9.138 -0.4655 -2.2603  0.0540
  142SAPE  H13Y15594   5.630   3.223   9.077  3.0978 -1.6961  0.9835
  142SAPE  C31415595   5.578   3.056   8.968  0.6139 -0.4146  0.3663
  142SAPE  H14X15596   5.627   3.090   8.875  2.8214 -2.3258  0.7535
  142SAPE  H14Y15597   5.474   3.078   8.936 -0.1462 -2.8910  0.9361
  142SAPE  C31515598   5.583   2.901   8.980  0.1084 -0.4952 -0.2901
  142SAPE  H15X15599   5.513   2.876   9.063 -0.2671  1.3798 -0.0015
  142SAPE  H15Y15600   5.683   2.872   9.016  0.1459  2.0810  2.0473
  142SAPE  C31615601   5.565   2.817   8.862 -0.1368 -0.3150 -1.3762
  142SAPE  H16X15602   5.636   2.840   8.779 -0.1309  1.1498 -1.0029
  142SAPE  H16Y15603   5.463   2.848   8.832 -0.1551  1.1524  0.0598
  142SAPE  C31715604   5.559   2.671   8.901 -0.1571  0.0227 -0.2131
  142SAPE  H17X15605   5.499   2.660   8.993  1.7473 -1.3351  0.9574
  142SAPE  H17Y15606   5.660   2.633   8.928 -0.3650 -1.1553 -0.9954
  142SAPE  C31815607   5.489   2.577   8.799  0.0740 -0.2532 -0.0333
  142SAPE  H18X15608   5.491   2.475   8.843  0.5932 -0.4525 -0.4984
  142SAPE  H18Y15609   5.543   2.584   8.702  0.1188  2.1345  0.0873
  142SAPE  H18Z15610   5.384   2.607   8.781 -0.7438 -0.3488  3.8664
  143SAPE     N15611   1.021   0.362  11.448 -0.2934 -0.6130 -0.6707
  143SAPE   HN115612   0.955   0.359  11.367 -1.1424 -1.4776  0.0403
  143SAPE   HN215613   0.966   0.322  11.526  0.3841 -2.3189 -1.0099
  143SAPE   HN315614   1.038   0.463  11.465  2.8021 -1.3336  1.2475
  143SAPE   C1215615   1.154   0.302  11.412 -0.3260  0.4441 -0.4090
  143SAPE  H12A15616   1.147   0.192  11.401 -1.6112  0.3192  1.4277
  143SAPE  H12B15617   1.229   0.325  11.491 -0.5422 -0.4743  0.0760
  143SAPE   C1115618   1.208   0.361  11.280  0.0596 -0.4335  0.0268
  143SAPE  H11A15619   1.135   0.328  11.202  0.2742  0.8204 -0.7290
  143SAPE  H11B15620   1.307   0.316  11.259  0.5306  0.9897 -0.9508
  143SAPE     P15621   1.160   0.588  11.157 -0.2991  0.2181 -0.1120
  143SAPE   O1315622   1.022   0.542  11.126  0.0880 -0.1530 -0.7586
  143SAPE   O1415623   1.191   0.732  11.169 -0.5943  0.5952 -0.1190
  143SAPE   O1215624   1.220   0.508  11.282  0.2237  0.0275  0.0909
  143SAPE   O1115625   1.257   0.541  11.041  0.6838  0.9289 -0.1949
  143SAPE    C115626   1.400   0.542  11.075 -0.2777  0.1820  0.0452
  143SAPE    HA15627   1.440   0.643  11.100  2.3178 -0.3776 -1.4479
  143SAPE    HB15628   1.427   0.487  11.167  0.3713  4.2176  2.5423
  143SAPE    C215629   1.490   0.499  10.955 -0.2955  0.5296  0.4277
  143SAPE    HS15630   1.584   0.459  10.997 -0.4235 -0.1218  0.1016
  143SAPE   O2115631   1.505   0.610  10.864 -0.0263 -0.0102 -0.1635
  143SAPE   C2115632   1.593   0.702  10.884 -0.0403 -0.9299  0.1805
  143SAPE   O2215633   1.651   0.733  10.989 -0.0185  0.1753  0.0095
  143SAPE   C2215634   1.620   0.781  10.751 -0.1660 -0.1929  0.1493
  143SAPE   H2R15635   1.518   0.807  10.717 -0.0094  0.0627 -0.1224
  143SAPE   H2S15636   1.665   0.880  10.772 -0.1924 -0.1821  0.1557
  143SAPE    C315637   1.424   0.378  10.881  0.7829  0.1495 -0.1149
  143SAPE    HX15638   1.351   0.432  10.817 -1.7102 -0.9119  1.6856
  143SAPE    HY15639   1.389   0.304  10.955 -2.3786  1.9895  0.3870
  143SAPE   O3115640   1.531   0.312  10.804  0.4036  0.0298  0.3446
  143SAPE   C3115641   1.486   0.243  10.697  0.1527 -0.0409  0.9506
  143SAPE   O3215642   1.372   0.236  10.654  0.3420 -0.6184 -0.2154
  143SAPE   C3215643   1.615   0.205  10.606  0.3360  0.8863 -0.1890
  143SAPE   H2X15644   1.682   0.141  10.666  2.5485 -0.2463 -3.5802
  143SAPE   H2Y15645   1.670   0.300  10.586  0.1367  1.0833  0.1900
  143SAPE   C2315646   1.703   0.706  10.644 -0.7915  0.5430  0.1821
  143SAPE   H3R15647   1.653   0.609  10.619 -0.3544  0.7776 -1.7409
  143SAPE   H3S15648   1.801   0.682  10.691 -0.6458  0.5585 -0.1138
  143SAPE   C2415649   1.731   0.767  10.511  0.7842 -0.3917 -0.0731
  143SAPE   H4R15650   1.632   0.761  10.459  0.5868  1.4874  0.0243
  143SAPE   H4S15651   1.800   0.700  10.454 -1.6784 -2.6223 -0.6556
  143SAPE   C2515652   1.779   0.908  10.517  0.2322 -0.2474  0.3003
  143SAPE   H5R15653   1.850   0.936  10.596  0.9962  0.6077 -0.6733
  143SAPE   C2615654   1.733   1.004  10.434 -0.2518 -0.3772 -0.1439
  143SAPE   H6R15655   1.764   1.107  10.458 -1.1384  0.4206 -2.2304
  143SAPE   C2715656   1.630   0.996  10.324 -0.7333 -0.4434  0.1940
  143SAPE   H7R15657   1.544   1.057  10.358 -0.5898 -0.2009  0.1286
  143SAPE   H7S15658   1.592   0.892  10.314  0.1725 -0.6647 -1.3639
  143SAPE   C2815659   1.679   1.050  10.193 -0.2712 -0.3516  0.1423
  143SAPE   H8R15660   1.778   1.097  10.198 -0.3111  0.3466 -3.3781
  143SAPE   C2915661   1.619   1.020  10.073  0.5584 -1.3452 -1.1632
  143SAPE   H9R15662   1.656   1.064   9.979  1.1245  2.5403  0.6731
  143SAPE  C21015663   1.493   0.940  10.057  0.1027 -0.1912  0.0746
  143SAPE  H10R15664   1.419   1.018  10.027  1.7864  1.2609 -0.4434
  143SAPE  H10S15665   1.470   0.888  10.153  1.9900  0.9093  1.1779
  143SAPE  C21115666   1.492   0.846   9.941 -0.5795  0.3156  0.7417
  143SAPE  H11R15667   1.439   0.867   9.847 -2.5727 -4.0652  0.6280
  143SAPE  C21215668   1.541   0.724   9.945 -0.0394 -0.6739  0.9311
  143SAPE  H12R15669   1.545   0.662   9.854  2.3074  0.6986  0.0158
  143SAPE  C21315670   1.602   0.658  10.065 -0.2916 -0.2919 -0.6559
  143SAPE  H13R15671   1.536   0.677  10.153  2.1774  1.1915  1.0146
  143SAPE  H13S15672   1.684   0.722  10.103 -1.3682  0.5126  0.4287
  143SAPE  C21415673   1.639   0.509  10.061 -0.7619 -0.4344  0.6967
  143SAPE  H14R15674   1.562   0.431  10.058  0.2076 -1.4297 -1.8477
  143SAPE  C21515675   1.765   0.468  10.068 -0.0667  0.3779  0.2088
  143SAPE  H15R15676   1.775   0.359  10.075 -2.4827  0.0252 -0.8913
  143SAPE  C21615677   1.886   0.559  10.075  0.9455  0.5811  0.0207
  143SAPE  H16R15678   1.862   0.663  10.046 -1.9113  0.0669  0.1874
  143SAPE  H16S15679   1.964   0.524  10.004 -0.4972  0.3596 -1.5188
  143SAPE  C21715680   1.941   0.553  10.217 -0.1710 -0.2960  0.5079
  143SAPE  H17R15681   1.856   0.584  10.281 -0.6003  0.8096 -0.5616
  143SAPE  H17S15682   2.018   0.633  10.210  0.9565 -1.3801  0.2195
  143SAPE  C21815683   2.003   0.423  10.266  0.0351 -0.4017 -0.0975
  143SAPE  H18R15684   2.091   0.391  10.206 -0.5732 -0.1416 -1.1570
  143SAPE  H18S15685   1.931   0.339  10.253  0.8548 -0.9392 -1.3576
  143SAPE  C21915686   2.067   0.439  10.406 -0.9297  0.3040  0.5199
  143SAPE  H19R15687   2.148   0.515  10.404 -1.5657  1.0265 -1.8947
  143SAPE  H19S15688   2.107   0.341  10.438  0.8785  1.2972  1.5329
  143SAPE  C22015689   1.966   0.485  10.516  0.4586 -0.1123  0.4527
  143SAPE  H20R15690   1.951   0.595  10.508  0.1351 -0.2409 -1.0390
  143SAPE  H20S15691   2.003   0.479  10.620 -0.7022  2.8273  1.1319
  143SAPE  H20T15692   1.878   0.418  10.504 -0.3818  1.1108 -0.6160
  143SAPE   C3315693   1.583   0.137  10.477 -0.4077  0.2615  0.2074
  143SAPE   H3X15694   1.521   0.204  10.414 -0.2642  2.4593  2.2274
  143SAPE   H3Y15695   1.520   0.046  10.492 -0.6860  0.3504 -0.3762
  143SAPE   C3415696   1.710   0.083  10.405 -0.3689  0.2393 -0.1531
  143SAPE   H4X15697   1.776   0.031  10.477 -2.1072 -3.0320 -0.7178
  143SAPE   H4Y15698   1.776   0.163  10.365  2.8371 -2.5135 -0.8015
  143SAPE   C3515699   1.674  -0.005  10.288 -0.1625  0.4680  0.4169
  143SAPE   H5X15700   1.624   0.057  10.210  1.9437  1.3999 -0.2638
  143SAPE   H5Y15701   1.602  -0.083  10.320 -0.0571  0.5414  0.8285
  143SAPE   C3615702   1.800  -0.059  10.225 -0.0327  1.1905 -0.2875
  143SAPE   H6X15703   1.761  -0.124  10.143 -4.0140  3.0770 -0.1026
  143SAPE   H6Y15704   1.853  -0.124  10.297 -1.0546 -0.1138 -0.6682
  143SAPE   C3715705   1.890   0.044  10.166 -0.4484 -0.7303  0.3917
  143SAPE   H7X15706   1.961   0.102  10.229 -2.7258  1.3486  1.1761
  143SAPE   H7Y15707   1.829   0.132  10.137  2.4577  2.0148  1.9987
  143SAPE   C3815708   1.960   0.000  10.027 -0.0803  0.3945 -0.3083
  143SAPE   H8X15709   1.923  -0.098   9.992 -0.2350  0.6720 -0.9469
  143SAPE   H8Y15710   2.066  -0.006  10.061 -0.6725  2.4889  2.1981
  143SAPE   C3915711   1.926   0.094   9.914  0.0771  0.2773 -0.6112
  143SAPE   H9X15712   1.974   0.191   9.936  3.9993 -1.3032 -1.2759
  143SAPE   H9Y15713   1.815   0.097   9.913 -0.0025  0.2801  1.9355
  143SAPE  C31015714   1.966   0.060   9.770 -0.1238 -0.1406 -0.0849
  143SAPE  H10X15715   1.919  -0.037   9.740 -0.4944 -1.4429  4.0939
  143SAPE  H10Y15716   2.075   0.041   9.773 -0.2022 -0.7933 -0.9776
  143SAPE  C31115717   1.953   0.175   9.671  0.4805 -0.1268  0.5394
  143SAPE  H11X15718   2.012   0.264   9.700 -0.2850  0.5628  0.0319
  143SAPE  H11Y15719   1.848   0.199   9.644  0.1692 -0.4489  1.4582
  143SAPE  C31215720   2.019   0.140   9.531  0.1754  0.6249  0.0019
  143SAPE  H12X15721   1.974   0.044   9.497 -3.2633  2.5774 -1.4467
  143SAPE  H12Y15722   2.125   0.115   9.552 -0.4581 -0.8983  1.7085
  143SAPE  C31315723   2.000   0.252   9.433 -0.5183  0.3995 -0.2568
  143SAPE  H13X15724   2.061   0.337   9.471 -0.5388  0.0688  0.5384
  143SAPE  H13Y15725   1.899   0.298   9.435 -0.7458 -0.0640 -0.6355
  143SAPE  C31415726   2.041   0.218   9.293  0.2935  0.2883  0.6580
  143SAPE  H14X15727   2.116   0.135   9.289 -0.0078 -0.0100  1.1536
  143SAPE  H14Y15728   2.085   0.304   9.239 -0.6324  1.3372  1.5455
  143SAPE  C31515729   1.914   0.179   9.210  0.5540  0.0969 -0.3938
  143SAPE  H15X15730   1.849   0.269   9.206  0.7924  0.5218  2.5497
  143SAPE  H15Y15731   1.856   0.110   9.276  1.7840  1.2048  1.9607
  143SAPE  C31615732   1.940   0.114   9.070  0.8472 -0.1878 -0.1945
  143SAPE  H16X15733   1.983   0.188   8.999 -0.0581  0.6910  0.1482
  143SAPE  H16Y15734   1.841   0.079   9.036  0.1023 -0.4635  2.0677
  143SAPE  C31715735   2.032  -0.010   9.083  0.5454  0.0767  0.2979
  143SAPE  H17X15736   2.131   0.035   9.104 -0.2956  1.9680  0.3649
  143SAPE  H17Y15737   2.040  -0.058   8.983  1.2008 -2.0316  1.2997
  143SAPE  C31815738   1.981  -0.125   9.172  0.3738 -0.3328  0.2524
  143SAPE  H18X15739   2.026  -0.225   9.156  2.4082  0.0177  3.0033
  143SAPE  H18Y15740   1.873  -0.134   9.148 -0.0329  0.3498  1.7062
  143SAPE  H18Z15741   1.995  -0.100   9.280  1.0651 -2.5235  0.7228
  144SAPE     N15742   0.879   0.403  10.941 -0.3167 -0.3007  0.6200
  144SAPE   HN115743   0.907   0.475  11.011 -2.0656  1.2365 -0.1419
  144SAPE   HN215744   0.792   0.441  10.897  0.5807  0.4886 -0.5315
  144SAPE   HN315745   0.864   0.305  10.971 -1.4451 -0.0480  0.9404
  144SAPE   C1215746   0.996   0.390  10.848  1.3632 -0.1675 -0.6336
  144SAPE  H12A15747   1.090   0.423  10.897  1.3452 -2.1327  0.8711
  144SAPE  H12B15748   0.973   0.444  10.754 -1.2382 -1.2305 -0.7030
  144SAPE   C1115749   1.010   0.239  10.807 -0.4108 -0.7648  0.2047
  144SAPE  H11A15750   1.107   0.231  10.754 -1.7445 -1.6173 -2.2748
  144SAPE  H11B15751   0.942   0.200  10.728  1.7897 -2.0663 -1.1380
  144SAPE     P15752   0.891   0.057  10.953 -0.1446  0.5537  0.3436
  144SAPE   O1315753   0.931  -0.046  11.051  0.1486 -0.1661 -0.0612
  144SAPE   O1415754   0.779   0.144  10.989  0.6619  0.3076  0.6032
  144SAPE   O1215755   1.010   0.149  10.919  0.0410 -0.0406 -0.1642
  144SAPE   O1115756   0.863  -0.010  10.818  0.1679 -0.0360 -1.0279
  144SAPE    C115757   0.972  -0.082  10.759  0.3918 -0.5134 -0.4277
  144SAPE    HA15758   1.033  -0.011  10.701 -1.4367  0.3267 -1.4113
  144SAPE    HB15759   1.020  -0.149  10.834  1.7838 -1.7431 -2.3494
  144SAPE    C215760   0.920  -0.198  10.667  0.0622 -1.0157 -0.2515
  144SAPE    HS15761   1.014  -0.245  10.630  1.2093  0.3595  0.7889
  144SAPE   O2115762   0.843  -0.135  10.564  0.3204  0.5410  0.4990
  144SAPE   C2115763   0.899  -0.052  10.477  0.9343  0.7806  0.1274
  144SAPE   O2215764   1.019  -0.033  10.470  0.0108 -0.0583 -0.1174
  144SAPE   C2215765   0.787   0.006  10.384  0.1301  0.1981 -0.2103
  144SAPE   H2R15766   0.692  -0.017  10.437  0.9346 -0.7831  0.8776
  144SAPE   H2S15767   0.814   0.112  10.368  0.4621  0.0395 -0.7285
  144SAPE    C315768   0.842  -0.318  10.735 -0.6340  0.1370  0.1708
  144SAPE    HX15769   0.766  -0.274  10.803  0.5022  1.1543  0.8059
  144SAPE    HY15770   0.908  -0.365  10.811 -0.7777 -1.8367 -0.8340
  144SAPE   O3115771   0.781  -0.423  10.655  0.4611 -0.6743  0.5952
  144SAPE   C3115772   0.665  -0.382  10.600 -0.0774  0.6095 -0.2963
  144SAPE   O3215773   0.599  -0.283  10.629 -0.2368  0.1698 -0.1884
  144SAPE   C3215774   0.615  -0.478  10.495  0.0612 -0.2925 -0.0049
  144SAPE   H2X15775   0.571  -0.422  10.409  1.7021 -0.5259 -1.0448
  144SAPE   H2Y15776   0.524  -0.528  10.533 -0.9656  0.4919 -1.3321
  144SAPE   C2315777   0.775  -0.052  10.246 -0.2919 -0.0138  0.0348
  144SAPE   H3R15778   0.679  -0.015  10.205  0.3489  1.0994 -0.4861
  144SAPE   H3S15779   0.761  -0.161  10.262  3.8332 -1.0157 -1.7325
  144SAPE   C2415780   0.893  -0.054  10.159 -0.3586  0.0758 -0.0112
  144SAPE   H4R15781   0.858  -0.121  10.078 -0.1681  0.5737 -0.5133
  144SAPE   H4S15782   0.975  -0.107  10.212 -1.2217 -0.0846  1.1925
  144SAPE   C2515783   0.947   0.081  10.114  0.2216  0.8037  0.3457
  144SAPE   H5R15784   0.944   0.167  10.183 -0.8663  1.0813 -0.0307
  144SAPE   C2615785   1.011   0.093  10.002 -0.4105  0.4967  0.4641
  144SAPE   H6R15786   1.040   0.194   9.968 -0.4247  0.3827  0.0990
  144SAPE   C2715787   1.050  -0.008   9.893  0.2380  0.2944  0.1533
  144SAPE   H7R15788   1.048  -0.109   9.940  0.8472 -0.3692 -1.2074
  144SAPE   H7S15789   1.153   0.013   9.858  0.1180 -1.2922 -1.2735
  144SAPE   C2815790   0.955   0.010   9.781 -1.0892  0.2193  0.0179
  144SAPE   H8R15791   0.860  -0.040   9.807 -1.1978  1.0815  1.3943
  144SAPE   C2915792   0.974   0.064   9.655 -0.3484  0.5987  0.0881
  144SAPE   H9R15793   0.893   0.082   9.582  1.1413 -0.8653 -2.0387
  144SAPE  C21015794   1.102   0.123   9.604 -0.4841 -0.9886 -0.4587
  144SAPE  H10R15795   1.163   0.166   9.686 -1.5845  2.3013 -1.1982
  144SAPE  H10S15796   1.079   0.203   9.530 -0.3972  1.1453  1.7167
  144SAPE  C21115797   1.182   0.025   9.521 -0.6213 -0.2141 -0.7995
  144SAPE  H11R15798   1.178  -0.077   9.564 -1.7310  0.1387 -0.0217
  144SAPE  C21215799   1.250   0.040   9.405 -0.7069  0.1402 -0.7398
  144SAPE  H12R15800   1.312  -0.042   9.366  1.7560  1.7227 -0.3224
  144SAPE  C21315801   1.257   0.161   9.315  0.4069 -0.4798  0.6411
  144SAPE  H13R15802   1.208   0.250   9.359  1.0237  0.4304 -0.4359
  144SAPE  H13S15803   1.180   0.137   9.239 -0.9781  1.7775  1.2300
  144SAPE  C21415804   1.380   0.208   9.245  0.4060 -0.1017 -0.9226
  144SAPE  H14R15805   1.430   0.293   9.293  0.1180 -1.3920  1.8379
  144SAPE  C21515806   1.436   0.143   9.136 -0.3578  0.8937  0.1422
  144SAPE  H15R15807   1.513   0.195   9.076 -0.3408  1.4192  0.6184
  144SAPE  C21615808   1.376   0.019   9.074 -0.1663 -0.3781  0.1248
  144SAPE  H16R15809   1.333  -0.058   9.141 -2.9166  1.2922  0.4246
  144SAPE  H16S15810   1.455  -0.022   9.008 -0.9181  2.5390 -2.8819
  144SAPE  C21715811   1.251   0.044   8.983 -0.3164 -0.1506  0.0788
  144SAPE  H17R15812   1.272   0.090   8.884 -1.1258 -0.9465 -0.4832
  144SAPE  H17S15813   1.178   0.118   9.021  0.2357  0.3854  0.1209
  144SAPE  C21815814   1.176  -0.088   8.956  0.3427  0.8066  0.4050
  144SAPE  H18R15815   1.180  -0.149   9.049 -0.2778  1.4902  0.8867
  144SAPE  H18S15816   1.228  -0.143   8.875 -1.1560 -0.1427  0.0324
  144SAPE  C21915817   1.030  -0.073   8.922 -0.8427 -0.6899  0.5069
  144SAPE  H19R15818   1.026  -0.081   8.811 -2.2970  0.2759  0.4597
  144SAPE  H19S15819   0.982   0.021   8.956  0.2505 -0.2997  1.0040
  144SAPE  C22015820   0.952  -0.188   8.973  0.3713  0.8712 -0.3692
  144SAPE  H20R15821   0.866  -0.211   8.907  0.7773  1.4914 -1.1215
  144SAPE  H20S15822   0.907  -0.175   9.074  2.4232  2.4668  0.4044
  144SAPE  H20T15823   1.005  -0.286   8.970 -0.3129  0.4539  0.5208
  144SAPE   C3315824   0.714  -0.588  10.449  0.0256  0.0307  0.9907
  144SAPE   H3X15825   0.654  -0.669  10.402 -1.0386  0.5049  1.4900
  144SAPE   H3Y15826   0.773  -0.628  10.535  4.5258  3.1804 -0.2685
  144SAPE   C3415827   0.817  -0.531  10.350 -0.4697  0.2387  0.4194
  144SAPE   H4X15828   0.897  -0.603  10.326  0.1441  0.8261  0.6576
  144SAPE   H4Y15829   0.874  -0.444  10.390 -0.8208  2.0135 -2.5989
  144SAPE   C3515830   0.753  -0.481  10.217 -0.2698 -0.2208 -0.2185
  144SAPE   H5X15831   0.689  -0.391  10.228 -0.1347 -0.3112  1.7271
  144SAPE   H5Y15832   0.692  -0.557  10.165 -0.3070 -1.4869  1.5605
  144SAPE   C3615833   0.861  -0.436  10.113  0.4826  0.5418 -0.2164
  144SAPE   H6X15834   0.929  -0.512  10.070  0.5008  1.6629 -2.2993
  144SAPE   H6Y15835   0.926  -0.361  10.164 -1.7554  0.0964  3.6934
  144SAPE   C3715836   0.790  -0.384   9.991 -0.5374 -0.2456  0.6413
  144SAPE   H7X15837   0.842  -0.297   9.945  0.6512 -1.2579  0.0068
  144SAPE   H7Y15838   0.689  -0.341  10.011 -0.4511 -0.0554  0.6714
  144SAPE   C3815839   0.781  -0.483   9.870  0.4837 -0.0692  0.6130
  144SAPE   H8X15840   0.697  -0.551   9.895  0.3064 -0.4617 -0.9551
  144SAPE   H8Y15841   0.876  -0.537   9.849  0.7524  0.6195  0.0196
  144SAPE   C3915842   0.770  -0.404   9.737 -0.1996 -0.2491 -0.0661
  144SAPE   H9X15843   0.856  -0.335   9.728 -0.3245  0.7028  3.8542
  144SAPE   H9Y15844   0.678  -0.342   9.750 -0.0200  0.0213 -0.0637
  144SAPE  C31015845   0.775  -0.501   9.622  0.0275  0.4396  0.2360
  144SAPE  H10X15846   0.701  -0.581   9.645  2.0761 -1.5101  0.4407
  144SAPE  H10Y15847   0.870  -0.558   9.629 -0.8983 -1.1278  0.5483
  144SAPE  C31115848   0.764  -0.431   9.490  0.5261  0.4765 -0.2065
  144SAPE  H11X15849   0.850  -0.361   9.484  1.5435 -0.8080 -1.6480
  144SAPE  H11Y15850   0.671  -0.371   9.493  0.4725  0.4031 -0.3794
  144SAPE  C31215851   0.768  -0.521   9.367 -0.0835 -0.0627 -0.3526
  144SAPE  H12X15852   0.689  -0.594   9.398  0.2293 -0.6548 -0.9305
  144SAPE  H12Y15853   0.862  -0.580   9.372 -0.7498 -1.2294 -0.9938
  144SAPE  C31315854   0.744  -0.442   9.233 -0.4830  0.1729  0.1365
  144SAPE  H13X15855   0.829  -0.372   9.221 -0.8537  0.7355  0.7107
  144SAPE  H13Y15856   0.645  -0.393   9.249  0.4298  1.7263  1.3918
  144SAPE  C31415857   0.737  -0.554   9.128 -0.1573  0.0545  0.4428
  144SAPE  H14X15858   0.651  -0.620   9.151  0.7758 -1.2901  0.1946
  144SAPE  H14Y15859   0.827  -0.615   9.147 -1.4949 -1.6455  1.5931
  144SAPE  C31515860   0.724  -0.517   8.986  0.3743 -0.8211  0.7081
  144SAPE  H15X15861   0.818  -0.469   8.950 -0.5499  1.6245  1.3116
  144SAPE  H15Y15862   0.635  -0.452   8.972  1.0700  0.3328  1.4518
  144SAPE  C31615863   0.713  -0.641   8.890 -0.5456 -0.3521  0.4116
  144SAPE  H16X15864   0.610  -0.682   8.906  0.7092 -3.4575  1.3745
  144SAPE  H16Y15865   0.798  -0.710   8.907  0.9189  1.5983  1.3770
  144SAPE  C31715866   0.725  -0.587   8.748  0.3486 -0.2514  0.3546
  144SAPE  H17X15867   0.828  -0.555   8.725  0.2993 -1.4380 -1.7776
  144SAPE  H17Y15868   0.654  -0.502   8.745 -3.2305 -3.0119 -0.2889
  144SAPE  C31815869   0.683  -0.701   8.649 -0.0630  0.1643 -0.1494
  144SAPE  H18X15870   0.586  -0.744   8.681  1.2050 -1.8402  1.1729
  144SAPE  H18Y15871   0.764  -0.777   8.651 -2.0136 -1.9805  0.6962
  144SAPE  H18Z15872   0.689  -0.657   8.547 -3.0724 -3.2102 -1.9982
  145SAPE     N15873   2.850   1.391  11.182 -0.1596  0.4662  0.6394
  145SAPE   HN115874   2.760   1.388  11.130 -0.0834 -2.4215  0.4735
  145SAPE   HN215875   2.887   1.295  11.168 -1.6666 -0.1392  0.5373
  145SAPE   HN315876   2.829   1.389  11.284 -1.0460  0.8556  0.4718
  145SAPE   C1215877   2.950   1.502  11.168 -0.0013 -0.7945 -0.1308
  145SAPE  H12A15878   3.052   1.459  11.158  0.9445  1.4358 -0.6068
  145SAPE  H12B15879   2.943   1.561  11.263 -0.4145 -0.4945 -0.3430
  145SAPE   C1115880   2.918   1.593  11.049  0.2644 -0.2694  0.2987
  145SAPE  H11A15881   2.819   1.640  11.063 -0.2011  0.3570 -3.8160
  145SAPE  H11B15882   2.923   1.536  10.954  3.4000  0.0641  0.1308
  145SAPE     P15883   3.001   1.846  11.063  0.1643  0.6394 -0.0289
  145SAPE   O1315884   2.924   1.861  11.186  0.2263  0.0915 -0.2463
  145SAPE   O1415885   3.124   1.926  11.053 -0.1393  0.0432  0.2704
  145SAPE   O1215886   3.028   1.691  11.038 -0.5236 -0.4681 -0.3827
  145SAPE   O1115887   2.893   1.877  10.938 -0.1203  0.3639 -0.3558
  145SAPE    C115888   2.935   1.903  10.806  0.7918 -0.1801 -0.3249
  145SAPE    HA15889   2.948   2.013  10.799 -1.6995  0.2583  0.8530
  145SAPE    HB15890   3.034   1.859  10.784  0.8777 -1.6713  2.5822
  145SAPE    C215891   2.838   1.842  10.704  0.4911 -0.3769  0.6625
  145SAPE    HS15892   2.740   1.894  10.700  0.0276 -1.3030 -0.7689
  145SAPE   O2115893   2.823   1.703  10.714 -0.3167  0.1270  0.1459
  145SAPE   C2115894   2.714   1.653  10.765  0.0884 -0.2641 -0.1004
  145SAPE   O2215895   2.629   1.719  10.824 -0.6492  0.3317  0.0666
  145SAPE   C2215896   2.719   1.503  10.754 -0.1175  0.0489 -0.6751
  145SAPE   H2R15897   2.797   1.485  10.677  0.2927 -0.5710 -0.1185
  145SAPE   H2S15898   2.740   1.451  10.849  0.4448 -0.7781 -1.2367
  145SAPE    C315899   2.891   1.873  10.565 -0.0833  0.6944 -0.4687
  145SAPE    HX15900   2.998   1.847  10.578 -0.2927 -0.9730 -1.7334
  145SAPE    HY15901   2.877   1.982  10.550  0.7511  1.0852  1.3158
  145SAPE   O3115902   2.827   1.798  10.462 -0.4995  0.0858  0.5484
  145SAPE   C3115903   2.811   1.863  10.346  0.2897  0.5506 -0.7645
  145SAPE   O3215904   2.854   1.969  10.310 -0.1377  0.1014 -0.0559
  145SAPE   C3215905   2.693   1.782  10.279  0.0540 -0.1165 -0.0245
  145SAPE   H2X15906   2.612   1.857  10.264  1.0240  1.3586  1.7409
  145SAPE   H2Y15907   2.654   1.715  10.358 -0.5279  0.8666  0.5466
  145SAPE   C2315908   2.586   1.451  10.711  0.1435  0.8759  0.0600
  145SAPE   H3R15909   2.502   1.506  10.760 -2.2026 -2.5200  0.2369
  145SAPE   H3S15910   2.570   1.343  10.733 -2.5144  1.3191  0.7235
  145SAPE   C2415911   2.562   1.477  10.563 -0.1260  0.9230  0.1096
  145SAPE   H4R15912   2.583   1.584  10.542  0.1797  0.7410 -0.5509
  145SAPE   H4S15913   2.453   1.464  10.548  0.0294 -1.7391  0.7901
  145SAPE   C2515914   2.643   1.397  10.469 -0.3288 -0.8982  0.7461
  145SAPE   H5R15915   2.748   1.380  10.499  0.6117  1.8088 -0.6948
  145SAPE   C2615916   2.600   1.364  10.343  0.2664 -0.2311  0.4920
  145SAPE   H6R15917   2.678   1.315  10.282 -0.0746  1.5543 -1.5074
  145SAPE   C2715918   2.466   1.394  10.275  0.0227  0.3438  0.2643
  145SAPE   H7R15919   2.485   1.490  10.223  1.4309 -0.2932 -0.4267
  145SAPE   H7S15920   2.380   1.399  10.345  0.7773 -1.7838  1.4189
  145SAPE   C2815921   2.422   1.298  10.163  0.6777  0.2327 -0.7073
  145SAPE   H8R15922   2.414   1.192  10.192  1.3223 -0.2413 -2.1800
  145SAPE   C2915923   2.396   1.334  10.037 -0.1625  0.3723  0.0353
  145SAPE   H9R15924   2.350   1.255   9.975  0.1395  1.0151 -1.0463
  145SAPE  C21015925   2.395   1.464   9.972  0.1261 -0.2018  0.3377
  145SAPE  H10R15926   2.504   1.473   9.953  0.5665 -0.1343  2.6433
  145SAPE  H10S15927   2.356   1.542  10.041 -1.7114 -1.3711  0.6938
  145SAPE  C21115928   2.311   1.499   9.852 -0.4445 -0.6027 -0.0032
  145SAPE  H11R15929   2.225   1.563   9.878  0.8867  0.3027  2.5225
  145SAPE  C21215930   2.325   1.459   9.730 -0.9830 -0.4084  0.4381
  145SAPE  H12R15931   2.260   1.497   9.650 -0.5584 -3.7592 -1.7246
  145SAPE  C21315932   2.431   1.367   9.669  0.6312  0.3022 -0.6203
  145SAPE  H13R15933   2.424   1.267   9.717  1.0279  0.6244  0.1233
  145SAPE  H13S15934   2.527   1.414   9.700  1.5737 -0.5000 -2.1907
  145SAPE  C21415935   2.427   1.338   9.525 -0.2455  0.1326 -0.1368
  145SAPE  H14R15936   2.507   1.384   9.466  0.1797 -0.5658 -0.1232
  145SAPE  C21515937   2.325   1.282   9.452 -0.0835 -0.1038 -0.0964
  145SAPE  H15R15938   2.338   1.284   9.343  0.6094  2.2101 -0.0211
  145SAPE  C21615939   2.193   1.233   9.508 -0.1031  0.2295  0.1537
  145SAPE  H16R15940   2.195   1.234   9.619 -0.4394 -2.5279  0.2582
  145SAPE  H16S15941   2.177   1.128   9.474  1.4000  0.9381 -3.1465
  145SAPE  C21715942   2.071   1.318   9.462  0.0845 -0.2272  0.3089
  145SAPE  H17R15943   2.072   1.417   9.512  1.4928 -0.6703  1.2268
  145SAPE  H17S15944   1.979   1.275   9.507 -0.2531  0.4536  0.2631
  145SAPE  C21815945   2.062   1.345   9.311  0.3152 -0.4860 -0.7121
  145SAPE  H18R15946   2.140   1.399   9.254 -1.9365  1.2803 -2.2868
  145SAPE  H18S15947   1.968   1.404   9.302 -0.9142 -1.8956  1.7725
  145SAPE  C21915948   2.037   1.213   9.222 -0.0857  0.4476 -0.5514
  145SAPE  H19R15949   2.010   1.134   9.296  1.6073  0.2631 -0.0886
  145SAPE  H19S15950   2.128   1.175   9.170 -0.1285 -0.8811  0.2893
  145SAPE  C22015951   1.928   1.216   9.112 -0.0752 -0.4860  0.5775
  145SAPE  H20R15952   1.956   1.293   9.036  2.1130 -0.3483  1.4430
  145SAPE  H20S15953   1.827   1.234   9.155 -1.6250 -3.3334 -1.4962
  145SAPE  H20T15954   1.920   1.112   9.073 -0.1577 -0.5637  0.8025
  145SAPE   C3315955   2.725   1.703  10.149 -0.1122  0.5021  0.3064
  145SAPE   H3X15956   2.634   1.651  10.114  0.7065 -0.7497 -0.0206
  145SAPE   H3Y15957   2.794   1.617  10.162 -1.8987 -0.9769  0.4180
  145SAPE   C3415958   2.761   1.799  10.038  0.3729 -0.0446 -0.6593
  145SAPE   H4X15959   2.854   1.851  10.070 -0.6377  1.9049 -0.7130
  145SAPE   H4Y15960   2.673   1.867  10.027 -1.2299 -1.9992 -0.4764
  145SAPE   C3515961   2.773   1.725   9.911 -0.5681 -0.4950 -0.5628
  145SAPE   H5X15962   2.689   1.652   9.900  0.8962 -2.7263  1.9758
  145SAPE   H5Y15963   2.869   1.670   9.915 -1.1615 -1.7242 -1.9852
  145SAPE   C3615964   2.781   1.815   9.785  0.3461  0.0442  1.2002
  145SAPE   H6X15965   2.884   1.854   9.770 -0.2899  1.4120  0.1334
  145SAPE   H6Y15966   2.719   1.907   9.798 -1.4933 -0.9191 -0.1846
  145SAPE   C3715967   2.734   1.739   9.659 -0.0916  0.1297  0.5185
  145SAPE   H7X15968   2.630   1.700   9.670 -1.8559  3.8768 -1.2345
  145SAPE   H7Y15969   2.809   1.659   9.643 -0.0154 -0.0641  1.7171
  145SAPE   C3815970   2.746   1.829   9.534  0.1602 -0.6599  0.0928
  145SAPE   H8X15971   2.844   1.878   9.547  0.4449 -0.2858 -2.8423
  145SAPE   H8Y15972   2.660   1.901   9.531  2.2700  1.9919 -0.4699
  145SAPE   C3915973   2.744   1.735   9.406 -0.3917 -0.0903  0.1659
  145SAPE   H9X15974   2.800   1.641   9.422 -1.6032 -0.6023  1.5577
  145SAPE   H9Y15975   2.794   1.781   9.318  0.3476 -0.7169  0.2497
  145SAPE  C31015976   2.599   1.705   9.372 -0.0292 -0.1276  0.4349
  145SAPE  H10X15977   2.549   1.803   9.358  0.2758 -0.0499 -0.1379
  145SAPE  H10Y15978   2.549   1.645   9.451 -1.9031  1.0716  0.2225
  145SAPE  C31115979   2.592   1.631   9.244  0.1570 -0.3920  0.5194
  145SAPE  H11X15980   2.646   1.536   9.261  3.9851  1.8950  2.5292
  145SAPE  H11Y15981   2.644   1.691   9.166  1.0824 -0.6829  0.9085
  145SAPE  C31215982   2.443   1.611   9.209  0.0587 -0.2855 -0.3859
  145SAPE  H12X15983   2.400   1.708   9.178 -1.9421 -0.9033  0.3465
  145SAPE  H12Y15984   2.390   1.560   9.292 -0.0382  0.5669  0.0875
  145SAPE  C31315985   2.426   1.536   9.072  0.8807 -0.7606 -0.3697
  145SAPE  H13X15986   2.486   1.590   8.995  2.5549 -1.8681  0.1093
  145SAPE  H13Y15987   2.318   1.540   9.047  1.4865 -1.5855 -3.6496
  145SAPE  C31415988   2.465   1.391   9.077 -0.2495  0.1604 -0.1039
  145SAPE  H14X15989   2.466   1.347   9.179  0.3309 -1.2229 -0.6875
  145SAPE  H14Y15990   2.565   1.386   9.030 -1.0927  1.1434 -2.1223
  145SAPE  C31515991   2.370   1.302   9.003 -0.3190  0.1645 -0.1250
  145SAPE  H15X15992   2.347   1.345   8.904  1.5850  1.8783  0.0971
  145SAPE  H15Y15993   2.272   1.296   9.054  0.0482 -0.9977  0.4873
  145SAPE  C31615994   2.421   1.150   8.987  0.3014 -0.0789  0.2899
  145SAPE  H16X15995   2.488   1.114   9.069 -0.7012 -0.4644  0.9637
  145SAPE  H16Y15996   2.482   1.152   8.895 -0.5752  2.9581 -0.3305
  145SAPE  C31715997   2.305   1.045   8.959 -0.4986  0.0085 -0.5059
  145SAPE  H17X15998   2.257   1.013   9.054 -0.6991  0.0608 -0.5892
  145SAPE  H17Y15999   2.339   0.950   8.912 -2.6688 -0.8230 -0.4720
  145SAPE  C31816000   2.197   1.094   8.863  0.0130 -0.6935 -0.3680
  145SAPE  H18X16001   2.157   1.194   8.891  3.4288  0.6780  0.1082
  145SAPE  H18Y16002   2.116   1.018   8.861 -0.0063 -0.7353  1.0151
  145SAPE  H18Z16003   2.248   1.107   8.765  0.1438 -1.6473 -0.4382
  146SAPE     N16004   0.246   0.742  11.166  0.6998  0.3622  0.2829
  146SAPE   HN116005   0.271   0.781  11.073 -0.3336 -1.6845 -0.9124
  146SAPE   HN216006   0.144   0.738  11.184  0.9864 -1.9888  1.8836
  146SAPE   HN316007   0.285   0.798  11.245 -1.0215  0.2160  1.2781
  146SAPE   C1216008   0.299   0.602  11.174 -0.3412  0.4544  0.1419
  146SAPE  H12A16009   0.249   0.534  11.102  1.1670 -3.1885  2.2615
  146SAPE  H12B16010   0.273   0.569  11.277 -1.9034  2.7856  0.5782
  146SAPE   C1116011   0.453   0.584  11.142 -0.6518 -0.4857  0.0644
  146SAPE  H11A16012   0.470   0.476  11.125 -0.3397 -0.1560 -2.0427
  146SAPE  H11B16013   0.509   0.620  11.231 -0.9316 -1.6184  0.7175
  146SAPE     P16014   0.604   0.637  10.926 -0.0241  0.3568 -0.4625
  146SAPE   O1316015   0.731   0.693  10.960  0.4429  0.2057 -0.1552
  146SAPE   O1416016   0.602   0.489  10.921 -0.4798 -0.0381 -0.1212
  146SAPE   O1216017   0.499   0.671  11.032  0.1913 -0.5378 -0.1655
  146SAPE   O1116018   0.545   0.702  10.799 -0.6923  0.1904 -0.0149
  146SAPE    C116019   0.538   0.634  10.671 -0.3396  0.3130  0.3012
  146SAPE    HA16020   0.541   0.525  10.692 -2.2799  0.0992 -0.4079
  146SAPE    HB16021   0.436   0.671  10.647 -0.3803  0.7125  1.0568
  146SAPE    C216022   0.650   0.668  10.570  0.2722 -0.7653  0.6186
  146SAPE    HS16023   0.749   0.632  10.607  0.7016 -1.8006 -1.3900
  146SAPE   O2116024   0.652   0.812  10.555 -0.1089 -0.3375  0.3157
  146SAPE   C2116025   0.758   0.872  10.598 -0.2664 -0.2479  0.1501
  146SAPE   O2216026   0.856   0.824  10.652 -0.5844  0.0264  0.0073
  146SAPE   C2216027   0.750   1.027  10.553  0.2947  0.5690 -0.4435
  146SAPE   H2R16028   0.653   1.032  10.500 -0.3269 -2.2661  0.2690
  146SAPE   H2S16029   0.742   1.090  10.645  0.5860 -0.6520  0.4517
  146SAPE    C316030   0.617   0.602  10.437  0.0112 -0.4632 -0.3647
  146SAPE    HX16031   0.510   0.627  10.420  0.4592  0.2914 -2.3359
  146SAPE    HY16032   0.621   0.493  10.457  0.4621  0.0550  2.8261
  146SAPE   O3116033   0.695   0.654  10.324  0.3955 -0.0974  0.0637
  146SAPE   C3116034   0.814   0.599  10.309  0.0193 -0.4670  0.2897
  146SAPE   O3216035   0.866   0.521  10.387  0.3758 -0.2855  0.1589
  146SAPE   C3216036   0.881   0.646  10.186  0.2772 -0.0249  0.2074
  146SAPE   H2X16037   0.909   0.752  10.204  1.5971  0.0726 -2.0774
  146SAPE   H2Y16038   0.809   0.655  10.102  0.1396  2.0905  0.5151
  146SAPE   C2316039   0.871   1.082  10.469 -0.4421  0.5333 -0.2016
  146SAPE   H3R16040   0.958   1.100  10.537 -1.3212  0.9056  0.8480
  146SAPE   H3S16041   0.851   1.187  10.440  0.9962  1.0690  0.6453
  146SAPE   C2416042   0.896   1.005  10.341 -0.3213  0.1183  1.0467
  146SAPE   H4R16043   0.805   1.022  10.278  1.1687  0.3859 -1.1264
  146SAPE   H4S16044   0.887   0.897  10.365 -0.4841 -0.6124 -1.9295
  146SAPE   C2516045   1.027   1.038  10.272  0.2508 -0.4722 -0.1845
  146SAPE   H5R16046   1.098   1.073  10.349  0.5824 -1.4838 -0.0217
  146SAPE   C2616047   1.053   1.043  10.136  0.4609  0.0915 -0.4193
  146SAPE   H6R16048   1.152   1.071  10.097  0.7323 -1.3996 -0.8623
  146SAPE   C2716049   0.954   1.010  10.030  0.5994  0.1743  0.9088
  146SAPE   H7R16050   0.874   0.944  10.070  0.4556  1.5435  3.0567
  146SAPE   H7S16051   0.997   0.944   9.952 -2.4175 -0.2453 -0.5525
  146SAPE   C2816052   0.896   1.139   9.960 -0.0324 -0.1172  0.1283
  146SAPE   H8R16053   0.948   1.235   9.974 -2.6881  1.3198  0.7816
  146SAPE   C2916054   0.780   1.149   9.889  0.2591  0.0896 -0.2933
  146SAPE   H9R16055   0.761   1.249   9.846 -1.0333  1.0284  2.2403
  146SAPE  C21016056   0.659   1.051   9.858 -0.2827  0.1420 -0.2779
  146SAPE  H10R16057   0.558   1.097   9.860 -0.4640 -0.0958 -2.2696
  146SAPE  H10S16058   0.667   0.986   9.948  1.3339 -2.5132 -2.1791
  146SAPE  C21116059   0.689   0.947   9.751  0.0732 -0.3743 -0.0827
  146SAPE  H11R16060   0.714   0.845   9.784  1.4947 -0.8802 -2.4541
  146SAPE  C21216061   0.681   0.962   9.620  0.3052  0.6618 -0.1530
  146SAPE  H12R16062   0.689   0.886   9.541  0.3027  0.4198  0.0794
  146SAPE  C21316063   0.639   1.092   9.568  0.6184  0.1791  0.8502
  146SAPE  H13R16064   0.714   1.167   9.599  0.0386  1.0146  0.2906
  146SAPE  H13S16065   0.549   1.129   9.622  0.4708  3.5355 -1.3648
  146SAPE  C21416066   0.635   1.107   9.419  0.2535 -0.3185 -0.1293
  146SAPE  H14R16067   0.534   1.124   9.379 -0.1494 -0.4811  0.7758
  146SAPE  C21516068   0.740   1.112   9.337  0.3584 -0.2462 -0.2363
  146SAPE  H15R16069   0.727   1.130   9.229 -0.2696 -1.4498 -0.3829
  146SAPE  C21616070   0.892   1.114   9.381 -0.3958 -0.5605  0.4702
  146SAPE  H16R16071   0.951   1.040   9.323 -1.1602 -0.1483 -0.8887
  146SAPE  H16S16072   0.901   1.060   9.477  1.3697 -0.4644  0.3975
  146SAPE  C21716073   0.954   1.254   9.380 -0.8441 -0.6207  0.4206
  146SAPE  H17R16074   0.968   1.295   9.482  0.4613  1.4250 -0.5164
  146SAPE  H17S16075   0.879   1.329   9.347 -2.8038 -1.3520  2.9033
  146SAPE  C21816076   1.097   1.262   9.317 -0.2121  0.9252 -1.0407
  146SAPE  H18R16077   1.107   1.236   9.209  0.8888 -1.1610 -0.4867
  146SAPE  H18S16078   1.164   1.192   9.371 -0.8144  0.2029 -1.1970
  146SAPE  C21916079   1.164   1.399   9.319 -0.5517 -0.7858 -0.0220
  146SAPE  H19R16080   1.264   1.379   9.274  0.1955  0.3413  1.1031
  146SAPE  H19S16081   1.173   1.439   9.422  2.2715 -0.0843 -0.4585
  146SAPE  C22016082   1.100   1.499   9.225  0.4112 -0.5200 -0.2840
  146SAPE  H20R16083   1.095   1.454   9.123  0.6602 -0.6977 -0.2206
  146SAPE  H20S16084   1.170   1.585   9.227  0.9433 -0.9607  1.1755
  146SAPE  H20T16085   0.995   1.519   9.253 -0.4046 -0.5675 -2.9972
  146SAPE   C3316086   1.018   0.570  10.148  0.3235 -0.6134  0.2324
  146SAPE   H3X16087   1.010   0.460  10.140 -0.9112 -0.5678  0.7474
  146SAPE   H3Y16088   1.103   0.593  10.216  0.8576 -0.3474 -0.5055
  146SAPE   C3416089   1.074   0.635  10.013 -0.3237 -0.0570 -0.1668
  146SAPE   H4X16090   1.185   0.648  10.019 -0.4692  1.6928 -0.6649
  146SAPE   H4Y16091   1.030   0.736  10.006  2.9969  1.5344 -0.1947
  146SAPE   C3516092   1.029   0.554   9.890 -0.4473  0.1474 -0.4395
  146SAPE   H5X16093   0.919   0.538   9.889 -0.1836 -2.1621  1.0034
  146SAPE   H5Y16094   1.081   0.456   9.878 -0.7138 -0.2093  1.1012
  146SAPE   C3616095   1.058   0.628   9.753  0.4324 -0.3351  0.4953
  146SAPE   H6X16096   1.140   0.700   9.772 -0.2710  0.9823 -1.1670
  146SAPE   H6Y16097   0.973   0.697   9.730  0.0806  0.0188  2.6526
  146SAPE   C3716098   1.097   0.522   9.649 -0.0583 -0.8196 -0.5028
  146SAPE   H7X16099   1.007   0.465   9.616 -1.3602  1.7425 -1.7030
  146SAPE   H7Y16100   1.172   0.453   9.693  0.8258  1.1141  1.1772
  146SAPE   C3816101   1.152   0.592   9.524 -0.2098 -0.2760 -0.9044
  146SAPE   H8X16102   1.192   0.507   9.465 -0.9433 -2.4843  1.5708
  146SAPE   H8Y16103   1.233   0.657   9.563 -1.2567  0.0052  0.9574
  146SAPE   C3916104   1.050   0.679   9.446  0.2148  0.5240 -0.3813
  146SAPE   H9X16105   1.033   0.785   9.476  3.6462  0.8459  0.7603
  146SAPE   H9Y16106   0.951   0.629   9.437  0.5344  0.0832 -1.7032
  146SAPE  C31016107   1.095   0.677   9.290  0.3360  0.5563 -0.0082
  146SAPE  H10X16108   1.051   0.584   9.249 -0.9086  1.9679 -2.0486
  146SAPE  H10Y16109   1.205   0.669   9.275  0.2048  1.3697 -1.5801
  146SAPE  C31116110   1.025   0.784   9.205 -0.2950  0.2199  0.4076
  146SAPE  H11X16111   1.104   0.862   9.201  1.0954 -1.1816 -0.4354
  146SAPE  H11Y16112   0.930   0.809   9.257  0.7897 -0.2237  2.7161
  146SAPE  C31216113   0.980   0.738   9.069  0.3614 -0.1424  0.0573
  146SAPE  H12X16114   0.875   0.702   9.071  0.5529 -0.7009  1.4593
  146SAPE  H12Y16115   1.035   0.645   9.043  0.3450 -0.2168  0.2798
  146SAPE  C31316116   1.001   0.857   8.970 -0.4952 -0.4636  0.0136
  146SAPE  H13X16117   1.103   0.898   8.987 -1.2565  1.2696  0.6795
  146SAPE  H13Y16118   0.918   0.928   8.992  0.0591  0.0764  0.4012
  146SAPE  C31416119   0.997   0.808   8.824  0.7536 -0.3932  0.6721
  146SAPE  H14X16120   0.910   0.740   8.807 -0.2412  1.0243 -0.1090
  146SAPE  H14Y16121   1.088   0.747   8.807 -1.2825 -3.2315 -0.8858
  146SAPE  C31516122   0.990   0.930   8.738 -0.4276  0.1548  0.1479
  146SAPE  H15X16123   1.074   1.000   8.757 -0.3616 -0.1001  0.8318
  146SAPE  H15Y16124   0.899   0.993   8.741 -3.0337 -3.3145  0.8495
  146SAPE  C31616125   1.007   0.907   8.585  0.7872  0.5083 -0.4251
  146SAPE  H16X16126   0.927   0.838   8.551 -0.6793  2.0818 -0.3103
  146SAPE  H16Y16127   1.098   0.845   8.575  1.0430  0.6674  0.7588
  146SAPE  C31716128   1.010   1.029   8.498 -0.3930  0.0429 -0.2940
  146SAPE  H17X16129   1.087   1.104   8.527  0.4446 -0.1273 -1.9887
  146SAPE  H17Y16130   0.913   1.083   8.505  0.3177  1.3340 -0.1130
  146SAPE  C31816131   1.034   0.994   8.349  0.4255  0.1588  0.3187
  146SAPE  H18X16132   1.014   1.086   8.291 -2.5769  0.3410  1.4770
  146SAPE  H18Y16133   0.953   0.926   8.315 -0.2154 -0.8287  3.4598
  146SAPE  H18Z16134   1.134   0.951   8.325  0.3961  0.7047 -0.8596
  147SAPE     N16135   4.519   4.006   6.002  0.0454 -0.7969 -0.3251
  147SAPE   HN116136   4.556   3.916   6.037  3.1814  0.6826  0.4998
  147SAPE   HN216137   4.490   4.003   5.902 -1.9294  3.0981 -0.0682
  147SAPE   HN316138   4.595   4.076   6.015 -2.4484  1.7740  2.2711
  147SAPE   C1216139   4.399   4.052   6.092  0.0280 -0.1743 -0.2032
  147SAPE  H12A16140   4.342   3.961   6.117 -0.7108  0.7321  1.5342
  147SAPE  H12B16141   4.345   4.134   6.039  1.7974  1.2494  0.0759
  147SAPE   C1116142   4.448   4.107   6.230  0.6506  0.9886 -0.3828
  147SAPE  H11A16143   4.473   4.011   6.280 -2.7736 -0.1034 -0.4934
  147SAPE  H11B16144   4.359   4.141   6.286  1.2510  0.1164  1.1661
  147SAPE     P16145   4.547   4.351   6.192  0.0007 -0.1142 -0.0744
  147SAPE   O1316146   4.673   4.406   6.137 -0.3336 -0.0113  0.1276
  147SAPE   O1416147   4.432   4.364   6.101  0.0673 -0.0635 -0.0172
  147SAPE   O1216148   4.561   4.193   6.222 -0.0449  0.1934 -0.2466
  147SAPE   O1116149   4.507   4.424   6.323 -0.2260 -0.4085  0.3342
  147SAPE    C116150   4.602   4.431   6.429  0.9869  0.4503  0.2241
  147SAPE    HA16151   4.705   4.398   6.404  0.1569 -2.0453 -0.1849
  147SAPE    HB16152   4.602   4.533   6.472  0.2708 -0.5691  2.8374
  147SAPE    C216153   4.563   4.337   6.550 -0.0612 -0.5745  0.7629
  147SAPE    HS16154   4.513   4.248   6.506 -2.3813  0.6667  0.7498
  147SAPE   O2116155   4.473   4.396   6.648  0.1333 -0.2896 -0.0484
  147SAPE   C2116156   4.340   4.391   6.614  0.3597 -0.2358  0.0824
  147SAPE   O2216157   4.289   4.351   6.509 -0.3413  0.0306 -0.3104
  147SAPE   C2216158   4.264   4.452   6.735 -0.6434 -0.0933  0.5990
  147SAPE   H2R16159   4.335   4.501   6.805 -2.9580  2.0255  1.5918
  147SAPE   H2S16160   4.189   4.526   6.702 -2.2434 -0.7792  2.4721
  147SAPE    C316161   4.699   4.281   6.612  0.0378 -0.2618 -0.3841
  147SAPE    HX16162   4.760   4.371   6.635  0.9809 -1.0615  0.3176
  147SAPE    HY16163   4.758   4.232   6.531 -1.1233 -0.5884 -1.0611
  147SAPE   O3116164   4.691   4.201   6.725  0.0036 -0.7472  0.0040
  147SAPE   C3116165   4.641   4.081   6.704 -0.5147  0.2513 -0.1251
  147SAPE   O3216166   4.599   4.042   6.600 -0.4640 -0.7955 -0.4858
  147SAPE   C3216167   4.670   4.001   6.835 -0.5571  0.1882 -0.2659
  147SAPE   H2X16168   4.719   4.076   6.900  2.5998 -1.1508 -0.9139
  147SAPE   H2Y16169   4.755   3.929   6.829  0.2746  0.9144  1.8423
  147SAPE   C2316170   4.177   4.344   6.799  0.4070  0.1964 -0.1155
  147SAPE   H3R16171   4.110   4.296   6.725 -1.2373 -1.1398  2.0951
  147SAPE   H3S16172   4.104   4.386   6.871 -2.7509 -1.0742 -2.3855
  147SAPE   C2416173   4.261   4.241   6.876 -0.2282  0.1778 -0.6322
  147SAPE   H4R16174   4.320   4.179   6.805  0.5202 -1.4807  1.3610
  147SAPE   H4S16175   4.194   4.162   6.918 -0.4471  2.0425  2.8516
  147SAPE   C2516176   4.343   4.314   6.980 -0.4812  0.3468  0.0259
  147SAPE   H5R16177   4.448   4.318   6.949 -1.2135  1.2152 -2.6258
  147SAPE   C2616178   4.296   4.362   7.098 -0.0799  0.4478 -1.4758
  147SAPE   H6R16179   4.362   4.408   7.173 -0.3515 -1.0064 -0.3011
  147SAPE   C2716180   4.147   4.357   7.149 -0.0434 -0.6356 -0.0820
  147SAPE   H7R16181   4.080   4.378   7.063 -1.0623 -0.5563  0.7107
  147SAPE   H7S16182   4.137   4.430   7.232  1.0131  1.2425 -1.5319
  147SAPE   C2816183   4.116   4.220   7.204 -0.7216 -0.3290 -0.5751
  147SAPE   H8R16184   4.077   4.156   7.123 -0.5053  0.4140 -1.2835
  147SAPE   C2916185   4.140   4.179   7.328  0.3727 -0.1300 -0.2700
  147SAPE   H9R16186   4.107   4.079   7.356 -1.3818  0.4281 -0.2294
  147SAPE  C21016187   4.207   4.252   7.441  0.1223  0.0874  0.4100
  147SAPE  H10R16188   4.131   4.294   7.511 -2.1124 -0.7497 -1.3892
  147SAPE  H10S16189   4.257   4.338   7.393  0.1591 -1.6380 -2.9639
  147SAPE  C21116190   4.308   4.168   7.514  0.4788 -1.3553 -0.0971
  147SAPE  H11R16191   4.410   4.185   7.475  1.6088  0.1785  3.1791
  147SAPE  C21216192   4.289   4.104   7.629 -0.3404  0.7018 -0.1693
  147SAPE  H12R16193   4.379   4.068   7.683 -1.2227  0.4605  1.2090
  147SAPE  C21316194   4.164   4.084   7.706 -0.8265 -0.5910 -0.2208
  147SAPE  H13R16195   4.103   4.007   7.654 -1.7251 -0.3778  0.5037
  147SAPE  H13S16196   4.110   4.181   7.707  0.6104  0.2817 -1.7215
  147SAPE  C21416197   4.199   4.048   7.847 -0.5764 -0.1767  0.2898
  147SAPE  H14R16198   4.218   3.942   7.870 -1.5939 -0.3185  0.5196
  147SAPE  C21516199   4.201   4.122   7.960 -0.2886 -0.0868 -0.0808
  147SAPE  H15R16200   4.227   4.080   8.058 -0.9724  0.8546  0.5234
  147SAPE  C21616201   4.185   4.270   7.971 -0.3436  0.3563  0.3500
  147SAPE  H16R16202   4.098   4.308   7.913  1.1824  0.4930 -1.9929
  147SAPE  H16S16203   4.276   4.325   7.939 -1.4917  1.2392 -1.6004
  147SAPE  C21716204   4.148   4.317   8.121  0.3016 -0.5748  1.3886
  147SAPE  H17R16205   4.077   4.242   8.160 -0.4147  0.9082  3.0660
  147SAPE  H17S16206   4.082   4.406   8.115 -0.7956 -1.3958  0.9336
  147SAPE  C21816207   4.261   4.329   8.215 -0.5405 -0.3044 -0.4739
  147SAPE  H18R16208   4.230   4.400   8.295  1.9514  0.5928 -0.1921
  147SAPE  H18S16209   4.345   4.376   8.159  0.2307  0.0812  0.9445
  147SAPE  C21916210   4.310   4.194   8.287  0.0621 -0.0150 -0.4057
  147SAPE  H19R16211   4.364   4.125   8.219  0.3622 -2.4326  2.1109
  147SAPE  H19S16212   4.226   4.135   8.329 -0.2215  1.2900  0.9218
  147SAPE  C22016213   4.403   4.230   8.401  0.9456  0.0779 -0.6688
  147SAPE  H20R16214   4.490   4.276   8.352  0.1928 -1.8127 -4.0759
  147SAPE  H20S16215   4.442   4.149   8.467  1.4856  0.3279 -0.6839
  147SAPE  H20T16216   4.341   4.297   8.465  2.8548  0.6648  0.6396
  147SAPE   C3316217   4.551   3.940   6.908 -0.1354 -0.5175 -0.2175
  147SAPE   H3X16218   4.528   3.842   6.861 -1.4879 -0.5968  0.5584
  147SAPE   H3Y16219   4.461   4.004   6.892  0.4772  0.0564 -1.5288
  147SAPE   C3416220   4.578   3.915   7.054 -0.3396  0.3773 -0.8021
  147SAPE   H4X16221   4.684   3.880   7.049 -0.5663 -1.0281  1.9101
  147SAPE   H4Y16222   4.505   3.843   7.097  0.9691  0.0427  1.0012
  147SAPE   C3516223   4.559   4.044   7.140 -0.2094 -0.1582  0.4753
  147SAPE   H5X16224   4.472   4.103   7.104  0.0020 -0.5741 -0.7452
  147SAPE   H5Y16225   4.650   4.103   7.117  0.1831 -0.4365  1.2598
  147SAPE   C3616226   4.561   3.999   7.289  0.2163  0.1410  0.6912
  147SAPE   H6X16227   4.474   3.936   7.319  1.1646 -1.3371  0.3961
  147SAPE   H6Y16228   4.552   4.090   7.354  1.2388 -0.3530  1.5579
  147SAPE   C3716229   4.687   3.925   7.339  0.1451 -0.3817 -0.0768
  147SAPE   H7X16230   4.772   3.980   7.294 -0.1452  0.8901  0.8840
  147SAPE   H7Y16231   4.699   3.823   7.296  2.1231 -0.4609  0.5543
  147SAPE   C3816232   4.691   3.916   7.495  0.1904 -0.0266 -0.0527
  147SAPE   H8X16233   4.708   4.020   7.532  2.7616  0.1501 -1.4490
  147SAPE   H8Y16234   4.776   3.847   7.515  0.1452 -0.8873 -2.4214
  147SAPE   C3916235   4.568   3.860   7.569  0.3360 -0.1111  0.5755
  147SAPE   H9X16236   4.543   3.764   7.519  0.4273 -0.6527  1.5341
  147SAPE   H9Y16237   4.483   3.932   7.566 -1.0972 -1.7534 -0.7277
  147SAPE  C31016238   4.600   3.824   7.719  0.2972  0.6503  0.2751
  147SAPE  H10X16239   4.655   3.728   7.725  0.1139  0.5202 -0.0705
  147SAPE  H10Y16240   4.502   3.815   7.770  0.2615 -1.2731 -0.0712
  147SAPE  C31116241   4.672   3.940   7.786  0.7400 -1.2551  0.7752
  147SAPE  H11X16242   4.594   4.019   7.779  0.5737 -1.4781 -0.0587
  147SAPE  H11Y16243   4.759   3.968   7.723 -0.4756  0.9558 -0.0564
  147SAPE  C31216244   4.704   3.931   7.928  0.3194  0.2627  0.0735
  147SAPE  H12X16245   4.754   4.026   7.958  0.6868 -0.2230  1.0658
  147SAPE  H12Y16246   4.788   3.859   7.945  1.5775  1.2815 -1.6125
  147SAPE  C31316247   4.583   3.903   8.018 -0.3435 -0.3963  0.1094
  147SAPE  H13X16248   4.554   3.796   8.007  1.2206 -0.8181 -0.2190
  147SAPE  H13Y16249   4.508   3.972   7.972  0.2718  1.6044  1.9437
  147SAPE  C31416250   4.606   3.943   8.164 -0.1426 -0.3468 -0.9204
  147SAPE  H14X16251   4.511   3.972   8.214  0.6972 -0.9740  1.1572
  147SAPE  H14Y16252   4.677   4.028   8.165 -0.3661 -0.1594 -0.9954
  147SAPE  C31516253   4.669   3.829   8.254 -0.0392  0.0302 -0.0555
  147SAPE  H15X16254   4.702   3.874   8.351 -4.2869 -0.8265  2.0291
  147SAPE  H15Y16255   4.758   3.793   8.198  1.2057  1.6207  0.7969
  147SAPE  C31616256   4.588   3.702   8.266 -0.3493  0.8234  0.2659
  147SAPE  H16X16257   4.662   3.619   8.258 -2.1190 -0.6720 -1.8186
  147SAPE  H16Y16258   4.517   3.695   8.181  3.5177 -0.2398 -3.1980
  147SAPE  C31716259   4.516   3.674   8.397  0.6849 -0.4035 -0.3145
  147SAPE  H17X16260   4.587   3.654   8.479 -1.6604  1.2804  2.3135
  147SAPE  H17Y16261   4.449   3.586   8.382 -2.8945  1.7497  1.5603
  147SAPE  C31816262   4.420   3.784   8.440  0.2367  0.0876  0.4192
  147SAPE  H18X16263   4.355   3.748   8.522  0.0569 -0.5625 -0.0089
  147SAPE  H18Y16264   4.357   3.815   8.354  0.6351  1.2936  0.5370
  147SAPE  H18Z16265   4.486   3.869   8.470  0.6716  0.2581 -0.9282
  148SAPE     N16266   2.810   1.981   6.638  0.6291  0.0552 -0.7341
  148SAPE   HN116267   2.845   1.917   6.564  0.9548 -0.3707 -0.2272
  148SAPE   HN216268   2.893   2.009   6.695  1.2491 -0.6588 -1.2612
  148SAPE   HN316269   2.755   1.936   6.715  3.1020 -0.7317  0.7053
  148SAPE   C1216270   2.754   2.111   6.591 -0.0554  0.3781  0.3132
  148SAPE  H12A16271   2.672   2.079   6.524 -0.0203  0.2137  0.3479
  148SAPE  H12B16272   2.832   2.161   6.530 -1.4229  0.7382 -1.1886
  148SAPE   C1116273   2.711   2.200   6.712  0.1643  0.3781 -0.1440
  148SAPE  H11A16274   2.685   2.298   6.667 -0.6279 -0.2948 -1.2175
  148SAPE  H11B16275   2.802   2.217   6.773 -0.8318  0.0101  1.5197
  148SAPE     P16276   2.458   2.148   6.757  0.1497 -0.2829 -0.2859
  148SAPE   O1316277   2.441   2.257   6.658 -0.3172 -0.1508  0.2187
  148SAPE   O1416278   2.408   2.017   6.707 -0.0979  0.2214 -0.5575
  148SAPE   O1216279   2.611   2.145   6.791  0.5922  0.1813 -0.3307
  148SAPE   O1116280   2.387   2.186   6.897 -0.2203  0.1880  0.3979
  148SAPE    C116281   2.476   2.267   6.990 -0.1853 -0.6516 -0.6440
  148SAPE    HA16282   2.561   2.204   7.023 -0.8862 -2.3164 -1.8559
  148SAPE    HB16283   2.515   2.352   6.929  0.5219 -0.4314  0.0936
  148SAPE    C216284   2.394   2.328   7.102  0.1234  0.5502 -0.4072
  148SAPE    HS16285   2.458   2.380   7.177  1.8280 -1.4131 -0.4095
  148SAPE   O2116286   2.328   2.217   7.159 -0.3738  0.6360  0.4205
  148SAPE   C2116287   2.350   2.195   7.285 -0.7440  0.5154 -0.2963
  148SAPE   O2216288   2.443   2.236   7.355  0.1738 -0.8728  0.1397
  148SAPE   C2216289   2.251   2.090   7.334 -0.3728 -0.2025  0.0711
  148SAPE   H2R16290   2.154   2.097   7.281 -0.3753 -0.6106  0.0165
  148SAPE   H2S16291   2.296   1.991   7.309 -0.7567  0.2205 -2.5684
  148SAPE    C316292   2.289   2.432   7.046 -0.1226  0.6030  0.7384
  148SAPE    HX16293   2.243   2.379   6.960  0.4796  2.2635 -0.6495
  148SAPE    HY16294   2.341   2.527   7.020  2.6276 -0.9640  0.1126
  148SAPE   O3116295   2.206   2.462   7.155 -0.2529 -0.0082  0.3861
  148SAPE   C3116296   2.077   2.439   7.136  0.5435  0.0208  0.3290
  148SAPE   O3216297   2.022   2.416   7.030 -0.1300 -0.2498 -0.3052
  148SAPE   C3216298   2.016   2.444   7.274 -0.0797 -0.1031  0.0628
  148SAPE   H2X16299   2.069   2.525   7.328  1.4566 -1.5219  0.7833
  148SAPE   H2Y16300   2.054   2.347   7.313  0.5504  0.2412  0.3155
  148SAPE   C2316301   2.214   2.105   7.486 -0.6272  0.4290 -1.1180
  148SAPE   H3R16302   2.188   2.210   7.509  0.2332  0.2045  1.1932
  148SAPE   H3S16303   2.301   2.069   7.545 -1.2877 -1.1223 -1.0403
  148SAPE   C2416304   2.099   2.004   7.541 -0.4131  0.0003  0.1764
  148SAPE   H4R16305   2.108   2.013   7.651  2.5357  0.9504 -0.0501
  148SAPE   H4S16306   2.123   1.898   7.516 -1.9095 -0.7476  1.7519
  148SAPE   C2516307   1.961   2.028   7.481  0.1304  0.7012  0.1692
  148SAPE   H5R16308   1.946   2.020   7.372  1.8873 -0.2829 -0.0316
  148SAPE   C2616309   1.857   2.068   7.557  0.8890 -0.3455  0.6543
  148SAPE   H6R16310   1.764   2.093   7.505  0.2985 -2.3720  0.6386
  148SAPE   C2716311   1.857   2.091   7.711  0.1490  0.2681 -0.0265
  148SAPE   H7R16312   1.895   2.193   7.732  2.5989 -0.3251 -1.2065
  148SAPE   H7S16313   1.929   2.017   7.753 -0.9568 -1.5174 -1.1412
  148SAPE   C2816314   1.722   2.057   7.766  0.1113 -0.7170  0.2900
  148SAPE   H8R16315   1.632   2.114   7.741  0.6265  0.5180  1.1834
  148SAPE   C2916316   1.701   1.974   7.866  0.1886  0.6783 -0.5008
  148SAPE   H9R16317   1.595   1.973   7.895  0.1498  3.1747 -0.3302
  148SAPE  C21016318   1.801   1.895   7.947  0.3482 -0.3391  0.3599
  148SAPE  H10R16319   1.886   1.863   7.884  0.7633  1.0994  0.1444
  148SAPE  H10S16320   1.745   1.807   7.985  0.7687 -1.2314 -1.0543
  148SAPE  C21116321   1.849   1.989   8.056 -0.5668 -0.1942  0.6134
  148SAPE  H11R16322   1.882   2.090   8.025  2.4487 -1.6996 -1.5342
  148SAPE  C21216323   1.855   1.976   8.187  0.2254 -0.0371  0.0954
  148SAPE  H12R16324   1.895   2.069   8.232  1.1081 -0.2585 -0.2147
  148SAPE  C21316325   1.814   1.855   8.265 -0.4680  0.6269  0.3367
  148SAPE  H13R16326   1.816   1.763   8.203 -0.0341 -1.4753  3.2861
  148SAPE  H13S16327   1.708   1.872   8.291 -1.1522 -0.6920 -1.3838
  148SAPE  C21416328   1.912   1.826   8.376  0.8788 -0.2968  0.1074
  148SAPE  H14R16329   1.866   1.814   8.476 -1.0671 -3.0347 -0.9772
  148SAPE  C21516330   2.041   1.790   8.373 -0.1596 -0.1887  0.2188
  148SAPE  H15R16331   2.095   1.769   8.467 -0.5439  1.2600  0.7950
  148SAPE  C21616332   2.140   1.783   8.251  0.2271  0.2988 -0.1493
  148SAPE  H16R16333   2.232   1.845   8.258  1.1002 -0.9465 -0.2727
  148SAPE  H16S16334   2.093   1.813   8.155  2.1143 -0.7151 -1.4458
  148SAPE  C21716335   2.178   1.637   8.235 -0.4544 -0.3625 -0.0526
  148SAPE  H17R16336   2.087   1.573   8.235 -0.2341 -0.8346 -3.5462
  148SAPE  H17S16337   2.248   1.606   8.315  1.7678  0.5731 -1.5358
  148SAPE  C21816338   2.240   1.619   8.090 -0.5809  0.8883 -0.3280
  148SAPE  H18R16339   2.329   1.681   8.070 -0.7164  0.7981 -1.2867
  148SAPE  H18S16340   2.167   1.660   8.016  1.1916  0.9665 -2.1329
  148SAPE  C21916341   2.274   1.476   8.050  0.4731 -0.0072  0.7854
  148SAPE  H19R16342   2.269   1.474   7.939 -0.4659  0.8915  0.8012
  148SAPE  H19S16343   2.210   1.393   8.086  0.0875 -0.4444 -0.8262
  148SAPE  C22016344   2.408   1.434   8.099 -0.6130  0.2446  0.1492
  148SAPE  H20R16345   2.484   1.489   8.040 -0.9095 -0.7522 -1.2200
  148SAPE  H20S16346   2.427   1.325   8.095  0.3208  0.3164  1.7673
  148SAPE  H20T16347   2.419   1.450   8.208  0.2230 -0.3746  0.1550
  148SAPE   C3316348   1.863   2.455   7.287 -0.6693 -0.3580  0.1890
  148SAPE   H3X16349   1.821   2.380   7.216  0.1521  0.3548 -1.0791
  148SAPE   H3Y16350   1.830   2.556   7.257  1.6815  1.2125  2.4936
  148SAPE   C3416351   1.806   2.417   7.426 -0.1001 -0.6870 -0.5197
  148SAPE   H4X16352   1.840   2.488   7.505  0.9816 -2.5712  0.7857
  148SAPE   H4Y16353   1.832   2.315   7.462  0.2646 -0.4651 -0.1380
  148SAPE   C3516354   1.658   2.429   7.416 -0.1711 -0.1984 -0.9192
  148SAPE   H5X16355   1.616   2.342   7.363  1.2072 -0.5983 -1.3869
  148SAPE   H5Y16356   1.636   2.518   7.353  0.2056  0.5027 -0.0778
  148SAPE   C3616357   1.589   2.428   7.551  0.9213  0.4308 -0.3463
  148SAPE   H6X16358   1.628   2.342   7.610  4.1374  1.4480 -0.7712
  148SAPE   H6Y16359   1.481   2.411   7.535  1.0066 -0.4883 -0.0050
  148SAPE   C3716360   1.613   2.562   7.631 -0.0418  0.1988 -0.8391
  148SAPE   H7X16361   1.553   2.638   7.577 -0.1018  1.7910  1.3580
  148SAPE   H7Y16362   1.719   2.592   7.634  0.3751 -1.2410 -0.0066
  148SAPE   C3816363   1.560   2.549   7.774 -0.3745 -0.2410  0.4298
  148SAPE   H8X16364   1.467   2.488   7.770  0.3835 -1.4442  0.4606
  148SAPE   H8Y16365   1.540   2.651   7.814 -1.7905 -1.1044  2.0887
  148SAPE   C3916366   1.679   2.487   7.849 -0.4984  0.6557 -0.9508
  148SAPE   H9X16367   1.769   2.550   7.834 -0.9525  1.6368  0.2370
  148SAPE   H9Y16368   1.698   2.385   7.811 -1.5347  0.4901 -1.0527
  148SAPE  C31016369   1.659   2.480   8.007  0.2398  0.7368 -0.6111
  148SAPE  H10X16370   1.582   2.402   8.018 -0.6219  1.3659 -1.9591
  148SAPE  H10Y16371   1.640   2.576   8.061  1.8168  1.8653 -1.9698
  148SAPE  C31116372   1.784   2.405   8.059  0.0093 -0.0741  0.3102
  148SAPE  H11X16373   1.867   2.473   8.030 -0.9564  0.6177 -0.9509
  148SAPE  H11Y16374   1.799   2.310   8.005  4.9718 -0.7777  2.3844
  148SAPE  C31216375   1.793   2.375   8.205 -0.1327 -0.8112 -0.1756
  148SAPE  H12X16376   1.819   2.471   8.255 -1.5843  0.1842 -1.2241
  148SAPE  H12Y16377   1.883   2.310   8.215  0.3529 -0.1905 -0.4133
  148SAPE  C31316378   1.665   2.305   8.258  0.2611 -0.4268 -0.0819
  148SAPE  H13X16379   1.648   2.212   8.199  3.3744 -1.6700  0.7417
  148SAPE  H13Y16380   1.582   2.372   8.228  1.8513  1.9268  0.4797
  148SAPE  C31416381   1.659   2.289   8.413  0.0259 -0.3941 -0.0711
  148SAPE  H14X16382   1.665   2.385   8.468  1.0750 -0.9883  0.8930
  148SAPE  H14Y16383   1.747   2.230   8.446  0.7702 -0.3651 -1.8733
  148SAPE  C31516384   1.532   2.212   8.466 -0.0369 -0.5906  0.3154
  148SAPE  H15X16385   1.551   2.103   8.457 -1.1228 -1.0772  2.8963
  148SAPE  H15Y16386   1.442   2.246   8.411 -0.3825  0.1758  1.3128
  148SAPE  C31616387   1.498   2.238   8.620  0.6005  0.0370  0.6375
  148SAPE  H16X16388   1.485   2.347   8.634 -1.3703  0.2746 -2.1923
  148SAPE  H16Y16389   1.590   2.204   8.672  1.6841  0.5805 -0.8305
  148SAPE  C31716390   1.363   2.164   8.664  0.0731  0.1000  0.4466
  148SAPE  H17X16391   1.278   2.212   8.611  1.1777  1.5152 -0.1162
  148SAPE  H17Y16392   1.341   2.171   8.773  1.5881  2.0468  0.6930
  148SAPE  C31816393   1.359   2.017   8.626  0.4724  0.2589  0.3093
  148SAPE  H18X16394   1.266   1.972   8.668  0.2114 -0.2975 -0.8491
  148SAPE  H18Y16395   1.448   1.972   8.674  1.7144  0.6514 -1.5312
  148SAPE  H18Z16396   1.358   1.996   8.517  0.1764 -0.9742  0.5393
  149SAPE     N16397   5.743   2.816   5.990 -0.0300 -0.7539  0.6279
  149SAPE   HN116398   5.846   2.800   5.980  0.5710  1.7161  2.1332
  149SAPE   HN216399   5.730   2.834   6.091  2.3252 -0.9348  1.0369
  149SAPE   HN316400   5.676   2.737   5.978 -2.4544  1.1852  0.7202
  149SAPE   C1216401   5.698   2.936   5.907  0.0351  0.3911  0.0105
  149SAPE  H12A16402   5.698   2.896   5.803  2.6234 -0.9693  0.4297
  149SAPE  H12B16403   5.779   3.011   5.920 -0.2491  0.3149  2.6616
  149SAPE   C1116404   5.557   2.984   5.944 -0.1097 -0.1822  0.4578
  149SAPE  H11A16405   5.517   3.046   5.861  1.0432  3.8527  2.6160
  149SAPE  H11B16406   5.556   3.034   6.043 -1.1805  0.3497  0.1888
  149SAPE     P16407   5.329   2.862   6.013  0.0277  0.3616  0.0786
  149SAPE   O1316408   5.221   2.913   5.931 -0.0294 -0.0263  0.1886
  149SAPE   O1416409   5.316   2.716   6.047  0.7629  0.0861 -0.2009
  149SAPE   O1216410   5.472   2.872   5.948  0.1164  0.7233 -0.5158
  149SAPE   O1116411   5.324   2.955   6.136  0.3201  0.1997 -0.3729
  149SAPE    C116412   5.423   2.951   6.240 -0.3643 -1.0284 -0.4380
  149SAPE    HA16413   5.477   2.854   6.242  0.1709 -0.7300  1.5611
  149SAPE    HB16414   5.498   3.032   6.233 -1.1567 -0.1251  1.0017
  149SAPE    C216415   5.357   2.953   6.379  0.9104  0.4017 -0.0407
  149SAPE    HS16416   5.288   2.866   6.380 -1.6009  2.1317 -3.7215
  149SAPE   O2116417   5.287   3.079   6.396  0.2662 -0.0608  0.1017
  149SAPE   C2116418   5.158   3.072   6.382  0.5018  0.0225  0.9480
  149SAPE   O2216419   5.092   2.967   6.373  0.5194 -0.0628 -0.0817
  149SAPE   C2216420   5.097   3.210   6.352 -0.3448 -0.7461  0.1031
  149SAPE   H2R16421   5.166   3.292   6.382 -0.5349 -1.5736  3.1252
  149SAPE   H2S16422   5.074   3.216   6.243  0.4288  0.6979 -0.0178
  149SAPE    C316423   5.462   2.940   6.492 -0.4785  0.0976  0.3300
  149SAPE    HX16424   5.500   3.044   6.504  2.4094 -0.9361  0.9485
  149SAPE    HY16425   5.557   2.889   6.464  0.0110  2.0095 -1.7859
  149SAPE   O3116426   5.406   2.890   6.616  0.3948 -0.1472  0.3966
  149SAPE   C3116427   5.375   2.761   6.610  0.1394  0.0008  0.6923
  149SAPE   O3216428   5.397   2.684   6.517  0.8125  0.2616 -0.3962
  149SAPE   C3216429   5.310   2.725   6.743 -0.4431  1.4312 -0.3971
  149SAPE   H2X16430   5.229   2.650   6.734 -0.6643  0.8804  3.9037
  149SAPE   H2Y16431   5.258   2.807   6.796 -0.7111  2.3518 -2.0044
  149SAPE   C2316432   4.963   3.231   6.417  0.0600 -1.0899 -0.4643
  149SAPE   H3R16433   4.981   3.235   6.527  0.8117  0.0720 -0.6261
  149SAPE   H3S16434   4.897   3.145   6.392  0.2294 -0.7444 -2.1671
  149SAPE   C2416435   4.886   3.366   6.384  0.1139 -0.8341  0.1743
  149SAPE   H4R16436   4.785   3.367   6.430 -0.6794  0.4954 -1.4496
  149SAPE   H4S16437   4.869   3.362   6.274  1.1110  1.2772 -0.1082
  149SAPE   C2516438   4.959   3.499   6.403 -0.1469 -0.6180  0.1428
  149SAPE   H5R16439   5.049   3.508   6.340  0.2884  0.8779  0.9165
  149SAPE   C2616440   4.941   3.596   6.498 -0.4408 -0.0911  0.2133
  149SAPE   H6R16441   5.006   3.685   6.500  0.1858 -0.4743 -1.6677
  149SAPE   C2716442   4.831   3.584   6.602 -0.2359 -0.1580  0.0906
  149SAPE   H7R16443   4.739   3.538   6.558 -3.3514  2.8946  2.7655
  149SAPE   H7S16444   4.781   3.682   6.617 -0.5190 -0.2826 -0.0104
  149SAPE   C2816445   4.855   3.504   6.726 -0.6286  0.5563  0.4920
  149SAPE   H8R16446   4.835   3.397   6.717 -2.9024  0.9462  0.1732
  149SAPE   C2916447   4.913   3.548   6.842  0.0327 -0.7982 -0.1190
  149SAPE   H9R16448   4.926   3.476   6.924 -1.1977 -1.6096 -0.6011
  149SAPE  C21016449   4.953   3.692   6.859 -0.0131 -0.1235 -0.1197
  149SAPE  H10R16450   4.873   3.752   6.907 -1.3730 -0.3367 -2.0118
  149SAPE  H10S16451   4.964   3.744   6.762  3.4071 -2.6782 -1.3087
  149SAPE  C21116452   5.081   3.702   6.943  0.9959  0.1775  0.3994
  149SAPE  H11R16453   5.168   3.670   6.885 -1.0394 -1.0159 -2.1827
  149SAPE  C21216454   5.099   3.717   7.074  0.9566  0.2057 -0.2133
  149SAPE  H12R16455   5.200   3.737   7.112 -0.5186  0.6360  4.0026
  149SAPE  C21316456   4.988   3.731   7.173 -0.2519 -0.1030 -0.0827
  149SAPE  H13R16457   4.958   3.626   7.191 -0.2032 -0.6784 -2.8869
  149SAPE  H13S16458   4.897   3.773   7.125  0.8512  1.1288 -1.2090
  149SAPE  C21416459   5.032   3.817   7.291 -0.1108 -0.7137  0.2397
  149SAPE  H14R16460   5.043   3.921   7.260 -0.4981 -1.5392 -2.9893
  149SAPE  C21516461   5.057   3.776   7.412  0.3982 -0.0784 -0.7226
  149SAPE  H15R16462   5.079   3.851   7.490 -5.1490 -1.2770  2.5712
  149SAPE  C21616463   5.038   3.637   7.453 -0.9655  0.4006 -0.5970
  149SAPE  H16R16464   5.141   3.597   7.465 -0.2927  1.7439 -1.6094
  149SAPE  H16S16465   4.991   3.571   7.376  2.0475 -1.2677 -1.1670
  149SAPE  C21716466   4.979   3.617   7.591 -0.3547  0.5049  0.1265
  149SAPE  H17R16467   4.976   3.507   7.607 -0.2102  0.9536  4.4409
  149SAPE  H17S16468   4.878   3.662   7.589 -0.0218  1.2353 -0.7876
  149SAPE  C21816469   5.049   3.677   7.712 -0.2249  0.0514  0.3735
  149SAPE  H18R16470   5.070   3.786   7.704 -2.1403  0.3206 -2.3298
  149SAPE  H18S16471   5.144   3.621   7.724  1.2972  1.6769 -2.8154
  149SAPE  C21916472   4.962   3.651   7.838  0.3256 -1.1010  0.3043
  149SAPE  H19R16473   4.920   3.548   7.827  0.5021 -0.9885 -2.1073
  149SAPE  H19S16474   4.880   3.725   7.832  2.7561  2.0208  2.3986
  149SAPE  C22016475   5.048   3.676   7.963 -0.4867  0.4720 -0.5292
  149SAPE  H20R16476   5.076   3.780   7.987  1.1916 -0.1982  0.5938
  149SAPE  H20S16477   5.146   3.626   7.950 -0.4640  0.6396 -1.0549
  149SAPE  H20T16478   5.005   3.626   8.053  3.8691 -1.4610  0.7299
  149SAPE   C3316479   5.421   2.656   6.836  0.0855 -0.3000  0.0541
  149SAPE   H3X16480   5.489   2.738   6.868  2.0506 -1.9105  0.2455
  149SAPE   H3Y16481   5.486   2.572   6.804 -0.6748 -1.2464  0.9320
  149SAPE   C3416482   5.352   2.603   6.960 -0.3028  0.1628 -0.0196
  149SAPE   H4X16483   5.311   2.504   6.929 -0.5897  0.4829 -0.6733
  149SAPE   H4Y16484   5.265   2.668   6.986  0.2749  0.7038  0.5872
  149SAPE   C3516485   5.442   2.592   7.083  0.3528  0.2103  0.6643
  149SAPE   H5X16486   5.516   2.674   7.094  1.4495 -0.5259 -0.8246
  149SAPE   H5Y16487   5.512   2.508   7.061  1.8853  1.9455 -1.5183
  149SAPE   C3616488   5.356   2.577   7.207  0.5115 -0.1661  0.5541
  149SAPE   H6X16489   5.291   2.487   7.202  2.7600 -1.8496 -1.3146
  149SAPE   H6Y16490   5.297   2.670   7.213  0.2737  0.0067 -2.6683
  149SAPE   C3716491   5.432   2.549   7.339  0.5307  0.1977 -0.0636
  149SAPE   H7X16492   5.493   2.641   7.353  1.8936 -0.5711 -0.7908
  149SAPE   H7Y16493   5.501   2.463   7.327  1.3732  0.9798 -1.1074
  149SAPE   C3816494   5.350   2.533   7.465 -0.7139  0.0428  0.2237
  149SAPE   H8X16495   5.284   2.444   7.464  0.9090 -1.1757 -0.6636
  149SAPE   H8Y16496   5.293   2.627   7.485  1.7596  1.3302  1.7789
  149SAPE   C3916497   5.440   2.514   7.585  0.5384 -0.1772 -0.4119
  149SAPE   H9X16498   5.516   2.592   7.565 -0.2586  0.4603 -1.0182
  149SAPE   H9Y16499   5.494   2.417   7.580 -0.5252 -0.7787 -0.5099
  149SAPE  C31016500   5.358   2.526   7.712 -0.1253  1.3408 -0.0699
  149SAPE  H10X16501   5.273   2.454   7.709  0.3195  0.7473  0.9396
  149SAPE  H10Y16502   5.311   2.624   7.735 -1.5584  0.2024  2.1935
  149SAPE  C31116503   5.455   2.495   7.823 -0.2725  0.2496 -0.1573
  149SAPE  H11X16504   5.536   2.571   7.818 -0.5849  0.7241  1.5080
  149SAPE  H11Y16505   5.498   2.392   7.824 -0.1180  0.2701 -1.9250
  149SAPE  C31216506   5.388   2.511   7.963 -0.5059  0.1162 -0.4553
  149SAPE  H12X16507   5.316   2.426   7.970  0.0176 -0.1917  1.9996
  149SAPE  H12Y16508   5.319   2.599   7.967  0.4754  0.8636  0.6151
  149SAPE  C31316509   5.494   2.498   8.071 -0.7971  0.0961 -0.0032
  149SAPE  H13X16510   5.575   2.571   8.050 -0.3449 -0.1440  0.8691
  149SAPE  H13Y16511   5.533   2.395   8.054 -0.8209 -0.4830  2.8941
  149SAPE  C31416512   5.458   2.503   8.213  0.4742  0.5289 -0.8617
  149SAPE  H14X16513   5.349   2.491   8.228  0.6538 -0.0448  0.1169
  149SAPE  H14Y16514   5.477   2.605   8.252  1.2100  0.1856 -0.2824
  149SAPE  C31516515   5.537   2.400   8.297  0.2151 -0.0907 -0.8401
  149SAPE  H15X16516   5.645   2.426   8.293  0.4612 -0.4921  1.8324
  149SAPE  H15Y16517   5.519   2.296   8.261 -0.0973 -0.6278  0.7850
  149SAPE  C31616518   5.492   2.413   8.446 -0.3339 -0.4597 -0.1485
  149SAPE  H16X16519   5.388   2.374   8.446 -1.0361  1.2892 -0.4449
  149SAPE  H16Y16520   5.495   2.521   8.474  1.6122 -0.8193  1.3129
  149SAPE  C31716521   5.594   2.333   8.539  0.4164 -0.5078 -0.0165
  149SAPE  H17X16522   5.569   2.330   8.647 -0.2720 -1.8709 -0.1948
  149SAPE  H17Y16523   5.685   2.396   8.534 -0.2057  0.6071  1.7685
  149SAPE  C31816524   5.624   2.187   8.497  0.0140 -0.0321  0.0347
  149SAPE  H18X16525   5.539   2.135   8.448 -0.8206  0.9546  0.3952
  149SAPE  H18Y16526   5.662   2.127   8.582 -0.7547  0.7953  0.9944
  149SAPE  H18Z16527   5.697   2.193   8.414  1.0852 -1.0173  0.8778
  150SAPE     N16528   3.554   4.922   6.092 -0.2695  0.3331  0.1129
  150SAPE   HN116529   3.562   4.942   5.990  4.2862  0.9889  0.3702
  150SAPE   HN216530   3.470   4.864   6.108 -0.9481  0.5191 -2.3851
  150SAPE   HN316531   3.551   5.015   6.140 -3.2829  0.0540  0.6500
  150SAPE   C1216532   3.676   4.836   6.133 -0.3060 -0.2006  0.3760
  150SAPE  H12A16533   3.765   4.899   6.114  0.5134 -0.8180  2.0194
  150SAPE  H12B16534   3.668   4.738   6.081 -1.4401 -0.3682  0.8156
  150SAPE   C1116535   3.682   4.809   6.280  0.1439 -0.6490  0.2334
  150SAPE  H11A16536   3.773   4.751   6.308  0.9795  0.6097  0.2459
  150SAPE  H11B16537   3.601   4.737   6.302 -1.9757  2.2675  2.8423
  150SAPE     P16538   3.543   4.949   6.453 -0.0309  0.4270 -0.1191
  150SAPE   O1316539   3.553   5.083   6.511  0.4151 -0.6758 -0.1188
  150SAPE   O1416540   3.433   4.930   6.355 -0.1309  0.0411  0.3248
  150SAPE   O1216541   3.670   4.924   6.365  0.2902 -0.5948  0.2726
  150SAPE   O1116542   3.551   4.840   6.564  0.1551  0.5578  0.3412
  150SAPE    C116543   3.653   4.845   6.673 -0.2604  0.4755  0.4189
  150SAPE    HA16544   3.707   4.941   6.691 -0.5697  0.5133  1.1756
  150SAPE    HB16545   3.593   4.832   6.765 -1.7365  0.0238 -0.5652
  150SAPE    C216546   3.759   4.733   6.666  0.7322 -0.4160 -0.3592
  150SAPE    HS16547   3.814   4.741   6.570 -0.7684  0.2698 -1.1979
  150SAPE   O2116548   3.701   4.605   6.671  1.2437 -0.9330 -0.4636
  150SAPE   C2116549   3.755   4.504   6.604  0.3520 -0.7358  0.2094
  150SAPE   O2216550   3.852   4.514   6.524  0.1146 -0.0180  0.0773
  150SAPE   C2216551   3.676   4.373   6.622 -0.1325 -0.0636 -0.2991
  150SAPE   H2R16552   3.575   4.381   6.666  0.6775  0.6730  1.5265
  150SAPE   H2S16553   3.679   4.317   6.526 -2.9507 -2.1029  0.6424
  150SAPE    C316554   3.857   4.751   6.787  0.0839  0.3298 -0.2401
  150SAPE    HX16555   3.904   4.851   6.792 -0.1723  0.4167  0.4582
  150SAPE    HY16556   3.934   4.671   6.774 -2.3196 -1.8869 -2.0049
  150SAPE   O3116557   3.784   4.723   6.906 -0.4737 -0.5548  0.0877
  150SAPE   C3116558   3.852   4.718   7.017  0.2995 -0.1214  0.3751
  150SAPE   O3216559   3.965   4.767   7.023 -0.0056 -0.4473  0.5180
  150SAPE   C3216560   3.779   4.642   7.128  0.4830 -0.1503 -0.1388
  150SAPE   H2X16561   3.752   4.546   7.080 -0.8452 -0.3422  0.9219
  150SAPE   H2Y16562   3.688   4.702   7.149  1.4302  2.0732 -1.9707
  150SAPE   C2316563   3.762   4.279   6.728  1.3172  0.3146  0.5132
  150SAPE   H3R16564   3.868   4.272   6.693  1.0406 -1.4169 -0.0917
  150SAPE   H3S16565   3.735   4.173   6.707  1.0106  0.7162 -1.2260
  150SAPE   C2416566   3.748   4.326   6.875  0.1641  0.0818  0.4079
  150SAPE   H4R16567   3.642   4.348   6.899  0.3130  0.4039  0.7848
  150SAPE   H4S16568   3.789   4.429   6.874 -0.8675  0.5204  1.1907
  150SAPE   C2516569   3.825   4.242   6.976 -0.2209 -0.0890 -0.8166
  150SAPE   H5R16570   3.934   4.257   6.974 -0.2307  0.1262 -0.1623
  150SAPE   C2616571   3.770   4.141   7.050  0.4044  0.1588  0.3430
  150SAPE   H6R16572   3.832   4.095   7.128  0.8559 -0.4839 -0.3834
  150SAPE   C2716573   3.625   4.104   7.040  0.7875  0.1395 -0.0119
  150SAPE   H7R16574   3.590   4.086   6.936  2.1933 -0.3416 -0.4298
  150SAPE   H7S16575   3.553   4.179   7.078  0.9104 -1.2056  3.0874
  150SAPE   C2816576   3.613   3.979   7.121 -0.1419  0.2254  0.0599
  150SAPE   H8R16577   3.613   3.885   7.062 -2.5057  0.2860 -0.1394
  150SAPE   C2916578   3.613   3.969   7.258  0.0017 -0.4533 -0.5050
  150SAPE   H9R16579   3.614   3.872   7.310  1.1218 -1.1782 -1.8218
  150SAPE  C21016580   3.616   4.087   7.356  0.8664  0.3595  0.0777
  150SAPE  H10R16581   3.537   4.084   7.434 -0.2911  0.0100 -1.0763
  150SAPE  H10S16582   3.580   4.180   7.307 -0.9134  0.6494  1.8173
  150SAPE  C21116583   3.750   4.095   7.420 -0.7909 -0.1276 -1.0431
  150SAPE  H11R16584   3.818   4.166   7.372 -0.8677  1.7666  1.4443
  150SAPE  C21216585   3.801   4.038   7.533 -0.5241 -0.4108 -0.1201
  150SAPE  H12R16586   3.906   4.059   7.557 -0.3626  0.0222 -1.1481
  150SAPE  C21316587   3.736   3.949   7.628  0.9159  0.5266  0.8385
  150SAPE  H13R16588   3.640   3.918   7.583  1.2541  3.2808 -2.1041
  150SAPE  H13S16589   3.716   4.018   7.713 -0.1440  0.7053  0.4564
  150SAPE  C21416590   3.817   3.838   7.686 -0.1471 -0.3368 -0.3042
  150SAPE  H14R16591   3.908   3.869   7.740  1.3749 -1.6952 -1.9912
  150SAPE  C21516592   3.787   3.709   7.692 -1.3137  0.2028 -0.1557
  150SAPE  H15R16593   3.856   3.643   7.746 -0.4385  2.2929  1.4293
  150SAPE  C21616594   3.676   3.627   7.634 -0.4005  0.0419  1.0776
  150SAPE  H16R16595   3.597   3.692   7.592  0.1631  0.2258  0.2778
  150SAPE  H16S16596   3.635   3.555   7.708 -2.7112  1.7767  1.5966
  150SAPE  C21716597   3.724   3.529   7.520 -0.5054 -0.0323  0.5519
  150SAPE  H17R16598   3.669   3.435   7.540 -0.6704  0.4149  2.4211
  150SAPE  H17S16599   3.831   3.500   7.530 -0.8305 -0.5537  3.2183
  150SAPE  C21816600   3.702   3.593   7.380  0.1294  0.3503 -0.7190
  150SAPE  H18R16601   3.765   3.684   7.385  0.1649  0.2548  0.9665
  150SAPE  H18S16602   3.596   3.626   7.368 -0.4795 -1.9770 -2.3290
  150SAPE  C21916603   3.743   3.502   7.262  0.5375  0.5376 -0.0865
  150SAPE  H19R16604   3.693   3.404   7.270 -1.0623  1.1524 -1.8232
  150SAPE  H19S16605   3.854   3.490   7.261  0.4685 -0.0943 -0.5187
  150SAPE  C22016606   3.710   3.561   7.122 -0.1439  0.4443 -0.2969
  150SAPE  H20R16607   3.772   3.652   7.111 -0.8609  0.9191 -0.4546
  150SAPE  H20S16608   3.602   3.584   7.129 -0.2665 -0.6568  3.9147
  150SAPE  H20T16609   3.731   3.490   7.039  1.3325  0.1800  0.2684
  150SAPE   C3316610   3.862   4.613   7.254 -0.2429 -1.1170  0.0611
  150SAPE   H3X16611   3.892   4.711   7.297  1.9246 -1.3146 -0.8795
  150SAPE   H3Y16612   3.961   4.569   7.231 -0.0716 -1.4047  1.3015
  150SAPE   C3416613   3.783   4.532   7.359  0.2689  0.1490 -0.0797
  150SAPE   H4X16614   3.799   4.426   7.334 -0.6807 -0.8096  2.9206
  150SAPE   H4Y16615   3.676   4.560   7.345  0.3024 -1.1123 -3.8119
  150SAPE   C3516616   3.829   4.548   7.513  0.3187 -0.2913 -0.0965
  150SAPE   H5X16617   3.826   4.651   7.556 -0.9848 -0.3730  0.0295
  150SAPE   H5Y16618   3.936   4.517   7.508  0.8112  1.1215  0.9100
  150SAPE   C3616619   3.751   4.460   7.606 -0.3509  0.2432  0.6599
  150SAPE   H6X16620   3.737   4.358   7.564  1.5475  0.6130 -1.0286
  150SAPE   H6Y16621   3.661   4.521   7.630  2.0836  3.7081  1.6981
  150SAPE   C3716622   3.825   4.454   7.741 -0.2634 -0.9546  0.1694
  150SAPE   H7X16623   3.865   4.557   7.750 -0.3798 -0.6406 -2.2904
  150SAPE   H7Y16624   3.902   4.374   7.737 -0.4421 -1.1009 -0.4818
  150SAPE   C3816625   3.741   4.414   7.860  0.3927 -0.3185  0.4961
  150SAPE   H8X16626   3.720   4.306   7.849 -1.7682  0.3006 -2.4850
  150SAPE   H8Y16627   3.646   4.470   7.871  0.3769 -0.0602 -0.8515
  150SAPE   C3916628   3.820   4.421   7.993  0.4845  0.5166 -0.6262
  150SAPE   H9X16629   3.863   4.523   7.996 -2.6838  1.9587  1.8949
  150SAPE   H9Y16630   3.903   4.348   8.003 -0.3498 -0.2225  1.5233
  150SAPE  C31016631   3.727   4.394   8.117 -0.1480 -0.5722  0.8118
  150SAPE  H10X16632   3.678   4.295   8.106 -1.7449  0.2983 -0.3966
  150SAPE  H10Y16633   3.641   4.464   8.116  0.1809 -0.0601 -2.2519
  150SAPE  C31116634   3.801   4.407   8.250  0.4646  0.5284 -0.2314
  150SAPE  H11X16635   3.844   4.509   8.246  0.4660  0.5008 -1.2977
  150SAPE  H11Y16636   3.890   4.342   8.251  0.5712  0.6842  0.9783
  150SAPE  C31216637   3.712   4.373   8.376 -0.0691 -0.5631 -0.0069
  150SAPE  H12X16638   3.697   4.262   8.374 -1.9142 -0.3936  1.6485
  150SAPE  H12Y16639   3.616   4.427   8.364 -0.1116 -1.0155 -2.0097
  150SAPE  C31316640   3.778   4.406   8.507  0.1127 -0.0156  0.6640
  150SAPE  H13X16641   3.701   4.402   8.587 -2.2482  1.4355 -1.3926
  150SAPE  H13Y16642   3.815   4.511   8.506  1.5339 -0.5074 -0.0264
  150SAPE  C31416643   3.909   4.333   8.552  1.0451 -0.1038 -0.2718
  150SAPE  H14X16644   3.976   4.405   8.606 -0.3717  1.2267 -0.2181
  150SAPE  H14Y16645   3.962   4.301   8.460  4.4505  2.3864  0.6082
  150SAPE  C31516646   3.884   4.214   8.641  0.1943  0.2785  0.1945
  150SAPE  H15X16647   3.843   4.119   8.601  3.6881 -1.7504  1.0359
  150SAPE  H15Y16648   3.805   4.251   8.710  0.2368  0.4630  0.1443
  150SAPE  C31616649   3.994   4.172   8.736  0.0083  0.3679  0.6850
  150SAPE  H16X16650   3.952   4.097   8.807 -2.3417  1.6914  0.7676
  150SAPE  H16Y16651   4.043   4.250   8.799  1.3976 -1.3783  1.8927
  150SAPE  C31716652   4.109   4.111   8.657 -0.1140 -0.2074 -0.3599
  150SAPE  H17X16653   4.207   4.124   8.708  0.9933 -0.0851 -2.3970
  150SAPE  H17Y16654   4.119   4.168   8.563 -0.3387 -1.1877 -0.9959
  150SAPE  C31816655   4.093   3.969   8.626 -0.3255  0.7781 -0.1000
  150SAPE  H18X16656   4.180   3.939   8.564 -0.1794  0.7779  0.1055
  150SAPE  H18Y16657   4.009   3.944   8.557 -0.1022 -0.7213  0.1395
  150SAPE  H18Z16658   4.087   3.897   8.710  0.5632  0.4460 -0.3080
  151SAPE     N16659   0.270   4.190   6.440  0.8421 -0.1007 -0.8867
  151SAPE   HN116660   0.170   4.189   6.413  0.7510  0.9352 -0.6100
  151SAPE   HN216661   0.284   4.129   6.523  1.2877  1.2606  0.0691
  151SAPE   HN316662   0.301   4.285   6.468 -1.4452  0.3914  0.1441
  151SAPE   C1216663   0.338   4.147   6.316 -0.0512 -0.6125  0.5798
  151SAPE  H12A16664   0.444   4.179   6.318  1.2499 -4.4959  1.8909
  151SAPE  H12B16665   0.287   4.192   6.228 -1.6549 -2.7730  0.3073
  151SAPE   C1116666   0.328   3.988   6.310  0.2851  0.0704 -0.2324
  151SAPE  H11A16667   0.395   3.950   6.390 -0.5762  0.0723  0.5030
  151SAPE  H11B16668   0.375   3.969   6.211  1.1435 -0.5575  0.2736
  151SAPE     P16669   0.173   3.783   6.359  0.1065  0.1563 -0.1081
  151SAPE   O1316670   0.059   3.762   6.263 -0.1656 -0.4167  0.0373
  151SAPE   O1416671   0.287   3.695   6.344 -0.3952  0.2561 -0.5843
  151SAPE   O1216672   0.199   3.937   6.332 -0.3664 -0.4374  0.0029
  151SAPE   O1116673   0.119   3.783   6.508  0.0871  0.6756 -0.2935
  151SAPE    C116674   0.100   3.655   6.567 -0.6330  0.3138 -0.1253
  151SAPE    HA16675  -0.006   3.643   6.599 -0.3564 -0.9924  0.3691
  151SAPE    HB16676   0.124   3.566   6.506 -3.9492 -1.4800  0.9114
  151SAPE    C216677   0.198   3.637   6.685 -0.7111  0.1424  0.1430
  151SAPE    HS16678   0.187   3.536   6.730  1.1672 -0.5798 -0.9453
  151SAPE   O2116679   0.181   3.745   6.781 -0.0863  0.3083 -0.1506
  151SAPE   C2116680   0.086   3.719   6.873 -0.0035 -0.3137  0.0176
  151SAPE   O2216681   0.012   3.625   6.875  0.2028  0.4272  0.2200
  151SAPE   C2216682   0.100   3.820   6.989  0.9153 -0.6356  0.2214
  151SAPE   H2R16683   0.156   3.912   6.961  0.7006 -0.2838  0.9036
  151SAPE   H2S16684  -0.007   3.852   6.998  1.1295  1.5837 -3.2265
  151SAPE    C316685   0.348   3.652   6.650  0.5977 -0.5577 -0.3491
  151SAPE    HX16686   0.364   3.752   6.604  0.8285  1.0879  2.9899
  151SAPE    HY16687   0.370   3.573   6.575  1.5582 -1.7951  1.1656
  151SAPE   O3116688   0.433   3.619   6.763 -0.3521 -0.1410 -0.1622
  151SAPE   C3116689   0.475   3.717   6.834  0.4401 -0.3684  0.3447
  151SAPE   O3216690   0.431   3.834   6.819  0.1426  0.1958  0.1775
  151SAPE   C3216691   0.588   3.674   6.919 -0.0163  0.3284  0.4051
  151SAPE   H2X16692   0.661   3.756   6.902 -2.8337  2.3312 -3.4614
  151SAPE   H2Y16693   0.623   3.575   6.883 -2.6914 -1.4377  2.2867
  151SAPE   C2316694   0.152   3.760   7.121 -0.2650  0.0464  0.8012
  151SAPE   H3R16695   0.200   3.848   7.171  1.8069  0.2250 -1.3070
  151SAPE   H3S16696   0.231   3.682   7.113 -3.7545 -3.7404  0.2657
  151SAPE   C2416697   0.039   3.693   7.195 -0.3883  0.8658 -0.2353
  151SAPE   H4R16698  -0.012   3.622   7.127 -1.9802  2.1037 -0.3993
  151SAPE   H4S16699  -0.042   3.766   7.214 -0.7305  0.2242  0.8889
  151SAPE   C2516700   0.081   3.628   7.323 -0.2355  0.2182  0.3115
  151SAPE   H5R16701   0.188   3.606   7.338 -0.9492 -2.7720  1.5984
  151SAPE   C2616702   0.004   3.603   7.428  0.4474 -1.0681 -0.2538
  151SAPE   H6R16703   0.045   3.584   7.529  0.3029 -1.9914 -0.3625
  151SAPE   C2716704  -0.148   3.636   7.431 -0.5195 -0.0397 -0.0987
  151SAPE   H7R16705  -0.181   3.671   7.331 -0.5042 -1.4207 -0.6029
  151SAPE   H7S16706  -0.168   3.717   7.505  3.0763 -0.1583  1.2062
  151SAPE   C2816707  -0.211   3.501   7.463 -0.0032 -0.3876  0.1007
  151SAPE   H8R16708  -0.174   3.415   7.405  1.2164  1.4645 -2.0566
  151SAPE   C2916709  -0.295   3.470   7.566  0.0528 -0.3920  0.3806
  151SAPE   H9R16710  -0.326   3.365   7.573  0.7829 -0.6294  0.0775
  151SAPE  C21016711  -0.356   3.569   7.667 -0.2956  0.7592 -0.0736
  151SAPE  H10R16712  -0.454   3.600   7.624 -0.1104  1.1159 -0.2426
  151SAPE  H10S16713  -0.291   3.659   7.672  0.5403  0.1891 -0.4659
  151SAPE  C21116714  -0.400   3.508   7.792  0.0716 -0.7187 -0.0880
  151SAPE  H11R16715  -0.507   3.485   7.787 -0.0680  0.1338 -1.4803
  151SAPE  C21216716  -0.321   3.486   7.902  0.2778  0.0672  0.7451
  151SAPE  H12R16717  -0.364   3.442   7.993  1.0830 -1.0000  0.6287
  151SAPE  C21316718  -0.179   3.524   7.908  0.2975 -0.1512  0.5591
  151SAPE  H13R16719  -0.175   3.632   7.936  1.5213 -0.2813  0.9868
  151SAPE  H13S16720  -0.140   3.543   7.805 -2.2972  2.2913 -0.0933
  151SAPE  C21416721  -0.086   3.443   7.995 -0.1406 -0.6113 -0.6688
  151SAPE  H14R16722  -0.009   3.388   7.939 -1.3587 -1.1277 -1.8874
  151SAPE  C21516723  -0.082   3.438   8.131  0.1989  0.2660  0.3645
  151SAPE  H15R16724  -0.011   3.381   8.193  0.0885  0.5564  0.7600
  151SAPE  C21616725  -0.170   3.515   8.225  0.0337  0.2527 -0.6278
  151SAPE  H16R16726  -0.231   3.431   8.264  2.0714 -0.5060  1.1595
  151SAPE  H16S16727  -0.237   3.589   8.177 -0.4522  0.8682  0.9369
  151SAPE  C21716728  -0.098   3.567   8.348 -0.0184 -0.0779  0.4841
  151SAPE  H17R16729  -0.157   3.626   8.421  0.7396 -0.0407  1.0792
  151SAPE  H17S16730  -0.024   3.638   8.305 -0.7721  0.5142  0.1455
  151SAPE  C21816731  -0.054   3.447   8.442 -0.6947 -0.2820 -0.1691
  151SAPE  H18R16732   0.017   3.375   8.397 -2.5293 -2.1660 -0.2225
  151SAPE  H18S16733  -0.145   3.388   8.468 -0.6709  0.6242  2.2173
  151SAPE  C21916734   0.009   3.498   8.583  0.5508  0.3434  0.0511
  151SAPE  H19R16735  -0.062   3.565   8.636  0.5420  0.2022  0.2208
  151SAPE  H19S16736   0.094   3.563   8.554 -0.8830  1.1908 -2.5260
  151SAPE  C22016737   0.053   3.383   8.666  0.3954  0.2563 -0.2061
  151SAPE  H20R16738  -0.038   3.343   8.715  0.2138 -1.6723 -1.9703
  151SAPE  H20S16739   0.111   3.305   8.612  0.4908  0.4187 -0.3419
  151SAPE  H20T16740   0.104   3.419   8.758 -1.0148  2.7886 -0.3343
  151SAPE   C3316741   0.550   3.665   7.067  1.0502  0.3580 -0.0687
  151SAPE   H3X16742   0.634   3.619   7.123  1.3343  3.6936  2.5843
  151SAPE   H3Y16743   0.454   3.611   7.084 -0.1876  2.7063  0.9860
  151SAPE   C3416744   0.532   3.803   7.140  0.3398 -0.2952  0.5529
  151SAPE   H4X16745   0.435   3.845   7.107 -1.1221 -3.2522  0.6862
  151SAPE   H4Y16746   0.617   3.867   7.109  1.6143 -0.9645  2.4926
  151SAPE   C3516747   0.547   3.793   7.300  0.3528 -0.1513  0.4772
  151SAPE   H5X16748   0.553   3.901   7.323  2.4893  0.2351 -1.5052
  151SAPE   H5Y16749   0.638   3.738   7.331  0.9989 -1.9390 -3.8245
  151SAPE   C3616750   0.427   3.728   7.370 -0.1213 -0.1011 -0.0047
  151SAPE   H6X16751   0.438   3.619   7.356  0.2995 -0.0961  0.2614
  151SAPE   H6Y16752   0.339   3.763   7.313  0.3613  0.2551 -0.5457
  151SAPE   C3716753   0.411   3.773   7.515 -0.1402 -0.2987 -0.1666
  151SAPE   H7X16754   0.370   3.876   7.525 -2.4849 -1.3288  1.4504
  151SAPE   H7Y16755   0.516   3.774   7.552 -0.4327  1.8130  0.7924
  151SAPE   C3816756   0.334   3.679   7.609  0.2310  0.3637  0.3410
  151SAPE   H8X16757   0.335   3.578   7.561  0.0896  0.4901  0.0653
  151SAPE   H8Y16758   0.225   3.702   7.603  0.3623  0.9122  0.0440
  151SAPE   C3916759   0.387   3.685   7.750  0.7687 -0.3754  0.1707
  151SAPE   H9X16760   0.365   3.790   7.778 -1.5965  0.2965 -3.5326
  151SAPE   H9Y16761   0.496   3.663   7.743  0.9766 -0.3612  2.5140
  151SAPE  C31016762   0.315   3.597   7.851 -0.8853 -0.4453 -0.0695
  151SAPE  H10X16763   0.313   3.497   7.803  3.1249 -1.1679  0.9215
  151SAPE  H10Y16764   0.208   3.624   7.860 -0.6941 -0.1721  1.8197
  151SAPE  C31116765   0.372   3.603   7.995 -0.3024 -0.4836  0.6234
  151SAPE  H11X16766   0.384   3.711   8.016 -0.5377 -0.2051 -0.6041
  151SAPE  H11Y16767   0.473   3.556   7.999 -0.5622 -1.0513  0.6147
  151SAPE  C31216768   0.277   3.554   8.102 -0.5202  0.2593  1.0365
  151SAPE  H12X16769   0.256   3.447   8.080 -0.4135  0.7360 -1.8727
  151SAPE  H12Y16770   0.180   3.602   8.078 -0.2924  1.2472  2.0167
  151SAPE  C31316771   0.323   3.591   8.244  0.2101 -0.2399 -0.4256
  151SAPE  H13X16772   0.243   3.581   8.320  0.5694  1.5497  0.2531
  151SAPE  H13Y16773   0.357   3.697   8.245  0.3688 -0.2221 -2.6348
  151SAPE  C31416774   0.453   3.512   8.277 -0.7524  0.2749  0.2786
  151SAPE  H14X16775   0.535   3.537   8.207 -0.6605 -3.2496 -1.0741
  151SAPE  H14Y16776   0.429   3.406   8.252 -1.1325  0.2546  0.7208
  151SAPE  C31516777   0.498   3.510   8.426 -0.1367  0.6258  0.1750
  151SAPE  H15X16778   0.577   3.433   8.439 -0.1531  0.7975  1.3223
  151SAPE  H15Y16779   0.405   3.487   8.483 -0.3734 -0.5198 -0.6437
  151SAPE  C31616780   0.526   3.654   8.482 -0.4293  0.5509  0.7359
  151SAPE  H16X16781   0.527   3.659   8.593  1.5593 -2.6315  0.9939
  151SAPE  H16Y16782   0.449   3.724   8.443  0.3930  1.5428  0.8563
  151SAPE  C31716783   0.663   3.705   8.446  0.2298 -0.6136 -0.9481
  151SAPE  H17X16784   0.667   3.730   8.338  0.3648 -2.0749 -1.3003
  151SAPE  H17Y16785   0.738   3.623   8.458  1.6872  0.6466 -1.0245
  151SAPE  C31816786   0.698   3.829   8.533 -0.3431  0.1364 -0.1489
  151SAPE  H18X16787   0.796   3.870   8.500 -1.1122  2.4205  0.3008
  151SAPE  H18Y16788   0.693   3.798   8.639 -1.5271 -0.2960 -0.3180
  151SAPE  H18Z16789   0.615   3.902   8.526 -0.9071 -0.4200  0.5325
  152SAPE     N16790   0.820   0.405   6.324  0.2767  0.4642 -0.3486
  152SAPE   HN116791   0.895   0.416   6.254 -0.5865 -0.4272 -1.4625
  152SAPE   HN216792   0.731   0.433   6.278 -0.0624 -2.0535 -1.3941
  152SAPE   HN316793   0.836   0.475   6.400  1.6559 -0.4126  0.2076
  152SAPE   C1216794   0.813   0.254   6.378  0.8622  0.1156 -0.6436
  152SAPE  H12A16795   0.782   0.270   6.483  2.8277  0.9445 -0.1415
  152SAPE  H12B16796   0.914   0.208   6.380 -0.5360 -3.3071 -1.7582
  152SAPE   C1116797   0.704   0.173   6.301  0.3082  0.4394  0.1467
  152SAPE  H11A16798   0.680   0.078   6.354 -0.2169 -0.3698 -1.4719
  152SAPE  H11B16799   0.743   0.135   6.204  1.9687 -0.1431  1.0091
  152SAPE     P16800   0.455   0.158   6.237  0.5727 -0.1853  0.3099
  152SAPE   O1316801   0.333   0.253   6.248 -0.5349  0.4289  0.3585
  152SAPE   O1416802   0.476   0.093   6.104 -0.1340 -0.6291 -0.0942
  152SAPE   O1216803   0.579   0.244   6.273 -0.3141 -0.5777  0.1023
  152SAPE   O1116804   0.440   0.042   6.350 -0.0018 -0.0929  0.3519
  152SAPE    C116805   0.466  -0.093   6.310 -0.4078  0.1425 -0.0434
  152SAPE    HA16806   0.422  -0.111   6.210  1.7103  2.2389 -1.4553
  152SAPE    HB16807   0.575  -0.115   6.307 -0.4815 -0.0758 -1.9903
  152SAPE    C216808   0.403  -0.200   6.408 -0.7992 -0.1046 -0.4838
  152SAPE    HS16809   0.385  -0.297   6.356 -2.9135  0.5527 -1.0809
  152SAPE   O2116810   0.283  -0.155   6.470  0.0884 -0.0279  0.6680
  152SAPE   C2116811   0.184  -0.135   6.383  0.2412 -0.7799 -0.7739
  152SAPE   O2216812   0.188  -0.171   6.267  0.1828 -0.2286  0.0466
  152SAPE   C2216813   0.072  -0.066   6.454 -0.7201  0.5031 -0.1289
  152SAPE   H2R16814   0.121  -0.009   6.535 -0.9504  0.9763 -0.3198
  152SAPE   H2S16815   0.036   0.012   6.384  1.5666 -0.7177 -2.9097
  152SAPE    C316816   0.505  -0.246   6.520 -0.2412  0.1652 -0.2941
  152SAPE    HX16817   0.518  -0.168   6.599  0.2580 -0.9109  0.7187
  152SAPE    HY16818   0.604  -0.264   6.472 -0.3462  1.2054 -0.9512
  152SAPE   O3116819   0.456  -0.368   6.587 -0.4538 -0.1246  0.0243
  152SAPE   C3116820   0.552  -0.440   6.646  0.0200  0.3797 -0.4671
  152SAPE   O3216821   0.674  -0.425   6.634  0.2140 -0.0571  0.4695
  152SAPE   C3216822   0.491  -0.546   6.742 -0.0563 -0.4132  0.2865
  152SAPE   H2X16823   0.528  -0.643   6.702 -0.6374 -0.0538 -1.1956
  152SAPE   H2Y16824   0.381  -0.538   6.744 -0.0455 -0.4762  1.1868
  152SAPE   C2316825  -0.030  -0.162   6.505  0.2249  0.6749 -0.3000
  152SAPE   H3R16826  -0.061  -0.227   6.421  0.5378  0.2119 -0.0616
  152SAPE   H3S16827  -0.124  -0.107   6.524 -0.5571 -1.1155  1.2511
  152SAPE   C2416828   0.001  -0.234   6.633 -0.0990  0.8370  0.2872
  152SAPE   H4R16829   0.030  -0.150   6.699 -0.3243 -0.0331  1.5139
  152SAPE   H4S16830   0.101  -0.281   6.627 -0.3956 -0.0311  1.7159
  152SAPE   C2516831  -0.096  -0.330   6.701 -0.7301  0.5288  0.5326
  152SAPE   H5R16832  -0.120  -0.418   6.640  0.2927  0.5288  0.1017
  152SAPE   C2616833  -0.160  -0.316   6.819  1.1878 -0.4258  0.1148
  152SAPE   H6R16834  -0.218  -0.402   6.855  0.8010 -1.2230 -2.2273
  152SAPE   C2716835  -0.163  -0.202   6.912 -0.0347 -0.2134 -0.4870
  152SAPE   H7R16836  -0.255  -0.211   6.972  0.5541 -3.1271  0.1393
  152SAPE   H7S16837  -0.173  -0.104   6.859  0.8337 -0.1730 -0.5934
  152SAPE   C2816838  -0.040  -0.181   6.996  0.5520 -0.6406  0.0259
  152SAPE   H8R16839   0.049  -0.143   6.942  0.1771  0.0164 -0.1451
  152SAPE   C2916840  -0.032  -0.178   7.128 -0.2442  0.8640  0.2629
  152SAPE   H9R16841   0.061  -0.139   7.172  0.3600 -1.3164  1.0386
  152SAPE  C21016842  -0.149  -0.200   7.224 -1.0138  0.2849 -0.4003
  152SAPE  H10R16843  -0.107  -0.260   7.308 -0.9122  1.0120  0.0856
  152SAPE  H10S16844  -0.236  -0.257   7.186 -1.7439  1.1462 -0.0647
  152SAPE  C21116845  -0.187  -0.057   7.280  0.5122  1.1242  0.2778
  152SAPE  H11R16846  -0.171   0.027   7.211 -0.2817 -1.0224 -2.7272
  152SAPE  C21216847  -0.240  -0.021   7.395  1.0391 -0.2519  0.2785
  152SAPE  H12R16848  -0.269   0.085   7.405 -0.1313 -0.5461  0.0900
  152SAPE  C21316849  -0.267  -0.101   7.523  0.1021 -0.1356  0.5515
  152SAPE  H13R16850  -0.167  -0.116   7.568  0.5901 -0.0118 -0.4700
  152SAPE  H13S16851  -0.310  -0.201   7.503  0.7500 -0.0286 -1.5760
  152SAPE  C21416852  -0.362  -0.033   7.616 -0.1796 -0.5674 -0.2104
  152SAPE  H14R16853  -0.453   0.006   7.568 -0.0126 -0.8032 -0.7250
  152SAPE  C21516854  -0.349  -0.007   7.747  0.2872  0.1699  0.0753
  152SAPE  H15R16855  -0.431   0.046   7.799  1.0926  1.2736  0.2515
  152SAPE  C21616856  -0.239  -0.026   7.846 -0.1997  0.2017  0.2419
  152SAPE  H16R16857  -0.218   0.062   7.911  1.1706  0.6591 -0.7872
  152SAPE  H16S16858  -0.140  -0.056   7.806 -0.5186 -2.1614  1.0664
  152SAPE  C21716859  -0.263  -0.140   7.944 -0.3795 -0.1254  0.4061
  152SAPE  H17R16860  -0.179  -0.143   8.017  0.1271  0.4086 -0.1510
  152SAPE  H17S16861  -0.275  -0.240   7.896  0.1344 -1.8799  3.6180
  152SAPE  C21816862  -0.394  -0.110   8.022  0.7286 -0.0693 -0.1793
  152SAPE  H18R16863  -0.477  -0.138   7.953 -0.1059  0.1993  0.6848
  152SAPE  H18S16864  -0.393   0.001   8.010  1.0596 -0.0970 -0.4066
  152SAPE  C21916865  -0.409  -0.147   8.167 -0.5992 -0.0823 -0.4803
  152SAPE  H19R16866  -0.517  -0.160   8.190 -0.9482  1.1555 -1.3063
  152SAPE  H19S16867  -0.368  -0.068   8.234  1.4127 -1.2025 -0.2918
  152SAPE  C22016868  -0.349  -0.289   8.195 -0.0527  0.5573  0.4405
  152SAPE  H20R16869  -0.390  -0.318   8.294 -1.1765  0.3619 -0.0716
  152SAPE  H20S16870  -0.239  -0.273   8.201  0.2773 -1.8311  2.2234
  152SAPE  H20T16871  -0.387  -0.365   8.123 -0.0686  0.8618  0.1278
  152SAPE   C3316872   0.555  -0.526   6.885  0.9398 -0.9957  0.4265
  152SAPE   H3X16873   0.560  -0.416   6.903  0.9951 -0.9368  0.0626
  152SAPE   H3Y16874   0.658  -0.565   6.871  1.1171  0.0026 -1.4171
  152SAPE   C3416875   0.477  -0.594   7.000 -0.1456 -0.1836  0.9251
  152SAPE   H4X16876   0.461  -0.702   6.976 -0.9183 -0.0109  0.6509
  152SAPE   H4Y16877   0.377  -0.546   6.999  1.1115  2.6211 -0.1659
  152SAPE   C3516878   0.550  -0.574   7.135 -0.0531 -0.6018  0.1583
  152SAPE   H5X16879   0.552  -0.467   7.164 -1.8871 -0.2711 -0.7501
  152SAPE   H5Y16880   0.654  -0.613   7.126 -0.8096 -3.2326  1.6079
  152SAPE   C3616881   0.478  -0.645   7.258 -0.0634 -0.4679  0.8022
  152SAPE   H6X16882   0.470  -0.755   7.243 -1.3222 -0.2186 -0.6357
  152SAPE   H6Y16883   0.375  -0.604   7.264 -0.0854  0.0254 -1.7851
  152SAPE   C3716884   0.552  -0.629   7.391  0.1892  0.3360 -0.8000
  152SAPE   H7X16885   0.559  -0.518   7.401 -1.7208  0.9474 -4.4345
  152SAPE   H7Y16886   0.652  -0.675   7.384 -0.5539 -1.8937  1.5642
  152SAPE   C3816887   0.496  -0.687   7.518  0.3588  0.3229 -0.3315
  152SAPE   H8X16888   0.533  -0.792   7.528 -1.9780 -0.4433  0.9100
  152SAPE   H8Y16889   0.385  -0.687   7.512  0.3381 -1.9839 -1.3641
  152SAPE   C3916890   0.540  -0.605   7.645 -0.1060 -0.6201 -0.0409
  152SAPE   H9X16891   0.485  -0.508   7.646 -0.3191 -0.6981 -1.8567
  152SAPE   H9Y16892   0.648  -0.585   7.630 -0.4156  0.6176 -0.7402
  152SAPE  C31016893   0.528  -0.680   7.772  0.1067  0.4161 -0.5834
  152SAPE  H10X16894   0.615  -0.749   7.783 -1.3210 -1.5020 -0.8062
  152SAPE  H10Y16895   0.444  -0.752   7.772  1.6378 -1.4575 -0.4030
  152SAPE  C31116896   0.526  -0.595   7.898 -0.6163  0.6962  0.1089
  152SAPE  H11X16897   0.456  -0.509   7.881 -0.5052  1.4655  2.9734
  152SAPE  H11Y16898   0.622  -0.541   7.909  0.5605 -0.6984 -2.4856
  152SAPE  C31216899   0.492  -0.664   8.024 -0.1079  1.0965  0.0954
  152SAPE  H12X16900   0.546  -0.621   8.112  1.9666  2.2084 -1.6105
  152SAPE  H12Y16901   0.519  -0.772   8.023 -1.7532  0.6088  1.7482
  152SAPE  C31316902   0.343  -0.665   8.045 -0.4907 -0.2470  0.5252
  152SAPE  H13X16903   0.302  -0.728   7.963 -1.2795  0.9954 -0.0723
  152SAPE  H13Y16904   0.309  -0.560   8.034  0.2299 -0.2360 -2.5405
  152SAPE  C31416905   0.306  -0.711   8.190  0.2865 -0.6834  0.3335
  152SAPE  H14X16906   0.366  -0.793   8.234  0.9970  0.5290  1.7233
  152SAPE  H14Y16907   0.198  -0.736   8.193 -0.0262  0.5885  0.3149
  152SAPE  C31516908   0.315  -0.593   8.285 -0.1280 -0.8528 -0.9308
  152SAPE  H15X16909   0.234  -0.521   8.260 -0.2151 -0.4671  0.3668
  152SAPE  H15Y16910   0.409  -0.535   8.268 -0.8021  0.5886  0.0546
  152SAPE  C31616911   0.310  -0.625   8.434  0.2415 -0.0351 -0.9481
  152SAPE  H16X16912   0.377  -0.703   8.476  0.8407  0.7318 -0.4634
  152SAPE  H16Y16913   0.205  -0.653   8.455  0.4712 -0.6023 -0.5390
  152SAPE  C31716914   0.329  -0.495   8.511 -0.6014 -0.1228 -0.5962
  152SAPE  H17X16915   0.244  -0.433   8.474  1.2910  2.4048 -1.0016
  152SAPE  H17Y16916   0.428  -0.453   8.485  0.1548 -0.2470  1.8284
  152SAPE  C31816917   0.328  -0.525   8.661 -0.0807 -0.0880 -0.6258
  152SAPE  H18X16918   0.383  -0.448   8.720 -1.9738  1.1250 -0.3559
  152SAPE  H18Y16919   0.371  -0.626   8.680 -0.1488  0.3764  2.5336
  152SAPE  H18Z16920   0.226  -0.508   8.700  0.7180  4.0322  0.1463
  153SAPE     N16921   6.459   2.993   6.319  0.4484 -0.5621 -0.3415
  153SAPE   HN116922   6.448   2.920   6.247  1.5413 -2.4271  1.2845
  153SAPE   HN216923   6.366   3.015   6.360  0.6116 -0.4329 -0.0335
  153SAPE   HN316924   6.490   3.076   6.264 -1.6133  0.0170 -0.7322
  153SAPE   C1216925   6.550   2.960   6.429  0.3550 -0.0568  0.8299
  153SAPE  H12A16926   6.567   3.049   6.493  1.9659  0.8136 -0.6991
  153SAPE  H12B16927   6.644   2.933   6.375  0.0320  0.0578  0.2072
  153SAPE   C1116928   6.496   2.848   6.516 -0.2532 -0.1541 -0.6859
  153SAPE  H11A16929   6.406   2.888   6.568  1.6758  0.0848  2.7417
  153SAPE  H11B16930   6.566   2.819   6.597 -1.3163 -1.2745 -0.1420
  153SAPE     P16931   6.552   2.631   6.386  0.4709 -0.0077 -0.2802
  153SAPE   O1316932   6.466   2.541   6.311  0.1979  0.2720 -0.2811
  153SAPE   O1416933   6.656   2.698   6.305 -0.1103  0.3956 -0.0118
  153SAPE   O1216934   6.454   2.738   6.439 -0.0719  0.1824  0.8870
  153SAPE   O1116935   6.602   2.552   6.504 -0.1791 -0.1852  0.4085
  153SAPE    C116936   6.656   2.426   6.501 -0.3402 -0.6729 -0.0636
  153SAPE    HA16937   6.648   2.370   6.406 -0.7151 -1.4867  0.4389
  153SAPE    HB16938   6.760   2.418   6.539 -0.4142 -4.5329 -0.3383
  153SAPE    C216939   6.577   2.334   6.604 -0.5699  0.0738 -0.3944
  153SAPE    HS16940   6.474   2.324   6.565 -0.4999  0.5413 -0.7057
  153SAPE   O2116941   6.582   2.394   6.729 -0.2107 -0.5457  0.1941
  153SAPE   C2116942   6.480   2.463   6.761 -0.4768 -0.1002  0.0303
  153SAPE   O2216943   6.371   2.473   6.705  0.1503  0.5034 -0.7475
  153SAPE   C2216944   6.520   2.520   6.900  0.4417  0.0970 -0.3801
  153SAPE   H2R16945   6.512   2.440   6.977 -0.8831  0.4847 -0.0764
  153SAPE   H2S16946   6.623   2.560   6.895  1.6977 -2.7932  0.2832
  153SAPE    C316947   6.645   2.201   6.623  0.1837  0.0532 -0.9726
  153SAPE    HX16948   6.755   2.215   6.634  0.0723  0.9460 -0.9760
  153SAPE    HY16949   6.636   2.142   6.529  0.3705 -0.6919 -0.5293
  153SAPE   O3116950   6.591   2.133   6.738  0.0928 -0.3968  0.2612
  153SAPE   C3116951   6.637   2.003   6.747 -0.0844 -0.7357 -0.4543
  153SAPE   O3216952   6.709   1.949   6.666 -0.1205 -0.5351  0.5470
  153SAPE   C3216953   6.575   1.929   6.862  0.1590  0.4040  0.0104
  153SAPE   H2X16954   6.483   1.881   6.821  0.3910 -1.2317  1.2782
  153SAPE   H2Y16955   6.538   2.001   6.938  1.0820 -0.0801  0.9421
  153SAPE   C2316956   6.431   2.641   6.940 -0.2418  0.4586  0.0176
  153SAPE   H3R16957   6.323   2.618   6.948  0.0069 -0.8569 -0.2874
  153SAPE   H3S16958   6.451   2.717   6.861 -0.6578 -0.0915 -0.6211
  153SAPE   C2416959   6.470   2.705   7.078 -0.1292  0.3375  0.3988
  153SAPE   H4R16960   6.578   2.727   7.070  0.1555 -1.6546 -3.3083
  153SAPE   H4S16961   6.458   2.624   7.153 -1.7097 -0.7142 -0.9149
  153SAPE   C2516962   6.390   2.831   7.114 -0.6372  0.3626 -0.7587
  153SAPE   H5R16963   6.418   2.918   7.053 -0.7136 -0.1251 -1.5098
  153SAPE   C2616964   6.315   2.855   7.221  0.4907  0.6694  0.4420
  153SAPE   H6R16965   6.272   2.955   7.235  1.0497  0.8296  1.0645
  153SAPE   C2716966   6.278   2.747   7.329 -0.3673 -1.1918  0.0181
  153SAPE   H7R16967   6.376   2.728   7.379  0.1756  0.4463 -0.3551
  153SAPE   H7S16968   6.246   2.659   7.270 -1.2063 -0.7971 -0.1189
  153SAPE   C2816969   6.165   2.773   7.426 -1.0191  0.1570  0.1185
  153SAPE   H8R16970   6.064   2.770   7.381 -0.6201 -0.3342 -0.7545
  153SAPE   C2916971   6.171   2.778   7.561 -0.1861  0.3561  0.6987
  153SAPE   H9R16972   6.079   2.812   7.612  0.3372  0.5673  1.5168
  153SAPE  C21016973   6.295   2.772   7.654  0.1671 -0.7153 -0.1099
  153SAPE  H10R16974   6.383   2.799   7.591  0.5179  1.0012  1.0340
  153SAPE  H10S16975   6.318   2.675   7.704 -1.4002 -0.4333  1.2659
  153SAPE  C21116976   6.285   2.889   7.747 -0.2485  0.2164 -0.4632
  153SAPE  H11R16977   6.297   2.989   7.702  2.1239 -0.5746 -1.7730
  153SAPE  C21216978   6.278   2.886   7.884 -0.1800 -0.5230  0.0215
  153SAPE  H12R16979   6.261   2.981   7.936  0.3058 -0.3879 -0.0610
  153SAPE  C21316980   6.280   2.775   7.975 -0.6280 -0.2148 -0.3880
  153SAPE  H13R16981   6.330   2.805   8.070  0.2709 -0.9901 -0.6002
  153SAPE  H13S16982   6.339   2.692   7.932  0.1101  0.1577 -0.1208
  153SAPE  C21416983   6.149   2.713   7.990 -0.1009 -0.1792  0.3668
  153SAPE  H14R16984   6.116   2.663   7.897  1.7683  0.8331 -0.8910
  153SAPE  C21516985   6.086   2.687   8.104  0.4366  0.9283 -0.3630
  153SAPE  H15R16986   5.986   2.641   8.105  0.8814 -0.1507 -1.4177
  153SAPE  C21616987   6.132   2.736   8.240  0.0181  0.3279  0.1784
  153SAPE  H16R16988   6.046   2.727   8.309 -0.4170  0.4925 -0.3327
  153SAPE  H16S16989   6.157   2.844   8.224 -1.5260  0.4163 -2.2736
  153SAPE  C21716990   6.240   2.660   8.312 -0.3847 -0.3924 -0.7568
  153SAPE  H17R16991   6.336   2.664   8.255  0.5845 -0.0973  0.8177
  153SAPE  H17S16992   6.217   2.552   8.307 -2.8912  0.1424 -1.9141
  153SAPE  C21816993   6.262   2.718   8.456 -0.7679 -0.3243  0.5547
  153SAPE  H18R16994   6.173   2.741   8.518  0.0939  1.0623  1.3490
  153SAPE  H18S16995   6.325   2.809   8.448 -0.5628 -0.5089 -0.0317
  153SAPE  C21916996   6.349   2.624   8.532 -0.2736  0.1872  0.0365
  153SAPE  H19R16997   6.452   2.614   8.491 -1.3616 -0.5590 -2.6783
  153SAPE  H19S16998   6.312   2.520   8.520 -1.0018  0.1586  2.0994
  153SAPE  C22016999   6.339   2.630   8.682 -0.3754  0.5014  0.3960
  153SAPE  H20R17000   6.236   2.632   8.724  0.0688  0.2447  1.5501
  153SAPE  H20S17001   6.395   2.722   8.710 -0.8312  1.1835 -0.8731
  153SAPE  H20T17002   6.394   2.540   8.718  0.3691 -0.2014 -2.2719
  153SAPE   C3317003   6.657   1.813   6.927 -0.2740  0.1036  0.4308
  153SAPE   H3X17004   6.744   1.838   6.991 -0.8996 -0.9173  1.7371
  153SAPE   H3Y17005   6.700   1.756   6.842 -0.0492 -0.4106  0.8830
  153SAPE   C3417006   6.580   1.708   7.014  0.9177 -0.5203 -0.2587
  153SAPE   H4X17007   6.497   1.657   6.961  1.7779 -1.2516 -0.9386
  153SAPE   H4Y17008   6.524   1.763   7.092 -0.8597  0.2892 -1.9939
  153SAPE   C3517009   6.669   1.607   7.079  0.2312 -0.7942  0.1883
  153SAPE   H5X17010   6.728   1.547   7.007  1.8426 -0.4134  1.1410
  153SAPE   H5Y17011   6.604   1.531   7.126  0.2790 -1.4394 -0.7613
  153SAPE   C3617012   6.764   1.656   7.190 -0.2178 -0.4000  0.3989
  153SAPE   H6X17013   6.829   1.735   7.148 -0.1442 -0.8189 -0.2821
  153SAPE   H6Y17014   6.836   1.576   7.216 -0.5618 -1.0389 -0.5747
  153SAPE   C3717015   6.690   1.709   7.313  0.0709 -1.3101 -0.6729
  153SAPE   H7X17016   6.621   1.626   7.338 -1.1569 -1.3490 -3.7096
  153SAPE   H7Y17017   6.627   1.794   7.280  0.6857 -0.7141 -0.3248
  153SAPE   C3817018   6.790   1.744   7.428 -0.5341 -0.0500  0.3709
  153SAPE   H8X17019   6.858   1.817   7.377 -1.4613 -0.3204 -1.3104
  153SAPE   H8Y17020   6.852   1.661   7.468 -0.0834  0.8362  1.6031
  153SAPE   C3917021   6.723   1.824   7.544 -0.5506 -0.8993 -0.5607
  153SAPE   H9X17022   6.654   1.758   7.601 -0.8502  0.6138  0.8883
  153SAPE   H9Y17023   6.659   1.910   7.515 -0.7329 -0.5499  0.8135
  153SAPE  C31017024   6.831   1.864   7.650  0.6392  0.6105 -0.0420
  153SAPE  H10X17025   6.886   1.950   7.607  0.0350  0.2774 -1.5595
  153SAPE  H10Y17026   6.903   1.780   7.658  0.0557 -0.1192 -1.8312
  153SAPE  C31117027   6.764   1.894   7.780  0.4370 -0.2872 -0.5329
  153SAPE  H11X17028   6.685   1.973   7.781  0.7533  0.0289 -0.0151
  153SAPE  H11Y17029   6.847   1.931   7.843  1.2165  0.4729 -1.9552
  153SAPE  C31217030   6.717   1.762   7.848  0.7132  0.4558  0.5565
  153SAPE  H12X17031   6.707   1.680   7.774 -0.7713  0.2737  0.9361
  153SAPE  H12Y17032   6.616   1.774   7.891 -0.2987 -0.0504 -1.5471
  153SAPE  C31317033   6.811   1.715   7.960 -0.7235  0.3319  0.6589
  153SAPE  H13X17034   6.915   1.752   7.951 -0.2908 -0.6445  1.3369
  153SAPE  H13Y17035   6.800   1.604   7.959 -0.1778  0.2783 -0.1878
  153SAPE  C31417036   6.768   1.773   8.097 -0.3015 -0.5583  1.5227
  153SAPE  H14X17037   6.658   1.760   8.107 -0.5679  0.3133  0.0553
  153SAPE  H14Y17038   6.783   1.883   8.112 -0.3307 -0.0974 -1.3160
  153SAPE  C31517039   6.835   1.701   8.214  0.5435  0.7953  0.6416
  153SAPE  H15X17040   6.941   1.732   8.220  0.6455  0.4234  0.7692
  153SAPE  H15Y17041   6.835   1.592   8.195 -0.0359  0.7947  0.6053
  153SAPE  C31617042   6.774   1.740   8.347  0.3410  0.7760 -0.0281
  153SAPE  H16X17043   6.707   1.828   8.343 -0.9708 -0.0236  2.2538
  153SAPE  H16Y17044   6.846   1.754   8.431  2.2920 -0.6671 -1.3558
  153SAPE  C31717045   6.686   1.621   8.402 -0.5153  0.2803  0.6052
  153SAPE  H17X17046   6.609   1.599   8.325  0.4330 -1.5083  0.1408
  153SAPE  H17Y17047   6.622   1.659   8.485 -2.2764  1.4722 -1.1908
  153SAPE  C31817048   6.771   1.509   8.450  0.4081  0.6886  0.3682
  153SAPE  H18X17049   6.860   1.549   8.503  0.0298  0.7853  0.9261
  153SAPE  H18Y17050   6.815   1.459   8.360  2.6933  0.0205  1.7616
  153SAPE  H18Z17051   6.711   1.429   8.498  0.1018  1.1032  0.6858
  154SAPE     N17052   3.501   5.937   6.253 -0.2016 -0.1182 -0.0379
  154SAPE   HN117053   3.454   5.935   6.161  0.1070 -0.4208 -0.1934
  154SAPE   HN217054   3.441   5.891   6.324  0.1290 -1.9463 -0.8838
  154SAPE   HN317055   3.518   6.035   6.283  1.1385 -1.0254  2.4478
  154SAPE   C1217056   3.634   5.869   6.237 -0.3212 -0.4930  0.7576
  154SAPE  H12A17057   3.611   5.768   6.196  0.1707  0.4289 -2.0222
  154SAPE  H12B17058   3.683   5.863   6.336 -0.3432 -1.4070  0.7227
  154SAPE   C1117059   3.716   5.950   6.132 -0.2943 -0.7366  0.2031
  154SAPE  H11A17060   3.656   5.965   6.039  0.5333 -0.2977 -0.2711
  154SAPE  H11B17061   3.813   5.903   6.107  1.2069  2.0674  0.3014
  154SAPE     P17062   3.853   6.175   6.125  0.1075  0.3476 -0.3432
  154SAPE   O1317063   3.869   6.122   5.984  0.2788 -0.3468  0.6576
  154SAPE   O1417064   3.806   6.316   6.143  0.0960 -0.0523 -0.4720
  154SAPE   O1217065   3.740   6.078   6.187 -0.2578  0.4430 -0.1703
  154SAPE   O1117066   3.990   6.154   6.204  0.7836  0.1277 -0.0315
  154SAPE    C117067   3.979   6.082   6.332  0.1216  0.3579 -0.4782
  154SAPE    HA17068   3.886   6.022   6.346  1.9120 -2.3086  0.9060
  154SAPE    HB17069   4.073   6.024   6.339 -0.0395  0.2170  0.6549
  154SAPE    C217070   3.972   6.186   6.447 -0.5369  0.1286 -0.3484
  154SAPE    HS17071   3.882   6.246   6.424 -1.6557 -1.1814  0.4446
  154SAPE   O2117072   4.092   6.270   6.439 -0.3686  0.3317  0.2796
  154SAPE   C2117073   4.074   6.388   6.487  0.8219 -0.3378  0.4057
  154SAPE   O2217074   3.968   6.446   6.505  0.2189 -0.0179 -0.1166
  154SAPE   C2217075   4.210   6.451   6.517 -0.0320 -0.1141  1.1851
  154SAPE   H2R17076   4.290   6.429   6.443 -0.4650 -0.0409  0.6919
  154SAPE   H2S17077   4.183   6.558   6.512 -0.6935 -0.3249 -0.8816
  154SAPE    C317078   3.953   6.108   6.579  0.0707 -0.9684  0.4235
  154SAPE    HX17079   4.047   6.055   6.604  0.7597  0.1406  0.2293
  154SAPE    HY17080   3.867   6.037   6.570  0.0584 -0.9320  0.2506
  154SAPE   O3117081   3.941   6.202   6.691  0.1256  0.4952 -0.1917
  154SAPE   C3117082   3.817   6.257   6.691 -0.1496  0.2894 -0.1120
  154SAPE   O3217083   3.724   6.232   6.617 -0.2811  0.2507  0.1663
  154SAPE   C3217084   3.811   6.355   6.804 -0.2222 -0.4248  0.0534
  154SAPE   H2X17085   3.704   6.385   6.807  0.0496  0.7542 -1.3406
  154SAPE   H2Y17086   3.864   6.449   6.779  1.3293 -0.8365  1.6706
  154SAPE   C2317087   4.250   6.407   6.656 -0.4540  1.0237  0.2463
  154SAPE   H3R17088   4.315   6.317   6.653 -0.9647  0.6174  1.0992
  154SAPE   H3S17089   4.162   6.382   6.719 -1.5637  1.7525 -0.9477
  154SAPE   C2417090   4.331   6.525   6.727  0.0910  0.1265 -0.2146
  154SAPE   H4R17091   4.260   6.610   6.729 -1.6487 -1.2720  1.0881
  154SAPE   H4S17092   4.417   6.545   6.660 -0.4983 -3.8165 -2.4458
  154SAPE   C2517093   4.369   6.496   6.871  0.0114 -0.4676  0.3178
  154SAPE   H5R17094   4.444   6.418   6.890  1.2904  0.8030  0.6840
  154SAPE   C2617095   4.313   6.541   6.980 -0.4184  0.1273 -0.5869
  154SAPE   H6R17096   4.342   6.501   7.078 -4.3151 -0.4412  0.5061
  154SAPE   C2717097   4.194   6.629   6.997  0.4611  0.2375  0.5995
  154SAPE   H7R17098   4.103   6.579   7.037 -0.8217  0.2624 -2.0757
  154SAPE   H7S17099   4.152   6.656   6.898 -1.4010 -1.4630  0.8725
  154SAPE   C2817100   4.230   6.753   7.084 -0.0211  0.5318  0.0867
  154SAPE   H8R17101   4.267   6.841   7.029 -0.6015  1.2690  0.8526
  154SAPE   C2917102   4.241   6.750   7.222  0.8418 -0.4688 -0.2557
  154SAPE   H9R17103   4.272   6.840   7.277  0.3823 -0.7178  0.4321
  154SAPE  C21017104   4.214   6.637   7.317 -0.0987  0.4956 -0.8456
  154SAPE  H10R17105   4.296   6.634   7.392 -0.2755 -1.1154 -0.6781
  154SAPE  H10S17106   4.210   6.542   7.260  3.1245 -0.4610  0.2769
  154SAPE  C21117107   4.083   6.643   7.386  0.7652 -0.6892  0.8272
  154SAPE  H11R17108   3.991   6.628   7.328  0.0911  2.2968  0.9947
  154SAPE  C21217109   4.059   6.667   7.515 -0.6454  0.2380  0.3098
  154SAPE  H12R17110   3.954   6.653   7.546 -0.8864  0.2812 -0.4751
  154SAPE  C21317111   4.151   6.685   7.627 -0.0758 -0.6346 -0.0881
  154SAPE  H13R17112   4.254   6.679   7.589 -0.4960 -2.1031 -1.0573
  154SAPE  H13S17113   4.149   6.594   7.690 -2.2389 -0.4906  0.1328
  154SAPE  C21417114   4.124   6.816   7.701  0.2228  0.5413  0.1036
  154SAPE  H14R17115   4.103   6.905   7.641 -1.0579 -0.6294 -1.2910
  154SAPE  C21517116   4.107   6.825   7.841 -0.1673 -0.2047  0.2699
  154SAPE  H15R17117   4.075   6.916   7.894  1.2143  0.1873  0.4871
  154SAPE  C21617118   4.111   6.702   7.931 -0.0014 -0.4217 -0.0661
  154SAPE  H16R17119   4.176   6.623   7.888  1.8137 -0.0233  1.7570
  154SAPE  H16S17120   4.006   6.666   7.926  0.0635 -0.4407 -1.7124
  154SAPE  C21717121   4.162   6.734   8.073 -0.5552 -0.6301 -0.6611
  154SAPE  H17R17122   4.106   6.818   8.118 -0.8829 -2.2348  2.1546
  154SAPE  H17S17123   4.268   6.767   8.071  0.1621 -2.4456  2.1124
  154SAPE  C21817124   4.149   6.611   8.166 -0.5077 -0.6133  0.6136
  154SAPE  H18R17125   4.171   6.519   8.108 -2.5115 -0.0223 -1.1913
  154SAPE  H18S17126   4.050   6.603   8.215 -0.1090  0.5863  1.6864
  154SAPE  C21917127   4.245   6.621   8.287 -0.3886 -0.1837 -0.2920
  154SAPE  H19R17128   4.349   6.609   8.251 -0.6939 -0.1740 -1.2013
  154SAPE  H19S17129   4.213   6.540   8.355 -0.3966 -0.4704 -0.6377
  154SAPE  C22017130   4.242   6.756   8.371  0.3638 -0.0703 -0.4393
  154SAPE  H20R17131   4.142   6.753   8.419 -0.5185 -1.5085 -2.2426
  154SAPE  H20S17132   4.236   6.842   8.301  0.7327  0.4268  0.1258
  154SAPE  H20T17133   4.323   6.773   8.445  0.3468 -1.7359  0.0182
  154SAPE   C3317134   3.855   6.300   6.942 -0.3719 -0.1236  0.0950
  154SAPE   H3X17135   3.966   6.300   6.941 -0.3428 -0.2322  1.6863
  154SAPE   H3Y17136   3.819   6.196   6.960 -1.9040  0.7590  2.4561
  154SAPE   C3417137   3.803   6.386   7.058  0.4090 -0.1037  0.2255
  154SAPE   H4X17138   3.694   6.369   7.068  0.8926 -2.4071  2.3636
  154SAPE   H4Y17139   3.821   6.491   7.026  2.5557 -0.6147 -0.3930
  154SAPE   C3517140   3.864   6.341   7.191 -0.6123 -0.2148  0.2088
  154SAPE   H5X17141   3.958   6.398   7.206 -1.0913  0.5538  0.3608
  154SAPE   H5Y17142   3.887   6.233   7.182 -0.5357 -0.0990 -1.2352
  154SAPE   C3617143   3.774   6.363   7.316 -0.9456  0.8183  0.1186
  154SAPE   H6X17144   3.703   6.280   7.299 -2.6803  2.3251 -0.2168
  154SAPE   H6Y17145   3.728   6.462   7.336 -0.1248  1.0496  0.9511
  154SAPE   C3717146   3.858   6.322   7.441  0.1170 -0.2295 -0.1234
  154SAPE   H7X17147   3.952   6.379   7.456  0.0450 -0.3937  1.0051
  154SAPE   H7Y17148   3.897   6.221   7.416  0.2116  0.1513 -1.6209
  154SAPE   C3817149   3.780   6.308   7.572 -0.9757  0.3326 -0.1370
  154SAPE   H8X17150   3.709   6.223   7.566 -0.5530  0.0857 -2.5762
  154SAPE   H8Y17151   3.723   6.403   7.576 -3.8324 -1.2177 -0.9694
  154SAPE   C3917152   3.865   6.293   7.699  0.6684 -0.4122 -0.8831
  154SAPE   H9X17153   3.931   6.383   7.695  1.0180 -0.6746 -1.1306
  154SAPE   H9Y17154   3.920   6.196   7.698  3.0941  0.8694 -2.1445
  154SAPE  C31017155   3.773   6.308   7.820 -0.9148 -0.4361 -0.0771
  154SAPE  H10X17156   3.749   6.204   7.853 -1.2405  0.5755  3.3227
  154SAPE  H10Y17157   3.677   6.362   7.805  0.5327  2.1363 -0.4892
  154SAPE  C31117158   3.850   6.380   7.931 -0.3790  0.0537 -0.0858
  154SAPE  H11X17159   3.889   6.478   7.894  0.9821 -0.0466  1.0187
  154SAPE  H11Y17160   3.941   6.323   7.957  0.3042  1.2372  0.1882
  154SAPE  C31217161   3.766   6.400   8.059 -0.2101 -0.0597 -0.3345
  154SAPE  H12X17162   3.670   6.443   8.022  0.5308  0.0448 -2.2728
  154SAPE  H12Y17163   3.815   6.476   8.123 -1.1087  1.5848 -1.5144
  154SAPE  C31317164   3.719   6.275   8.140  0.2408 -0.0536 -0.0000
  154SAPE  H13X17165   3.817   6.244   8.183  0.1570  2.4808  2.3105
  154SAPE  H13Y17166   3.686   6.184   8.086 -1.8023  1.1025 -0.7847
  154SAPE  C31417167   3.605   6.306   8.250 -0.1848  0.1228  0.2056
  154SAPE  H14X17168   3.512   6.341   8.201  1.1767  0.0843 -2.5705
  154SAPE  H14Y17169   3.637   6.394   8.310  0.3069 -0.1260  0.3183
  154SAPE  C31517170   3.589   6.179   8.339 -0.1356 -0.1824 -0.0786
  154SAPE  H15X17171   3.675   6.159   8.406 -2.1353 -1.5322  2.2322
  154SAPE  H15Y17172   3.580   6.088   8.276  1.2386 -1.2168  1.1558
  154SAPE  C31617173   3.467   6.186   8.440  0.2278 -0.0094 -0.2429
  154SAPE  H16X17174   3.463   6.079   8.469  0.2186 -0.7206 -2.6188
  154SAPE  H16Y17175   3.377   6.204   8.378  0.0913  0.3663  0.0621
  154SAPE  C31717176   3.475   6.286   8.561  0.4649 -0.2142 -0.7609
  154SAPE  H17X17177   3.573   6.275   8.612  0.7668  0.3119 -1.2064
  154SAPE  H17Y17178   3.402   6.245   8.634  1.2796  2.3745  1.6884
  154SAPE  C31817179   3.461   6.429   8.537 -0.2259  0.3858  0.3954
  154SAPE  H18X17180   3.471   6.488   8.630 -1.9805  1.7671 -0.2438
  154SAPE  H18Y17181   3.363   6.458   8.494 -0.9984  0.4245  2.1224
  154SAPE  H18Z17182   3.539   6.471   8.470 -1.7016  1.5412 -0.6613
  155SAPE     N17183   3.668   1.010   6.356 -0.2901 -0.2846  0.3998
  155SAPE   HN117184   3.622   0.935   6.412 -1.2588  1.6353  2.3338
  155SAPE   HN217185   3.704   1.093   6.408  3.2302  0.4201 -2.7483
  155SAPE   HN317186   3.595   1.054   6.298 -0.5211 -1.3695 -0.1462
  155SAPE   C1217187   3.785   0.955   6.279  0.1452 -0.2236  0.0622
  155SAPE  H12A17188   3.750   0.873   6.212  1.9079 -0.3505 -0.7871
  155SAPE  H12B17189   3.859   0.912   6.349  1.1854 -0.6266 -1.2285
  155SAPE   C1117190   3.854   1.072   6.204 -0.1210 -0.5104 -0.3637
  155SAPE  H11A17191   3.931   1.039   6.132  0.4780  1.0039 -0.4455
  155SAPE  H11B17192   3.906   1.135   6.279  1.8085  0.7287 -2.5939
  155SAPE     P17193   3.803   1.280   6.051  0.1182 -0.3992 -0.2914
  155SAPE   O1317194   3.903   1.260   5.949 -0.0703 -0.2526  0.1994
  155SAPE   O1417195   3.676   1.344   6.002 -0.0727  0.0272  0.0839
  155SAPE   O1217196   3.762   1.150   6.131 -0.7882 -0.2016  0.0705
  155SAPE   O1117197   3.864   1.376   6.164 -0.3549  0.2311  0.8192
  155SAPE    C117198   3.770   1.425   6.261 -0.2131  0.6800  0.3691
  155SAPE    HA17199   3.687   1.479   6.212  1.4913  2.3648 -0.7969
  155SAPE    HB17200   3.709   1.341   6.302  0.7316 -0.8121 -1.1316
  155SAPE    C217201   3.829   1.522   6.366 -0.4091  0.2209 -0.4253
  155SAPE    HS17202   3.884   1.602   6.310 -0.3190 -0.5237 -1.4355
  155SAPE   O2117203   3.931   1.452   6.447 -0.4044 -0.2547 -0.1662
  155SAPE   C2117204   4.043   1.507   6.478  0.3443  0.2011  0.3098
  155SAPE   O2217205   4.085   1.616   6.434  0.2460 -0.3220  0.1879
  155SAPE   C2217206   4.121   1.424   6.578  0.2260 -0.3541 -0.4342
  155SAPE   H2R17207   4.135   1.329   6.522  1.7804 -0.2257 -0.2877
  155SAPE   H2S17208   4.221   1.470   6.591 -1.1645  2.6503  0.7073
  155SAPE    C317209   3.713   1.571   6.460  0.5453  0.1032 -0.1707
  155SAPE    HX17210   3.648   1.620   6.384 -1.1657 -3.8324 -1.5475
  155SAPE    HY17211   3.744   1.642   6.539 -3.3384 -1.4905  3.1643
  155SAPE   O3117212   3.639   1.462   6.525  0.8907 -0.3118  0.0451
  155SAPE   C3117213   3.562   1.495   6.631 -0.0921  0.2326 -0.3141
  155SAPE   O3217214   3.533   1.608   6.668 -0.0916 -0.5239 -0.2150
  155SAPE   C3217215   3.502   1.369   6.690  0.0848  0.0609 -0.1684
  155SAPE   H2X17216   3.547   1.280   6.640  1.3199  1.0254 -0.8167
  155SAPE   H2Y17217   3.395   1.384   6.664 -0.2582 -2.7570 -0.7821
  155SAPE   C2317218   4.060   1.404   6.723 -0.6647  0.1402  0.0985
  155SAPE   H3R17219   3.968   1.342   6.722  0.0803 -1.0030 -1.1554
  155SAPE   H3S17220   4.040   1.506   6.763  1.5552  1.1822 -1.2386
  155SAPE   C2417221   4.178   1.348   6.808  0.2972  1.0888 -0.4202
  155SAPE   H4R17222   4.265   1.417   6.803  0.0734  1.6334  1.7833
  155SAPE   H4S17223   4.211   1.251   6.766 -0.6384  0.5532  0.0427
  155SAPE   C2517224   4.153   1.340   6.957  0.2112  0.9148 -0.0475
  155SAPE   H5R17225   4.114   1.429   7.010  0.7451  1.0730  0.0861
  155SAPE   C2617226   4.185   1.237   7.036 -0.2660  0.1882  0.0757
  155SAPE   H6R17227   4.156   1.253   7.141 -1.8430 -2.1441  0.0556
  155SAPE   C2717228   4.250   1.103   6.996 -0.2517  0.1371 -0.1763
  155SAPE   H7R17229   4.300   1.112   6.897 -2.6824 -0.8541 -1.5999
  155SAPE   H7S17230   4.168   1.030   6.976  0.7937 -1.9150  2.4287
  155SAPE   C2817231   4.342   1.069   7.113 -0.5589  0.1764 -0.5440
  155SAPE   H8R17232   4.435   1.129   7.120  0.9758 -2.0971 -0.2096
  155SAPE   C2917233   4.326   0.980   7.213  0.1256 -0.1630 -0.0912
  155SAPE   H9R17234   4.404   0.966   7.289  0.2974  0.4507 -0.1572
  155SAPE  C21017235   4.203   0.884   7.220 -0.8520 -0.4257 -0.5631
  155SAPE  H10R17236   4.189   0.831   7.123  1.7992 -2.6316  0.1241
  155SAPE  H10S17237   4.109   0.940   7.239 -2.4317 -3.2615  0.5155
  155SAPE  C21117238   4.213   0.761   7.309  0.2066 -0.2157  0.2710
  155SAPE  H11R17239   4.295   0.692   7.283  0.1199 -0.8143  1.5305
  155SAPE  C21217240   4.164   0.760   7.435 -0.9949  0.3913  0.5612
  155SAPE  H12R17241   4.183   0.676   7.504  2.8156  1.6310  1.2671
  155SAPE  C21317242   4.081   0.869   7.491  0.1303 -0.0823  0.1876
  155SAPE  H13R17243   4.016   0.829   7.571 -0.2701 -0.1120 -0.1482
  155SAPE  H13S17244   4.009   0.890   7.409 -0.1443 -2.7404 -0.3614
  155SAPE  C21417245   4.140   0.998   7.528 -0.3565 -0.0626 -0.3223
  155SAPE  H14R17246   4.156   1.060   7.439  0.1533 -2.2774 -1.8493
  155SAPE  C21517247   4.156   1.041   7.657 -0.3903  0.0607  0.0748
  155SAPE  H15R17248   4.206   1.138   7.671 -0.6387 -0.0613  1.9733
  155SAPE  C21617249   4.126   0.952   7.781 -0.6867  0.0059  0.2650
  155SAPE  H16R17250   4.123   0.843   7.758 -2.7273  0.0930 -0.1231
  155SAPE  H16S17251   4.025   0.981   7.816 -0.6709  1.0633 -0.5119
  155SAPE  C21717252   4.230   0.972   7.895 -0.0703 -0.0750 -0.8896
  155SAPE  H17R17253   4.227   1.080   7.920 -0.3678 -0.6248  1.7116
  155SAPE  H17S17254   4.335   0.955   7.863  0.4126 -1.0883  1.0713
  155SAPE  C21817255   4.192   0.879   8.010 -0.3696  0.1339 -0.4946
  155SAPE  H18R17256   4.196   0.776   7.967 -1.7134  0.6974 -2.0671
  155SAPE  H18S17257   4.084   0.897   8.030 -0.3426 -0.8568  0.6530
  155SAPE  C21917258   4.276   0.898   8.143 -0.3533  0.0261  0.6019
  155SAPE  H19R17259   4.290   1.005   8.168  0.4108 -0.2964  1.6089
  155SAPE  H19S17260   4.381   0.862   8.134  0.4004  2.5413 -2.1977
  155SAPE  C22017261   4.225   0.829   8.267  0.3071 -0.3728  0.1989
  155SAPE  H20R17262   4.136   0.878   8.312  1.0556 -0.5876  2.0103
  155SAPE  H20S17263   4.300   0.827   8.349  0.9489  0.4363 -0.3480
  155SAPE  H20T17264   4.197   0.722   8.258  1.3423 -0.7439  1.0805
  155SAPE   C3317265   3.510   1.364   6.843  0.3426 -0.5818 -0.2280
  155SAPE   H3X17266   3.424   1.313   6.891  0.3287 -1.2283 -0.9147
  155SAPE   H3Y17267   3.510   1.468   6.881 -1.8819 -0.0016 -1.5955
  155SAPE   C3417268   3.638   1.292   6.888  0.5353  0.4909  0.6951
  155SAPE   H4X17269   3.721   1.341   6.834 -0.6135 -0.1810 -1.8193
  155SAPE   H4Y17270   3.627   1.185   6.862 -0.5773 -0.1256  3.3483
  155SAPE   C3517271   3.649   1.306   7.038  0.8303 -0.3542  0.3707
  155SAPE   H5X17272   3.561   1.257   7.084 -0.1885  0.0214 -1.1209
  155SAPE   H5Y17273   3.654   1.416   7.056  0.6293 -0.3950  0.6778
  155SAPE   C3617274   3.773   1.237   7.096 -0.8041  0.5869  0.4871
  155SAPE   H6X17275   3.856   1.295   7.049 -1.3220  2.2634  1.5238
  155SAPE   H6Y17276   3.790   1.131   7.070  3.7130  1.0153  0.9529
  155SAPE   C3717277   3.769   1.253   7.250 -0.3501  0.3459 -0.2469
  155SAPE   H7X17278   3.674   1.215   7.294 -0.0728 -0.9261 -0.7019
  155SAPE   H7Y17279   3.762   1.363   7.265 -0.0461  0.3679 -0.2703
  155SAPE   C3817280   3.892   1.184   7.318  0.4154 -0.0282 -0.2623
  155SAPE   H8X17281   3.981   1.192   7.252  0.1059  0.3976 -0.6381
  155SAPE   H8Y17282   3.866   1.078   7.337 -1.2882 -0.5281 -4.2501
  155SAPE   C3917283   3.917   1.250   7.459  0.1586  0.4175 -0.4819
  155SAPE   H9X17284   3.905   1.358   7.436 -0.1591  0.1988 -1.3622
  155SAPE   H9Y17285   4.013   1.231   7.512 -0.7736  0.2612  1.2201
  155SAPE  C31017286   3.821   1.213   7.577 -0.0343  0.3208 -0.8791
  155SAPE  H10X17287   3.824   1.103   7.594  0.4054  0.2654 -1.3142
  155SAPE  H10Y17288   3.714   1.235   7.556  0.2651  2.6966 -0.1995
  155SAPE  C31117289   3.857   1.290   7.711  0.0747 -0.2492  0.4814
  155SAPE  H11X17290   3.855   1.397   7.682  2.6132 -0.3088 -0.1316
  155SAPE  H11Y17291   3.957   1.261   7.750  0.1773  0.1619  0.5289
  155SAPE  C31217292   3.759   1.251   7.826  0.2510 -0.4184  0.5417
  155SAPE  H12X17293   3.764   1.141   7.834 -2.9971 -0.7769 -0.8377
  155SAPE  H12Y17294   3.650   1.268   7.809  0.2305 -1.4617 -0.4749
  155SAPE  C31317295   3.791   1.323   7.960  0.1496  0.0631  0.1861
  155SAPE  H13X17296   3.895   1.312   7.998 -0.4316 -1.6898  1.4013
  155SAPE  H13Y17297   3.729   1.267   8.033 -0.8231  0.1309 -0.5636
  155SAPE  C31417298   3.742   1.465   7.969 -0.7385 -0.5012 -0.9219
  155SAPE  H14X17299   3.635   1.472   7.941 -0.5522 -0.2020 -1.5833
  155SAPE  H14Y17300   3.803   1.521   7.895  2.7719  1.7459  3.2403
  155SAPE  C31517301   3.759   1.547   8.097  0.8050 -0.1474 -0.1922
  155SAPE  H15X17302   3.721   1.650   8.082  0.7134 -0.4388 -2.2468
  155SAPE  H15Y17303   3.868   1.562   8.114  0.5725 -1.1972  2.7790
  155SAPE  C31617304   3.710   1.478   8.224 -0.2037 -0.0670 -0.4900
  155SAPE  H16X17305   3.782   1.393   8.234 -0.3423 -0.1809 -0.4497
  155SAPE  H16Y17306   3.610   1.433   8.205  0.7680 -3.0237  0.7197
  155SAPE  C31717307   3.711   1.562   8.346  0.5807 -0.0964  0.0255
  155SAPE  H17X17308   3.627   1.635   8.342  0.0250 -0.7659 -1.4831
  155SAPE  H17Y17309   3.800   1.628   8.341 -0.8808  1.9599 -0.1522
  155SAPE  C31817310   3.726   1.495   8.481  0.6412  0.4450 -0.8202
  155SAPE  H18X17311   3.812   1.425   8.482  0.3359  0.0462  0.9796
  155SAPE  H18Y17312   3.652   1.413   8.489  1.4202 -0.0842  2.3649
  155SAPE  H18Z17313   3.729   1.561   8.570  1.4827  0.3751 -0.7924
  156SAPE     N17314   2.973   3.587   6.627  0.1768 -0.3370  0.2310
  156SAPE   HN117315   2.947   3.588   6.527  0.7050  0.2726  0.0906
  156SAPE   HN217316   3.024   3.500   6.651  0.7135  0.0775  0.6204
  156SAPE   HN317317   2.889   3.587   6.689  0.9267 -4.0573  1.4854
  156SAPE   C1217318   3.065   3.703   6.648  0.0196 -0.2497  0.7641
  156SAPE  H12A17319   3.075   3.726   6.756  1.0409 -0.8704  0.8165
  156SAPE  H12B17320   3.034   3.791   6.588  0.6812 -0.3233  0.3019
  156SAPE   C1117321   3.200   3.663   6.589 -1.0748  0.0225  0.4050
  156SAPE  H11A17322   3.246   3.584   6.651 -1.1270  0.2864  0.7863
  156SAPE  H11B17323   3.267   3.751   6.604  0.0701 -0.5447 -1.1500
  156SAPE     P17324   3.302   3.562   6.379  0.1515  0.7114  0.0894
  156SAPE   O1317325   3.252   3.422   6.366  0.3184 -0.1272  0.5620
  156SAPE   O1417326   3.338   3.637   6.261  0.2945 -0.3134 -0.4360
  156SAPE   O1217327   3.184   3.641   6.449 -0.0618 -0.3660  0.4872
  156SAPE   O1117328   3.416   3.558   6.488 -0.0816  0.3117  0.4760
  156SAPE    C117329   3.553   3.514   6.457  0.1612  0.0295  0.1646
  156SAPE    HA17330   3.601   3.554   6.365  2.3797  1.6055  1.8681
  156SAPE    HB17331   3.627   3.549   6.533  3.0537 -2.2233 -1.4225
  156SAPE    C217332   3.563   3.354   6.456 -0.8039  0.0433  0.1258
  156SAPE    HS17333   3.515   3.311   6.365  0.0017  1.5774 -1.0876
  156SAPE   O2117334   3.495   3.305   6.571 -0.6266 -0.1304  0.0866
  156SAPE   C2117335   3.469   3.176   6.567  0.0483  0.1420 -0.3517
  156SAPE   O2217336   3.493   3.103   6.473  0.3742  0.4164 -0.1726
  156SAPE   C2217337   3.439   3.141   6.715 -0.3282  0.1011 -0.0416
  156SAPE   H2R17338   3.445   3.231   6.779 -3.1135 -1.2406  2.3387
  156SAPE   H2S17339   3.331   3.118   6.715 -1.2610  3.8522  0.6883
  156SAPE    C317340   3.709   3.297   6.457 -0.0308 -0.4248 -0.1842
  156SAPE    HX17341   3.757   3.344   6.369  1.3600  1.2770  1.3897
  156SAPE    HY17342   3.714   3.188   6.437  1.6110 -0.6204  1.0237
  156SAPE   O3117343   3.793   3.330   6.579 -0.1628  0.4567  0.1938
  156SAPE   C3117344   3.900   3.254   6.604  0.2534 -0.2146 -0.2306
  156SAPE   O3217345   3.926   3.158   6.534  0.0051  0.0193  0.8903
  156SAPE   C3217346   3.975   3.311   6.718  0.0236  0.6749 -0.0068
  156SAPE   H2X17347   3.894   3.335   6.790 -0.1379  0.7095 -0.1993
  156SAPE   H2Y17348   4.035   3.402   6.698  2.6887 -1.2353 -1.2964
  156SAPE   C2317349   3.509   3.015   6.766  0.0732  0.0612  0.4404
  156SAPE   H3R17350   3.507   2.929   6.695  4.2864  0.8050 -0.8838
  156SAPE   H3S17351   3.454   2.987   6.858 -1.1627 -4.0285 -1.3043
  156SAPE   C2417352   3.653   3.023   6.806  0.1540 -0.6336  0.2720
  156SAPE   H4R17353   3.721   3.042   6.721  0.7807 -0.4684  0.8060
  156SAPE   H4S17354   3.683   2.934   6.866  0.0606 -1.5981 -1.0744
  156SAPE   C2517355   3.669   3.144   6.894 -0.4471  0.1940  0.7201
  156SAPE   H5R17356   3.649   3.241   6.846  0.0370  0.7552  1.6257
  156SAPE   C2617357   3.709   3.143   7.021 -0.2670 -0.4631  0.0001
  156SAPE   H6R17358   3.708   3.241   7.070  1.0210 -0.6204  0.3809
  156SAPE   C2717359   3.756   3.026   7.101 -0.1297  0.2290 -0.1071
  156SAPE   H7R17360   3.824   3.058   7.182 -2.0174 -1.4282  2.2575
  156SAPE   H7S17361   3.823   2.964   7.038  0.0779  0.1785  0.1627
  156SAPE   C2817362   3.647   2.931   7.151 -0.3611 -0.3777 -0.2386
  156SAPE   H8R17363   3.581   2.890   7.073 -1.2732 -0.5055  0.5816
  156SAPE   C2917364   3.638   2.880   7.280 -0.0493 -0.4994  0.1229
  156SAPE   H9R17365   3.552   2.816   7.304 -1.5444  0.4399 -2.3452
  156SAPE  C21017366   3.735   2.901   7.395 -0.5261 -0.4449  0.1133
  156SAPE  H10R17367   3.707   2.983   7.465 -0.4976 -1.4559  1.3548
  156SAPE  H10S17368   3.833   2.940   7.360 -1.1992 -1.4619 -3.2171
  156SAPE  C21117369   3.764   2.788   7.492 -0.0896  0.4358 -0.1242
  156SAPE  H11R17370   3.785   2.689   7.451  2.0851 -0.0573  1.9598
  156SAPE  C21217371   3.754   2.787   7.626  0.2837  1.0733  1.0216
  156SAPE  H12R17372   3.772   2.693   7.681  0.2140  1.1517  1.1810
  156SAPE  C21317373   3.720   2.890   7.730 -0.2552  0.5193  0.1247
  156SAPE  H13R17374   3.728   2.856   7.836 -3.0530  0.5109  0.4203
  156SAPE  H13S17375   3.610   2.904   7.725 -0.4128 -0.2260  1.1175
  156SAPE  C21417376   3.793   3.022   7.726 -0.8217 -1.1864 -0.4834
  156SAPE  H14R17377   3.841   3.050   7.631  0.0933  1.4211  0.6631
  156SAPE  C21517378   3.777   3.107   7.834  0.1480  0.8058 -0.0222
  156SAPE  H15R17379   3.835   3.200   7.825  2.2398 -0.5038 -0.6113
  156SAPE  C21617380   3.701   3.089   7.963 -0.2376  0.0862 -0.5501
  156SAPE  H16R17381   3.764   3.063   8.051  0.3024 -1.1138 -1.2713
  156SAPE  H16S17382   3.629   3.006   7.946 -2.0137  1.7286 -1.4779
  156SAPE  C21717383   3.625   3.213   8.008  0.2976  0.1204  0.5238
  156SAPE  H17R17384   3.573   3.193   8.104 -1.0616 -0.5167 -0.3126
  156SAPE  H17S17385   3.542   3.225   7.934  1.4218  3.9895 -0.3673
  156SAPE  C21817386   3.695   3.353   8.019  0.1374  0.1630  0.2956
  156SAPE  H18R17387   3.755   3.377   7.928 -1.4116 -0.4313 -0.9364
  156SAPE  H18S17388   3.751   3.343   8.114 -2.1601 -0.6985  1.6477
  156SAPE  C21917389   3.592   3.467   8.031  0.5008  0.8440 -0.3575
  156SAPE  H19R17390   3.555   3.455   8.135 -0.3613 -2.4526 -0.9128
  156SAPE  H19S17391   3.498   3.456   7.972 -0.7725 -0.2035  1.7452
  156SAPE  C22017392   3.642   3.609   8.010  0.2855  0.3406 -1.3175
  156SAPE  H20R17393   3.636   3.642   7.904 -1.3969  0.8798 -1.0830
  156SAPE  H20S17394   3.735   3.635   8.066 -0.9267  0.2524  0.8456
  156SAPE  H20T17395   3.561   3.670   8.054 -1.2120 -2.9589  0.9021
  156SAPE   C3317396   4.067   3.215   6.798  0.3333 -0.1252 -0.0265
  156SAPE   H3X17397   4.164   3.207   6.745  0.7847 -1.4796  0.9499
  156SAPE   H3Y17398   4.023   3.113   6.805  1.2669 -0.6570 -1.4394
  156SAPE   C3417399   4.087   3.267   6.936  0.2421 -0.7854 -0.1875
  156SAPE   H4X17400   3.985   3.296   6.969 -0.7960 -1.4489 -2.5773
  156SAPE   H4Y17401   4.148   3.358   6.948 -2.0169  0.9119 -0.8796
  156SAPE   C3517402   4.129   3.162   7.045  0.9283  0.2094  0.3556
  156SAPE   H5X17403   4.223   3.114   7.011  0.9169 -0.0524  0.6906
  156SAPE   H5Y17404   4.059   3.075   7.040  2.6688 -1.1627 -2.8653
  156SAPE   C3617405   4.143   3.223   7.184 -0.5766  0.2916 -0.1306
  156SAPE   H6X17406   4.047   3.273   7.209 -0.7668  1.1946 -2.4730
  156SAPE   H6Y17407   4.214   3.309   7.182 -0.4809  0.2695  1.3420
  156SAPE   C3717408   4.185   3.120   7.293 -0.4131 -0.0942 -0.6974
  156SAPE   H7X17409   4.291   3.087   7.296 -0.2523  0.4386  1.5213
  156SAPE   H7Y17410   4.125   3.026   7.291 -0.1321 -0.3051  0.3047
  156SAPE   C3817411   4.146   3.193   7.427 -0.2419  0.2084 -0.4115
  156SAPE   H8X17412   4.039   3.220   7.438 -0.0791  2.5746 -3.2195
  156SAPE   H8Y17413   4.188   3.296   7.422  0.1226  0.1059  0.5264
  156SAPE   C3917414   4.184   3.129   7.568  0.2197  1.0514  0.4439
  156SAPE   H9X17415   4.288   3.091   7.557 -0.0486  0.7934 -1.6812
  156SAPE   H9Y17416   4.124   3.036   7.563  3.0244 -0.8883 -0.1164
  156SAPE  C31017417   4.172   3.215   7.690 -0.9759 -0.4893 -0.4342
  156SAPE  H10X17418   4.067   3.249   7.703 -0.0406  1.9469  1.5150
  156SAPE  H10Y17419   4.230   3.309   7.676 -0.0181 -0.7400  1.6027
  156SAPE  C31117420   4.223   3.137   7.815 -0.6406  0.0316 -0.6501
  156SAPE  H11X17421   4.326   3.094   7.806  1.2016  3.6338  0.9429
  156SAPE  H11Y17422   4.163   3.043   7.822 -0.8704  0.0194 -2.3156
  156SAPE  C31217423   4.223   3.212   7.950  0.1521  0.0584 -0.8384
  156SAPE  H12X17424   4.118   3.227   7.982  0.2998  2.8922 -1.3968
  156SAPE  H12Y17425   4.273   3.310   7.934  0.6482  0.1786  1.1710
  156SAPE  C31317426   4.304   3.156   8.068  0.4937 -0.5548  0.3257
  156SAPE  H13X17427   4.401   3.126   8.024  2.0404  0.8760  2.5455
  156SAPE  H13Y17428   4.248   3.068   8.105  1.0382 -0.9559  0.1909
  156SAPE  C31417429   4.318   3.256   8.183  0.1555 -0.2109 -0.4462
  156SAPE  H14X17430   4.371   3.346   8.144  0.9801 -0.9220 -1.0006
  156SAPE  H14Y17431   4.389   3.215   8.258 -0.3531 -1.2776 -0.5282
  156SAPE  C31517432   4.188   3.305   8.243  0.5298 -0.0290  0.0052
  156SAPE  H15X17433   4.134   3.378   8.179  1.5927 -0.6526 -1.6780
  156SAPE  H15Y17434   4.213   3.360   8.336 -1.6745  2.6981 -0.8703
  156SAPE  C31617435   4.098   3.184   8.282 -0.8906  0.4573  0.1533
  156SAPE  H16X17436   4.160   3.110   8.336 -3.4407 -1.5161  0.5597
  156SAPE  H16Y17437   4.060   3.136   8.190 -0.5873  1.2040 -0.3689
  156SAPE  C31717438   3.975   3.228   8.365 -0.6608  0.4104  0.4686
  156SAPE  H17X17439   3.914   3.298   8.305 -0.6254  0.6724  0.7324
  156SAPE  H17Y17440   4.020   3.270   8.458 -0.1608 -0.7456  0.7668
  156SAPE  C31817441   3.891   3.107   8.417 -0.2798 -0.1729  0.0515
  156SAPE  H18X17442   3.941   3.046   8.495 -2.4187 -0.0150  1.6743
  156SAPE  H18Y17443   3.863   3.038   8.335  3.2156 -1.5573 -0.1406
  156SAPE  H18Z17444   3.808   3.144   8.482 -0.8421  0.4355 -0.9832
  157SAPE     N17445   1.890   4.884   6.222  0.3967  0.3352  0.0983
  157SAPE   HN117446   1.964   4.857   6.290 -1.4743  0.0750  2.1241
  157SAPE   HN217447   1.858   4.797   6.176 -2.1146  1.5595 -0.6305
  157SAPE   HN317448   1.917   4.960   6.156 -0.9129  0.2978 -0.5055
  157SAPE   C1217449   1.766   4.916   6.294  0.0495  0.0833 -0.7819
  157SAPE  H12A17450   1.695   4.930   6.210  1.9744 -0.5065 -2.5665
  157SAPE  H12B17451   1.783   5.008   6.354  0.5882 -0.4471 -0.1019
  157SAPE   C1117452   1.698   4.797   6.368  0.1408  0.2873 -0.2329
  157SAPE  H11A17453   1.608   4.836   6.420  0.3722  0.7343 -0.1686
  157SAPE  H11B17454   1.769   4.765   6.447  1.1752 -0.8073 -1.5528
  157SAPE     P17455   1.704   4.543   6.281  0.3151 -0.2634  0.0426
  157SAPE   O1317456   1.591   4.452   6.254  0.0605 -0.6023  0.6789
  157SAPE   O1417457   1.814   4.527   6.189 -0.0362  0.3730  0.0251
  157SAPE   O1217458   1.659   4.694   6.268 -0.0191  0.5779 -0.3113
  157SAPE   O1117459   1.749   4.520   6.433  0.3350  0.0958  0.0437
  157SAPE    C117460   1.654   4.480   6.537 -0.2383  0.2441  0.0756
  157SAPE    HA17461   1.681   4.531   6.632  0.4966 -0.1287  0.0731
  157SAPE    HB17462   1.553   4.525   6.528 -0.9787 -0.7620  2.6258
  157SAPE    C217463   1.638   4.323   6.535 -0.0050 -0.4569  0.1096
  157SAPE    HS17464   1.548   4.315   6.470 -0.8144  2.3497  0.7507
  157SAPE   O2117465   1.599   4.270   6.657  0.0899  0.0874  0.0009
  157SAPE   C2117466   1.484   4.318   6.712  0.5896  0.5161 -0.0833
  157SAPE   O2217467   1.394   4.371   6.655  0.5892  0.1732  0.8602
  157SAPE   C2217468   1.490   4.297   6.868  0.1506 -0.0861 -0.2103
  157SAPE   H2R17469   1.452   4.194   6.886  2.8222 -1.2644 -0.7182
  157SAPE   H2S17470   1.598   4.295   6.894 -0.0768  1.5943  1.0011
  157SAPE    C317471   1.766   4.251   6.475  0.2301 -0.2716 -0.1522
  157SAPE    HX17472   1.844   4.271   6.552 -0.1101 -0.8708  0.3584
  157SAPE    HY17473   1.781   4.291   6.373 -0.9847  0.5587 -0.0282
  157SAPE   O3117474   1.744   4.111   6.470 -0.6274  0.7841 -0.2482
  157SAPE   C3117475   1.639   4.057   6.415  0.1427  0.4654 -0.0567
  157SAPE   O3217476   1.555   4.109   6.344 -0.0220 -0.5428  0.4227
  157SAPE   C3217477   1.630   3.908   6.441  0.2391  0.4332 -0.2166
  157SAPE   H2X17478   1.679   3.881   6.537 -1.9935  0.7829  1.0715
  157SAPE   H2Y17479   1.679   3.857   6.354 -0.6366 -1.2484  0.2400
  157SAPE   C2317480   1.412   4.404   6.951 -0.7973  1.0126  0.6148
  157SAPE   H3R17481   1.310   4.366   6.973 -1.2078  2.0876  0.6264
  157SAPE   H3S17482   1.377   4.495   6.897  0.0680  2.2380  2.0342
  157SAPE   C2417483   1.484   4.430   7.086 -0.1480 -0.5003  0.6094
  157SAPE   H4R17484   1.589   4.456   7.061 -0.1282 -1.2033 -0.0646
  157SAPE   H4S17485   1.475   4.342   7.153 -1.2349 -0.9781 -0.1267
  157SAPE   C2517486   1.424   4.540   7.166  0.2786 -0.6925 -0.0068
  157SAPE   H5R17487   1.416   4.637   7.115  1.0993 -0.0414  1.0794
  157SAPE   C2617488   1.375   4.528   7.289 -0.2099  0.2141 -0.8532
  157SAPE   H6R17489   1.332   4.620   7.331  1.2604  1.2429 -1.5340
  157SAPE   C2717490   1.360   4.404   7.381  0.3494 -0.4044 -0.0577
  157SAPE   H7R17491   1.305   4.329   7.320 -0.3466 -0.5552  0.7388
  157SAPE   H7S17492   1.286   4.429   7.460 -0.5750 -0.3518 -0.9251
  157SAPE   C2817493   1.493   4.353   7.441 -0.0218 -0.5742 -0.0245
  157SAPE   H8R17494   1.535   4.264   7.392 -1.6367 -1.3122 -0.1211
  157SAPE   C2917495   1.550   4.410   7.550  0.3053  0.7300 -0.3387
  157SAPE   H9R17496   1.641   4.363   7.588 -1.7029 -2.1189  1.3002
  157SAPE  C21017497   1.499   4.518   7.639  0.3219 -0.3626 -0.0499
  157SAPE  H10R17498   1.491   4.469   7.738 -1.3000  0.7649  0.4190
  157SAPE  H10S17499   1.397   4.545   7.606 -0.0926 -1.9873 -0.1576
  157SAPE  C21117500   1.590   4.640   7.637 -0.4534 -0.0367 -0.2539
  157SAPE  H11R17501   1.626   4.666   7.536 -2.2677  1.0700 -0.6657
  157SAPE  C21217502   1.618   4.711   7.747  0.1837  0.2399  0.8825
  157SAPE  H12R17503   1.690   4.794   7.741 -1.0761  1.2729 -1.4658
  157SAPE  C21317504   1.569   4.683   7.887  0.3293 -0.5310  0.7777
  157SAPE  H13R17505   1.481   4.615   7.882  0.3724 -0.6962  1.9725
  157SAPE  H13S17506   1.530   4.770   7.945  0.7413  1.1930 -1.3981
  157SAPE  C21417507   1.673   4.595   7.958  0.0654 -0.0238 -0.0907
  157SAPE  H14R17508   1.750   4.557   7.889  0.4159  1.3866 -0.5165
  157SAPE  C21517509   1.674   4.559   8.090  0.4123  0.4929  0.2544
  157SAPE  H15R17510   1.765   4.513   8.132 -1.7956 -2.5074  2.1062
  157SAPE  C21617511   1.566   4.601   8.187 -0.1216 -0.4492 -0.3782
  157SAPE  H16R17512   1.545   4.525   8.265  0.1295 -2.0702 -1.8509
  157SAPE  H16S17513   1.467   4.619   8.139  0.4624 -0.1183 -1.4928
  157SAPE  C21717514   1.601   4.741   8.254 -1.2910 -0.3676  0.0790
  157SAPE  H17R17515   1.518   4.780   8.317 -0.9159  4.5021 -1.9862
  157SAPE  H17S17516   1.632   4.810   8.172  1.0663 -0.7848  0.5672
  157SAPE  C21817517   1.735   4.730   8.331  0.1409 -0.1255 -0.1610
  157SAPE  H18R17518   1.824   4.706   8.270 -0.5376 -2.7179 -0.2348
  157SAPE  H18S17519   1.726   4.651   8.409  1.6346 -1.7720 -1.5886
  157SAPE  C21917520   1.763   4.865   8.405  0.8612 -0.0177  0.4203
  157SAPE  H19R17521   1.671   4.925   8.422  1.2831  0.9148 -0.4210
  157SAPE  H19S17522   1.835   4.921   8.341  0.1431  2.5682  1.7218
  157SAPE  C22017523   1.838   4.854   8.535  0.5663 -0.5223 -0.1452
  157SAPE  H20R17524   1.767   4.791   8.593 -0.1026  0.5631  0.2420
  157SAPE  H20S17525   1.836   4.949   8.592 -0.5101 -1.0749  0.7775
  157SAPE  H20T17526   1.933   4.795   8.537  0.9889  0.1625  1.0473
  157SAPE   C3317527   1.486   3.849   6.450  0.1270  0.4183 -0.4998
  157SAPE   H3X17528   1.488   3.743   6.419  2.0862 -0.0014  0.8910
  157SAPE   H3Y17529   1.411   3.898   6.384 -2.1581 -2.4569 -0.2039
  157SAPE   C3417530   1.436   3.849   6.595  0.2514 -0.1235 -0.7366
  157SAPE   H4X17531   1.415   3.955   6.623  1.5238 -0.3323  1.2122
  157SAPE   H4Y17532   1.513   3.816   6.668  1.2379  0.9553 -1.2508
  157SAPE   C3517533   1.304   3.767   6.601  0.6271  0.3823 -0.2555
  157SAPE   H5X17534   1.334   3.670   6.558 -1.2757 -0.4040  0.1003
  157SAPE   H5Y17535   1.215   3.805   6.546  0.0807 -0.7852 -0.2096
  157SAPE   C3617536   1.265   3.712   6.749 -0.6389  0.7544  0.2225
  157SAPE   H6X17537   1.354   3.653   6.781 -0.9158 -0.0047 -0.3943
  157SAPE   H6Y17538   1.180   3.641   6.739  0.0681 -0.1074  0.2732
  157SAPE   C3717539   1.233   3.825   6.853 -0.0600  0.2816 -0.3353
  157SAPE   H7X17540   1.124   3.846   6.854  0.0294  0.9246 -1.7565
  157SAPE   H7Y17541   1.275   3.916   6.805 -0.7120  2.8718  3.5448
  157SAPE   C3817542   1.297   3.790   6.991  0.3632  0.0144 -1.1541
  157SAPE   H8X17543   1.406   3.807   6.978  0.0650  3.6699 -0.0709
  157SAPE   H8Y17544   1.256   3.690   7.016  1.4839 -0.5203 -1.3962
  157SAPE   C3917545   1.248   3.889   7.096  0.2550  0.3943  0.0979
  157SAPE   H9X17546   1.139   3.883   7.113 -0.0006  1.0826 -1.1574
  157SAPE   H9Y17547   1.274   3.991   7.060 -1.1046  0.9873  0.7512
  157SAPE  C31017548   1.316   3.870   7.238  0.3675  0.2768 -0.3450
  157SAPE  H10X17549   1.424   3.892   7.223  0.5391 -0.0978  0.3095
  157SAPE  H10Y17550   1.308   3.763   7.266  1.0679  0.4971  0.7565
  157SAPE  C31117551   1.273   3.979   7.339 -0.6862 -0.0609  0.3090
  157SAPE  H11X17552   1.166   3.975   7.368 -1.2843  0.2426 -1.7016
  157SAPE  H11Y17553   1.280   4.084   7.301 -1.4221  0.4378  1.4926
  157SAPE  C31217554   1.362   3.984   7.469  0.0812  0.4354  0.3539
  157SAPE  H12X17555   1.457   4.037   7.448  0.9897 -1.2301  0.0922
  157SAPE  H12Y17556   1.383   3.877   7.493 -1.2950 -0.2282 -1.2521
  157SAPE  C31317557   1.290   4.051   7.588 -0.1961 -0.6122  0.7066
  157SAPE  H13X17558   1.232   3.966   7.631  2.3430 -2.4975  0.6213
  157SAPE  H13Y17559   1.220   4.123   7.541 -0.5109 -1.9403 -0.9757
  157SAPE  C31417560   1.382   4.118   7.687 -0.5288  0.1310 -0.2302
  157SAPE  H14X17561   1.458   4.196   7.662 -0.1726 -0.0432  0.3000
  157SAPE  H14Y17562   1.433   4.028   7.727 -0.0945 -0.2402 -1.5474
  157SAPE  C31517563   1.300   4.180   7.793  0.2019  0.0623 -0.0169
  157SAPE  H15X17564   1.208   4.121   7.814 -1.0207  1.2059 -1.9358
  157SAPE  H15Y17565   1.270   4.280   7.757  0.7726  0.8666  1.6191
  157SAPE  C31617566   1.375   4.184   7.929  0.1673 -0.1607 -0.4681
  157SAPE  H16X17567   1.481   4.200   7.899  0.1333 -2.2469 -1.8891
  157SAPE  H16Y17568   1.358   4.086   7.979 -0.8829 -1.1060 -2.5532
  157SAPE  C31717569   1.305   4.285   8.019 -0.0156  0.1240 -0.0779
  157SAPE  H17X17570   1.200   4.253   8.034 -0.5361  2.6330  2.6140
  157SAPE  H17Y17571   1.296   4.379   7.961  2.1896 -0.4259 -1.4222
  157SAPE  C31817572   1.387   4.301   8.147 -0.3095 -0.5069 -0.5157
  157SAPE  H18X17573   1.484   4.346   8.118  0.8532 -0.7347  2.5696
  157SAPE  H18Y17574   1.412   4.207   8.201  2.2608 -0.7325 -1.9487
  157SAPE  H18Z17575   1.333   4.377   8.207 -0.3305 -0.5506 -0.4782
  158SAPE     N17576   2.371   6.007   6.049  0.0153  0.0267  0.1493
  158SAPE   HN117577   2.387   6.101   6.006 -3.3490  0.5569 -0.1963
  158SAPE   HN217578   2.338   6.019   6.147 -0.0626  0.5809  0.0606
  158SAPE   HN317579   2.460   5.956   6.069 -0.2427 -0.0044  1.2471
  158SAPE   C1217580   2.277   5.917   5.963  0.6925  0.0194 -0.1414
  158SAPE  H12A17581   2.287   5.815   6.005  0.8858  0.1375  0.1032
  158SAPE  H12B17582   2.311   5.911   5.858  0.6875 -3.1531 -0.0353
  158SAPE   C1117583   2.134   5.970   5.985  0.1837  0.0174  0.1209
  158SAPE  H11A17584   2.065   5.889   5.953  0.3764  0.0200 -0.3059
  158SAPE  H11B17585   2.125   6.066   5.929 -0.2386  0.1106  0.3426
  158SAPE     P17586   2.022   6.100   6.185 -0.2602  0.0386 -0.1728
  158SAPE   O1317587   2.100   6.227   6.185  0.2108  0.2338 -0.5052
  158SAPE   O1417588   1.887   6.094   6.129 -0.0189 -0.2200 -0.2709
  158SAPE   O1217589   2.116   5.987   6.127  0.2095  0.0999 -0.1110
  158SAPE   O1117590   2.012   6.057   6.339 -0.2436 -0.3080  0.5065
  158SAPE    C117591   2.107   5.975   6.400  0.1049 -0.5382 -0.1773
  158SAPE    HA17592   2.208   5.994   6.357 -1.1605  2.7991 -2.0544
  158SAPE    HB17593   2.108   6.006   6.507  0.4123  1.7537 -0.7789
  158SAPE    C217594   2.072   5.825   6.389 -0.0620  0.1087  0.2682
  158SAPE    HS17595   2.080   5.793   6.282  1.6724 -1.2876  0.7577
  158SAPE   O2117596   1.940   5.814   6.440  0.0502  0.8173  0.2808
  158SAPE   C2117597   1.890   5.698   6.443 -0.6818 -0.0857  0.6808
  158SAPE   O2217598   1.929   5.597   6.387 -0.3830  0.5410 -0.0485
  158SAPE   C2217599   1.765   5.714   6.533 -0.0984  1.0897  0.1312
  158SAPE   H2R17600   1.692   5.771   6.471  0.3209  2.7400  1.1059
  158SAPE   H2S17601   1.730   5.611   6.558 -0.2488  0.7738 -1.3112
  158SAPE    C317602   2.179   5.741   6.466 -0.2748  0.2788  0.0444
  158SAPE    HX17603   2.278   5.768   6.424 -0.8134 -0.6915 -1.9779
  158SAPE    HY17604   2.151   5.635   6.448 -1.3931  0.3946  0.9797
  158SAPE   O3117605   2.173   5.780   6.605  0.5036 -0.1604  0.2418
  158SAPE   C3117606   2.253   5.699   6.676  0.4582  0.2493  0.1708
  158SAPE   O3217607   2.317   5.599   6.636 -0.1195  0.2028 -0.3608
  158SAPE   C3217608   2.268   5.758   6.824  0.1637  0.8478 -0.0490
  158SAPE   H2X17609   2.163   5.757   6.860  0.1635  0.7145 -0.0519
  158SAPE   H2Y17610   2.319   5.856   6.812  2.7853 -0.6548 -2.5380
  158SAPE   C2317611   1.793   5.801   6.655 -0.7798 -0.2589 -0.3583
  158SAPE   H3R17612   1.695   5.826   6.701 -1.0719 -3.7765  1.2218
  158SAPE   H3S17613   1.849   5.894   6.629 -1.1725 -0.1899 -0.9650
  158SAPE   C2417614   1.871   5.736   6.768  0.4304 -0.2546 -0.2201
  158SAPE   H4R17615   1.956   5.674   6.733  1.0964  0.9014 -0.6784
  158SAPE   H4S17616   1.808   5.657   6.814  1.3918 -0.8782  0.0636
  158SAPE   C2517617   1.923   5.836   6.864 -0.1340  0.3696 -0.1262
  158SAPE   H5R17618   1.945   5.932   6.816 -0.6432  0.5474 -0.0183
  158SAPE   C2617619   1.953   5.829   6.989 -0.1784  0.1289 -0.5857
  158SAPE   H6R17620   1.978   5.920   7.045  1.6845 -1.0122  0.5351
  158SAPE   C2717621   1.945   5.712   7.084 -0.0672 -0.1772 -0.0453
  158SAPE   H7R17622   2.037   5.707   7.147  0.7275 -3.0377 -1.2466
  158SAPE   H7S17623   1.947   5.608   7.043  1.3788  0.3123 -1.3196
  158SAPE   C2817624   1.815   5.710   7.154  1.3505 -0.4017  0.1498
  158SAPE   H8R17625   1.725   5.712   7.091  0.6393  2.7736  1.0392
  158SAPE   C2917626   1.798   5.713   7.289  0.0726 -0.4273  0.1609
  158SAPE   H9R17627   1.704   5.687   7.339 -0.5110  2.1286  0.5486
  158SAPE  C21017628   1.919   5.701   7.382  0.0458  0.0318 -0.3384
  158SAPE  H10R17629   2.002   5.768   7.351 -1.2060  3.0527  2.3075
  158SAPE  H10S17630   1.969   5.606   7.353  2.0202  1.5084 -2.0025
  158SAPE  C21117631   1.884   5.731   7.526  0.3858 -0.2559  0.8657
  158SAPE  H11R17632   1.860   5.837   7.543  1.6387  0.5063 -1.6061
  158SAPE  C21217633   1.880   5.642   7.624 -0.2991 -0.1592  0.6636
  158SAPE  H12R17634   1.867   5.676   7.728  0.1341  0.8258  0.4028
  158SAPE  C21317635   1.900   5.488   7.615 -0.3774 -0.4370 -0.5277
  158SAPE  H13R17636   2.010   5.471   7.608 -0.1512  0.4082  0.6155
  158SAPE  H13S17637   1.857   5.455   7.519 -2.0756 -1.8900  0.6786
  158SAPE  C21417638   1.826   5.411   7.720 -0.1335  0.2721 -1.0000
  158SAPE  H14R17639   1.724   5.372   7.706 -0.2208 -0.6683  1.6040
  158SAPE  C21517640   1.866   5.393   7.845 -0.2326  0.0030 -0.5844
  158SAPE  H15R17641   1.807   5.330   7.913  1.4594 -0.3855  0.5806
  158SAPE  C21617642   1.996   5.449   7.898 -0.4371  0.9796 -0.5499
  158SAPE  H16R17643   1.986   5.553   7.935  0.3993  0.7559  0.3523
  158SAPE  H16S17644   2.081   5.441   7.828  0.3852  1.2581  0.3936
  158SAPE  C21717645   2.027   5.370   8.025 -0.1847  0.3079  0.0585
  158SAPE  H17R17646   2.029   5.262   7.997  1.1729  0.4563 -0.4970
  158SAPE  H17S17647   1.954   5.381   8.109  2.5587 -0.3933  2.7309
  158SAPE  C21817648   2.161   5.395   8.084 -0.3493 -0.1692 -0.0366
  158SAPE  H18R17649   2.148   5.494   8.131 -1.1177 -0.2876  0.0199
  158SAPE  H18S17650   2.248   5.405   8.016 -0.8885  1.8318 -0.4705
  158SAPE  C21917651   2.193   5.284   8.182  0.3298 -0.1731 -0.3242
  158SAPE  H19R17652   2.209   5.191   8.123  0.3592 -0.9459  0.8797
  158SAPE  H19S17653   2.101   5.258   8.239  0.4963  1.2277  0.6349
  158SAPE  C22017654   2.314   5.313   8.267 -0.3683  0.6084 -0.1260
  158SAPE  H20R17655   2.310   5.405   8.329 -1.2464  0.9150 -0.6211
  158SAPE  H20S17656   2.402   5.317   8.199 -1.2618  1.2173 -1.2867
  158SAPE  H20T17657   2.334   5.227   8.334 -1.1251  0.4081 -0.1480
  158SAPE   C3317658   2.364   5.680   6.916 -0.1083 -0.4581  1.0393
  158SAPE   H3X17659   2.464   5.687   6.868 -0.2233  1.7440  1.0193
  158SAPE   H3Y17660   2.342   5.572   6.928 -1.6078 -0.3012 -0.0217
  158SAPE   C3417661   2.386   5.753   7.051  0.0117  0.3410  0.5733
  158SAPE   H4X17662   2.300   5.726   7.116 -1.0566  2.5535  0.1796
  158SAPE   H4Y17663   2.384   5.863   7.038  1.5826  0.6347  2.3198
  158SAPE   C3517664   2.505   5.702   7.123  0.3883 -0.1078  0.9323
  158SAPE   H5X17665   2.598   5.739   7.075 -0.5030 -1.6520 -2.3498
  158SAPE   H5Y17666   2.511   5.591   7.117  1.4520 -0.0325  0.3238
  158SAPE   C3617667   2.501   5.751   7.267 -0.2773  0.4919  0.3627
  158SAPE   H6X17668   2.446   5.679   7.330 -0.5247  0.4653  0.1216
  158SAPE   H6Y17669   2.462   5.853   7.289  0.0234  0.5136  0.7985
  158SAPE   C3717670   2.633   5.773   7.346  0.1680  0.6309 -0.3535
  158SAPE   H7X17671   2.680   5.672   7.349  0.8718  0.9261 -1.0819
  158SAPE   H7Y17672   2.695   5.841   7.285 -0.0286  2.1829  1.1223
  158SAPE   C3817673   2.605   5.814   7.487 -0.0322 -0.2962 -0.8662
  158SAPE   H8X17674   2.555   5.912   7.492 -0.0244 -0.3385  1.0389
  158SAPE   H8Y17675   2.696   5.832   7.550 -0.1102 -0.8095 -0.5994
  158SAPE   C3917676   2.523   5.717   7.574  0.1563 -0.7983  0.4588
  158SAPE   H9X17677   2.562   5.613   7.564 -1.8758 -1.4852 -1.2286
  158SAPE   H9Y17678   2.418   5.708   7.539  1.1640  0.4449 -3.4502
  158SAPE  C31017679   2.525   5.752   7.723 -0.5787 -0.1319 -0.0366
  158SAPE  H10X17680   2.486   5.856   7.730  0.8025  0.4127 -0.2230
  158SAPE  H10Y17681   2.628   5.744   7.762 -0.5448 -0.0898 -0.1167
  158SAPE  C31117682   2.433   5.657   7.806 -0.9360  0.5428  0.2543
  158SAPE  H11X17683   2.463   5.550   7.797 -1.8469  0.2918  0.0567
  158SAPE  H11Y17684   2.328   5.655   7.770 -1.7260  0.3947  2.3919
  158SAPE  C31217685   2.429   5.692   7.957 -0.2203 -0.2965 -0.3505
  158SAPE  H12X17686   2.534   5.685   7.991 -0.3612 -2.2005 -0.2232
  158SAPE  H12Y17687   2.355   5.623   8.002 -1.1902  1.3936  0.7491
  158SAPE  C31317688   2.382   5.836   7.994 -0.2155  0.7753  0.4163
  158SAPE  H13X17689   2.278   5.847   7.956 -0.1990  0.8152  0.3824
  158SAPE  H13Y17690   2.437   5.923   7.951 -1.7977  1.3982 -0.4547
  158SAPE  C31417691   2.385   5.853   8.151 -0.9501  0.4812 -0.0404
  158SAPE  H14X17692   2.482   5.813   8.190 -1.6510 -1.6804 -0.3617
  158SAPE  H14Y17693   2.321   5.773   8.194  2.8648 -1.3234  2.9853
  158SAPE  C31517694   2.340   5.987   8.194  0.1934  0.2566 -0.1347
  158SAPE  H15X17695   2.249   6.015   8.137 -1.5599 -2.2028  1.2371
  158SAPE  H15Y17696   2.409   6.070   8.170 -0.7331  1.1869  0.3182
  158SAPE  C31617697   2.313   5.997   8.339  0.1586  0.0729  0.0417
  158SAPE  H16X17698   2.414   5.974   8.380 -0.7236 -0.6534  1.9192
  158SAPE  H16Y17699   2.241   5.921   8.377  0.5296  0.5033  1.6664
  158SAPE  C31717700   2.260   6.132   8.378 -0.2589  0.4974 -0.0221
  158SAPE  H17X17701   2.165   6.144   8.321 -0.3832 -0.9551 -0.1614
  158SAPE  H17Y17702   2.330   6.216   8.356 -1.9340  1.5354 -1.6510
  158SAPE  C31817703   2.236   6.155   8.529 -0.3337  0.3943  0.0724
  158SAPE  H18X17704   2.178   6.248   8.545  1.2589  1.2604  0.9770
  158SAPE  H18Y17705   2.335   6.159   8.578 -0.8068  2.0742  0.9646
  158SAPE  H18Z17706   2.181   6.070   8.575  0.7516 -0.0831  0.5283
  159SAPE     N17707   6.232   5.873   6.483  0.2476  0.1658  0.1226
  159SAPE   HN117708   6.314   5.925   6.445 -1.4298  1.6765 -1.6937
  159SAPE   HN217709   6.187   5.826   6.402  0.5199 -0.1339  0.1447
  159SAPE   HN317710   6.166   5.943   6.524 -1.1337 -1.8021  1.4265
  159SAPE   C1217711   6.263   5.777   6.591 -0.4034  0.5785 -0.5750
  159SAPE  H12A17712   6.177   5.711   6.615 -1.8484  1.9829 -1.6635
  159SAPE  H12B17713   6.284   5.838   6.682 -1.4232  0.0066  0.0579
  159SAPE   C1117714   6.392   5.687   6.552 -0.1224 -0.5969  0.1804
  159SAPE  H11A17715   6.421   5.627   6.641 -0.1295  0.6571  1.0615
  159SAPE  H11B17716   6.477   5.758   6.540  0.4820 -0.7279  2.9471
  159SAPE     P17717   6.396   5.450   6.412  0.3900  0.1469  0.3069
  159SAPE   O1317718   6.275   5.378   6.370 -0.5739  0.1210 -0.4299
  159SAPE   O1417719   6.507   5.446   6.319 -0.1205 -0.3834 -0.2765
  159SAPE   O1217720   6.366   5.608   6.438  0.1529  0.3078  0.1058
  159SAPE   O1117721   6.443   5.398   6.559  0.2751  0.1834 -1.4094
  159SAPE    C117722   6.539   5.292   6.575  0.0110  0.0008  0.1955
  159SAPE    HA17723   6.638   5.319   6.533 -0.2908 -0.0388 -0.5562
  159SAPE    HB17724   6.554   5.265   6.682 -1.7095 -2.6687 -0.1351
  159SAPE    C217725   6.492   5.150   6.513 -0.9557  0.3053  0.2059
  159SAPE    HS17726   6.468   5.179   6.409 -0.9140  1.8767  0.6082
  159SAPE   O2117727   6.378   5.100   6.576  0.8022 -0.0989  0.2560
  159SAPE   C2117728   6.306   5.007   6.510  0.8432  1.8275  0.1247
  159SAPE   O2217729   6.335   4.964   6.397 -0.0077 -0.1918  0.3637
  159SAPE   C2217730   6.200   4.944   6.594  0.6124 -0.0821  0.1753
  159SAPE   H2R17731   6.110   5.007   6.580  0.7914 -0.3941 -2.8809
  159SAPE   H2S17732   6.176   4.843   6.553 -1.9130 -0.1307  1.5585
  159SAPE    C317733   6.616   5.049   6.516 -0.2807 -0.0397  0.2738
  159SAPE    HX17734   6.692   5.088   6.444 -1.2174  0.5828 -0.3907
  159SAPE    HY17735   6.592   4.955   6.462  2.2002  0.4622 -1.9441
  159SAPE   O3117736   6.669   5.026   6.646 -0.4180 -0.2275 -0.6345
  159SAPE   C3117737   6.634   4.909   6.704 -0.0938  0.6637 -0.1189
  159SAPE   O3217738   6.570   4.821   6.647  0.3301 -0.5232 -0.3272
  159SAPE   C3217739   6.672   4.916   6.852  0.2010 -0.1338  0.1873
  159SAPE   H2X17740   6.652   5.014   6.901  0.8335 -1.4224  3.2191
  159SAPE   H2Y17741   6.782   4.903   6.858  0.8796  2.8467 -2.5387
  159SAPE   C2317742   6.239   4.939   6.742  0.4689 -0.9080  0.3951
  159SAPE   H3R17743   6.259   5.043   6.775  0.0350  0.0278 -2.0503
  159SAPE   H3S17744   6.339   4.891   6.749 -0.2119 -2.9566 -2.1141
  159SAPE   C2417745   6.138   4.859   6.830 -0.1157 -0.5584  0.1686
  159SAPE   H4R17746   6.036   4.902   6.829 -0.1008 -0.5283 -0.1355
  159SAPE   H4S17747   6.171   4.869   6.936  0.5890 -1.1473  0.0128
  159SAPE   C2517748   6.123   4.718   6.778  0.0716  0.9127  0.0803
  159SAPE   H5R17749   6.045   4.707   6.701  0.3301  2.4498 -0.4402
  159SAPE   C2617750   6.199   4.610   6.820 -0.2028  0.9673 -0.2616
  159SAPE   H6R17751   6.186   4.510   6.775  0.4956  0.5272  0.4851
  159SAPE   C2717752   6.300   4.623   6.925  0.1134 -0.1990 -0.1434
  159SAPE   H7R17753   6.311   4.726   6.964 -1.4361 -0.6264  1.5333
  159SAPE   H7S17754   6.397   4.596   6.876  0.9954 -2.0757  2.4012
  159SAPE   C2817755   6.274   4.515   7.038  0.6263 -0.7251 -0.6153
  159SAPE   H8R17756   6.231   4.419   7.006 -1.3581 -0.1106  0.0696
  159SAPE   C2917757   6.294   4.530   7.167 -0.5302  0.3451 -0.3546
  159SAPE   H9R17758   6.264   4.441   7.224 -1.3296  0.5449 -0.4455
  159SAPE  C21017759   6.343   4.655   7.236 -0.5455  0.6776 -0.5740
  159SAPE  H10R17760   6.447   4.675   7.202 -0.0813 -0.4323  0.1600
  159SAPE  H10S17761   6.343   4.627   7.343 -1.0262 -1.7664 -1.1554
  159SAPE  C21117762   6.260   4.784   7.238 -0.2020  0.4571 -0.6197
  159SAPE  H11R17763   6.152   4.761   7.237 -1.0593  3.7749  0.8259
  159SAPE  C21217764   6.302   4.918   7.237  0.3106  0.7393  0.5753
  159SAPE  H12R17765   6.231   5.001   7.248  1.7360  2.0704  0.0446
  159SAPE  C21317766   6.446   4.962   7.221 -0.5870  0.0338  0.2374
  159SAPE  H13R17767   6.513   4.875   7.201  3.4668  3.2151 -1.6845
  159SAPE  H13S17768   6.481   5.001   7.318  0.6248  0.0461 -0.1870
  159SAPE  C21417769   6.460   5.047   7.093  0.4840 -0.1199  0.2247
  159SAPE  H14R17770   6.450   4.990   7.000  0.4925 -0.1577  0.2472
  159SAPE  C21517771   6.467   5.181   7.103 -0.7890 -0.4535  0.3913
  159SAPE  H15R17772   6.477   5.241   7.011 -0.2055  2.0212  1.9776
  159SAPE  C21617773   6.485   5.271   7.220  0.7369  0.3886  0.0633
  159SAPE  H16R17774   6.561   5.346   7.191  3.2881 -1.1554  2.1931
  159SAPE  H16S17775   6.543   5.214   7.297 -0.8344 -1.3857 -0.0007
  159SAPE  C21717776   6.358   5.333   7.277 -0.0659  0.2994  0.6140
  159SAPE  H17R17777   6.386   5.385   7.371  1.8802  0.1745  0.1419
  159SAPE  H17S17778   6.285   5.254   7.307  0.0374  0.5587  1.5827
  159SAPE  C21817779   6.289   5.435   7.184 -0.2314 -0.1377 -0.3431
  159SAPE  H18R17780   6.264   5.396   7.083 -0.6427 -0.4518 -0.1171
  159SAPE  H18S17781   6.360   5.517   7.157 -0.7613  0.6375  0.5452
  159SAPE  C21917782   6.157   5.495   7.236  0.2703  0.2466 -0.0143
  159SAPE  H19R17783   6.180   5.506   7.344  1.6097 -0.9769 -0.1463
  159SAPE  H19S17784   6.085   5.411   7.227  2.0512 -1.2980 -0.6214
  159SAPE  C22017785   6.110   5.619   7.170  0.4816  0.7416  0.0205
  159SAPE  H20R17786   6.183   5.700   7.189 -0.0005  1.5624 -1.4621
  159SAPE  H20S17787   6.013   5.662   7.202 -1.2566 -1.8013 -1.4688
  159SAPE  H20T17788   6.105   5.602   7.060 -0.9900 -0.8068  0.2778
  159SAPE   C3317789   6.617   4.802   6.938 -0.1705  0.0269  0.4114
  159SAPE   H3X17790   6.508   4.791   6.920 -0.3512  0.7039  1.0523
  159SAPE   H3Y17791   6.631   4.825   7.046  1.4913  0.4095  0.1377
  159SAPE   C3417792   6.684   4.667   6.904 -0.0361  0.1922 -0.5121
  159SAPE   H4X17793   6.762   4.681   6.826  1.2478 -0.8093  0.5631
  159SAPE   H4Y17794   6.606   4.601   6.860 -2.3458  1.9120  0.7775
  159SAPE   C3517795   6.759   4.597   7.027 -0.6991  1.1009 -0.0293
  159SAPE   H5X17796   6.792   4.497   6.993 -1.4775  1.0510 -0.6797
  159SAPE   H5Y17797   6.681   4.589   7.105 -2.0041  0.2449 -1.3625
  159SAPE   C3617798   6.881   4.677   7.088 -0.7946  0.5811 -0.3853
  159SAPE   H6X17799   6.857   4.784   7.104 -2.0613 -0.0447  2.6403
  159SAPE   H6Y17800   6.959   4.662   7.010 -0.7531  0.0052 -0.2362
  159SAPE   C3717801   6.923   4.622   7.231 -0.2665 -0.0715 -0.5083
  159SAPE   H7X17802   7.028   4.646   7.257 -0.4863  1.7588 -1.1722
  159SAPE   H7Y17803   6.925   4.512   7.213 -1.7450  0.0337 -1.5169
  159SAPE   C3817804   6.825   4.643   7.346 -0.2190 -0.1398 -0.4435
  159SAPE   H8X17805   6.732   4.590   7.317  1.1803 -0.5656 -5.0599
  159SAPE   H8Y17806   6.803   4.749   7.370  0.3389  0.1536 -1.1858
  159SAPE   C3917807   6.863   4.573   7.482 -0.4302  0.0172  0.8490
  159SAPE   H9X17808   6.950   4.614   7.537 -0.6634 -2.2349  3.0853
  159SAPE   H9Y17809   6.904   4.473   7.456 -2.2048 -1.0911  2.0904
  159SAPE  C31017810   6.746   4.555   7.572 -0.1886  0.2846  0.4235
  159SAPE  H10X17811   6.671   4.477   7.547 -1.0623  0.7914  1.4096
  159SAPE  H10Y17812   6.690   4.651   7.565 -1.0911 -0.2702 -0.2198
  159SAPE  C31117813   6.772   4.538   7.725 -0.7964 -0.7253 -0.1911
  159SAPE  H11X17814   6.812   4.437   7.747 -0.1116 -0.0149  2.0520
  159SAPE  H11Y17815   6.672   4.531   7.773 -0.1002 -1.4562  1.2003
  159SAPE  C31217816   6.846   4.654   7.789 -0.5693  0.0176  0.1549
  159SAPE  H12X17817   6.798   4.744   7.745  1.1000  1.7576  1.7427
  159SAPE  H12Y17818   6.953   4.666   7.763 -0.5793  0.9914  0.5374
  159SAPE  C31317819   6.838   4.644   7.940 -0.1392 -1.1391 -0.0847
  159SAPE  H13X17820   6.879   4.545   7.973 -0.8284 -1.2554  0.4289
  159SAPE  H13Y17821   6.734   4.656   7.976 -0.6875 -1.6997 -1.4295
  159SAPE  C31417822   6.917   4.761   7.998  1.2842 -0.6664  0.5146
  159SAPE  H14X17823   6.908   4.855   7.939  1.1932 -1.4623 -0.7871
  159SAPE  H14Y17824   7.027   4.745   7.992  1.2078 -0.8886 -0.4603
  159SAPE  C31517825   6.889   4.801   8.145 -0.0197 -0.5516  0.0027
  159SAPE  H15X17826   6.936   4.711   8.190  0.7177 -0.2969 -0.2436
  159SAPE  H15Y17827   6.780   4.808   8.166 -0.0018  1.4093 -0.3840
  159SAPE  C31617828   6.964   4.930   8.187 -0.1363 -0.9966  0.1928
  159SAPE  H16X17829   6.929   5.014   8.123 -2.3208 -1.1718  1.0694
  159SAPE  H16Y17830   7.074   4.921   8.174  0.0425  1.7027 -0.6659
  159SAPE  C31717831   6.949   4.973   8.331 -0.6569  0.2547 -0.6640
  159SAPE  H17X17832   7.004   5.070   8.332 -2.9812  1.6882 -2.1914
  159SAPE  H17Y17833   6.998   4.900   8.398 -1.6605  0.8760  0.7817
  159SAPE  C31817834   6.797   4.974   8.371 -0.8832 -0.2842 -0.2619
  159SAPE  H18X17835   6.789   5.012   8.475 -0.4397  1.8216 -0.9550
  159SAPE  H18Y17836   6.775   4.865   8.376 -0.5695 -0.4521 -1.9866
  159SAPE  H18Z17837   6.720   5.022   8.308 -0.8244 -1.2069 -1.0625
  160SAPE     N17838   2.611   6.540   6.268  0.7352 -0.3916  0.7835
  160SAPE   HN117839   2.661   6.617   6.318  0.1673  0.7106 -0.3032
  160SAPE   HN217840   2.566   6.584   6.186 -1.6933 -1.7606  1.2826
  160SAPE   HN317841   2.543   6.511   6.341 -1.4736  2.0781 -0.1512
  160SAPE   C1217842   2.702   6.426   6.222  0.6816 -0.8652 -0.2847
  160SAPE  H12A17843   2.780   6.423   6.302  0.1962  0.0922  0.2364
  160SAPE  H12B17844   2.743   6.458   6.124 -1.0235  3.2107  0.1335
  160SAPE   C1117845   2.622   6.292   6.229 -0.2494 -0.2291 -0.4001
  160SAPE  H11A17846   2.681   6.217   6.171  0.9948  0.4304 -0.0157
  160SAPE  H11B17847   2.534   6.319   6.166 -0.3243 -2.0148 -1.1309
  160SAPE     P17848   2.533   6.105   6.376  0.0997 -0.4222 -0.2500
  160SAPE   O1317849   2.406   6.092   6.306 -0.4092  0.7646  0.2109
  160SAPE   O1417850   2.636   6.008   6.338 -0.3617  0.0847  0.3147
  160SAPE   O1217851   2.590   6.251   6.358  0.4181  0.4118  0.1290
  160SAPE   O1117852   2.501   6.094   6.535 -0.5901  0.7159 -0.4366
  160SAPE    C117853   2.514   6.211   6.620 -0.2880  0.9022 -0.2739
  160SAPE    HA17854   2.620   6.240   6.638  0.3384 -0.9404 -0.7615
  160SAPE    HB17855   2.469   6.295   6.563  1.1673  1.6332 -0.3904
  160SAPE    C217856   2.443   6.200   6.758  0.6860 -0.3683  0.1161
  160SAPE    HS17857   2.438   6.303   6.799  1.1628  0.1925 -1.1834
  160SAPE   O2117858   2.511   6.106   6.842 -0.2074  0.3623 -0.3724
  160SAPE   C2117859   2.593   6.163   6.926  0.0424  0.4482  0.0337
  160SAPE   O2217860   2.621   6.280   6.930  0.0877 -1.0466  0.3937
  160SAPE   C2217861   2.650   6.058   7.019  0.9494 -0.1565 -0.1050
  160SAPE   H2R17862   2.580   6.035   7.102  0.5080 -1.3182 -0.7725
  160SAPE   H2S17863   2.644   5.965   6.959  0.6559 -0.0107 -0.3076
  160SAPE    C317864   2.289   6.144   6.741  0.2120 -0.2135 -0.4552
  160SAPE    HX17865   2.301   6.047   6.688  2.1794 -0.2099 -0.1075
  160SAPE    HY17866   2.239   6.213   6.670  0.0666 -2.2107 -2.3870
  160SAPE   O3117867   2.221   6.122   6.870  0.0339  0.3720 -0.0146
  160SAPE   C3117868   2.126   6.213   6.891 -0.8922  0.3051  0.3266
  160SAPE   O3217869   2.096   6.303   6.815 -0.2014 -0.0080 -0.5786
  160SAPE   C3217870   2.073   6.188   7.034  0.2171 -0.7285  0.2369
  160SAPE   H2X17871   1.988   6.118   7.015 -0.0078 -0.3541 -0.1586
  160SAPE   H2Y17872   2.039   6.286   7.072  2.7344 -0.0313  0.8600
  160SAPE   C2317873   2.789   6.094   7.079  0.5308 -0.2729 -0.7276
  160SAPE   H3R17874   2.849   6.150   7.004 -0.1758 -0.9150 -1.8015
  160SAPE   H3S17875   2.840   6.006   7.123  1.4223  0.6956  0.2166
  160SAPE   C2417876   2.771   6.202   7.193 -0.9451 -0.6323  0.2224
  160SAPE   H4R17877   2.682   6.268   7.185 -0.9274 -0.7621 -1.2480
  160SAPE   H4S17878   2.857   6.272   7.186 -0.9110 -0.5480  1.2443
  160SAPE   C2517879   2.754   6.151   7.331 -0.1447  0.3201 -0.7903
  160SAPE   H5R17880   2.661   6.099   7.358  0.1049 -0.2984 -1.1149
  160SAPE   C2617881   2.852   6.156   7.425 -0.2373 -0.2906  0.5470
  160SAPE   H6R17882   2.820   6.119   7.524 -0.0741 -0.6944  0.4536
  160SAPE   C2717883   2.984   6.226   7.409 -0.8239 -1.2199 -0.1619
  160SAPE   H7R17884   3.015   6.264   7.309 -0.1360  2.8360  1.4143
  160SAPE   H7S17885   3.066   6.163   7.450 -0.5200 -0.1361  0.9302
  160SAPE   C2817886   2.960   6.351   7.493 -0.6942  0.1187 -0.4815
  160SAPE   H8R17887   2.898   6.435   7.458  1.4055  1.6958 -0.6057
  160SAPE   C2917888   3.004   6.371   7.624  0.1906  0.2872 -0.3974
  160SAPE   H9R17889   2.968   6.466   7.666 -2.0577 -0.9699  0.6741
  160SAPE  C21017890   3.089   6.282   7.710  0.3301 -0.0814 -0.1839
  160SAPE  H10R17891   3.060   6.178   7.682 -2.5782  0.8621 -1.0649
  160SAPE  H10S17892   3.063   6.286   7.818  0.8544 -0.0701 -0.0534
  160SAPE  C21117893   3.226   6.336   7.682  0.2190  0.4912  1.0862
  160SAPE  H11R17894   3.251   6.355   7.577 -1.6057 -0.4296  0.4464
  160SAPE  C21217895   3.321   6.340   7.775 -0.5694  0.2304 -0.1684
  160SAPE  H12R17896   3.421   6.372   7.742 -0.8990  1.1321 -0.3141
  160SAPE  C21317897   3.313   6.293   7.915 -0.3811  0.1072 -0.7187
  160SAPE  H13R17898   3.399   6.225   7.933  0.1032  1.3155  1.9396
  160SAPE  H13S17899   3.221   6.236   7.938 -1.2870  1.8443  0.1344
  160SAPE  C21417900   3.338   6.396   8.020  0.0409  0.3055  0.1657
  160SAPE  H14R17901   3.441   6.434   8.017  0.6809 -1.4282 -1.1733
  160SAPE  C21517902   3.243   6.455   8.093  0.3526  0.3170  0.2474
  160SAPE  H15R17903   3.267   6.538   8.161 -0.9350  0.7397  0.1965
  160SAPE  C21617904   3.093   6.426   8.091  0.3344  0.5976  0.2160
  160SAPE  H16R17905   3.057   6.376   7.998 -0.8073  2.5307 -0.4461
  160SAPE  H16S17906   3.034   6.516   8.118 -0.7050  0.1353 -0.4295
  160SAPE  C21717907   3.056   6.326   8.206  0.1817 -0.3505  0.5319
  160SAPE  H17R17908   3.113   6.231   8.196  0.6079 -0.0590  0.1109
  160SAPE  H17S17909   2.951   6.294   8.193  0.2764 -0.2368 -0.6318
  160SAPE  C21817910   3.065   6.390   8.343  0.4269 -0.0765 -0.1009
  160SAPE  H18R17911   3.017   6.491   8.342 -1.4860 -0.8914 -2.5138
  160SAPE  H18S17912   3.171   6.407   8.369 -0.0333  1.8876  0.6911
  160SAPE  C21917913   2.989   6.301   8.451  0.1767  0.4764  0.5698
  160SAPE  H19R17914   2.882   6.289   8.424 -0.2915  0.7241  2.1773
  160SAPE  H19S17915   2.972   6.357   8.546 -0.9459 -0.3898  0.9085
  160SAPE  C22017916   3.074   6.184   8.493 -0.2978  0.2582 -0.2265
  160SAPE  H20R17917   3.007   6.120   8.555  0.1111  0.7386  0.7318
  160SAPE  H20S17918   3.165   6.205   8.553 -0.0518 -0.8545 -0.1729
  160SAPE  H20T17919   3.106   6.111   8.415  1.9616 -2.0995  2.6720
  160SAPE   C3317920   2.164   6.128   7.145 -0.0766 -0.5641 -0.1563
  160SAPE   H3X17921   2.266   6.172   7.138  0.7065 -2.0807  1.0379
  160SAPE   H3Y17922   2.189   6.024   7.115  0.3837  0.1125 -2.2299
  160SAPE   C3417923   2.107   6.149   7.287 -0.0981  0.1226  0.2191
  160SAPE   H4X17924   2.002   6.115   7.290  0.5022 -1.7876  1.0566
  160SAPE   H4Y17925   2.104   6.260   7.291 -1.2824  0.1811 -1.4182
  160SAPE   C3517926   2.196   6.099   7.401  0.0914 -0.0384  0.3745
  160SAPE   H5X17927   2.300   6.128   7.379  0.8921 -0.8561  2.7595
  160SAPE   H5Y17928   2.191   5.988   7.393 -1.1071  0.1401 -2.7815
  160SAPE   C3617929   2.166   6.160   7.534  0.9495  1.0321 -0.4535
  160SAPE   H6X17930   2.061   6.128   7.549  0.4904  1.3529 -2.6023
  160SAPE   H6Y17931   2.166   6.271   7.543 -0.7044  0.8850  3.0363
  160SAPE   C3717932   2.246   6.108   7.653  0.4828  0.0390  0.1804
  160SAPE   H7X17933   2.352   6.138   7.646  1.1114 -2.2412 -1.5696
  160SAPE   H7Y17934   2.247   5.996   7.654  2.3241  0.0166  1.4776
  160SAPE   C3817935   2.176   6.160   7.780 -0.2519 -0.4793  1.1618
  160SAPE   H8X17936   2.197   6.086   7.860 -1.2592 -1.6532  0.3686
  160SAPE   H8Y17937   2.066   6.163   7.766 -0.4209 -0.0894  2.4137
  160SAPE   C3917938   2.222   6.292   7.837 -0.6542  0.2120  0.0823
  160SAPE   H9X17939   2.199   6.383   7.777  0.4794  1.6542  1.7359
  160SAPE   H9Y17940   2.333   6.295   7.838 -0.6793  1.2722  1.3245
  160SAPE  C31017941   2.183   6.325   7.985 -0.0982  1.0002  0.7500
  160SAPE  H10X17942   2.223   6.236   8.038 -0.8993 -0.1012 -0.4392
  160SAPE  H10Y17943   2.073   6.318   7.979 -0.0985  0.5900  1.1795
  160SAPE  C31117944   2.237   6.452   8.046 -0.0198 -0.6747 -0.0521
  160SAPE  H11X17945   2.248   6.535   7.974 -2.3821 -0.6375 -0.4291
  160SAPE  H11Y17946   2.342   6.428   8.077 -0.1500 -1.3733 -0.1496
  160SAPE  C31217947   2.165   6.499   8.172 -0.3157 -0.6025 -0.0811
  160SAPE  H12X17948   2.156   6.413   8.242 -0.7588 -2.7297 -2.5792
  160SAPE  H12Y17949   2.061   6.526   8.145 -1.4467 -2.4939  2.0584
  160SAPE  C31317950   2.226   6.625   8.229  0.3717 -0.1347 -0.4506
  160SAPE  H13X17951   2.218   6.700   8.147 -2.5739 -0.0192 -0.1625
  160SAPE  H13Y17952   2.333   6.612   8.258  0.3869 -0.3102 -0.5837
  160SAPE  C31417953   2.166   6.683   8.356 -0.3658  0.5427 -0.1332
  160SAPE  H14X17954   2.185   6.602   8.430 -0.1334  0.6884 -0.0305
  160SAPE  H14Y17955   2.057   6.700   8.348 -0.4465 -0.0080 -0.2868
  160SAPE  C31517956   2.226   6.815   8.398  0.2991 -0.7943  0.1992
  160SAPE  H15X17957   2.191   6.893   8.327 -1.0063  1.1428  2.8080
  160SAPE  H15Y17958   2.337   6.821   8.402  0.2016  1.1133  1.9056
  160SAPE  C31617959   2.187   6.853   8.545  0.1440 -0.4674 -0.1775
  160SAPE  H16X17960   2.242   6.949   8.554  0.1110 -0.1986 -2.3525
  160SAPE  H16Y17961   2.236   6.787   8.620  1.5799  0.7684  0.0289
  160SAPE  C31717962   2.038   6.865   8.555 -0.7888 -0.1093  0.4695
  160SAPE  H17X17963   1.985   6.768   8.568  1.0826 -0.8771  3.2856
  160SAPE  H17Y17964   2.007   6.894   8.453  0.7327 -2.1252 -0.6301
  160SAPE  C31817965   1.990   6.960   8.665  0.2670  0.0310 -0.1980
  160SAPE  H18X17966   2.019   7.066   8.650  1.3710 -0.1984  0.2176
  160SAPE  H18Y17967   2.034   6.932   8.763  0.0106  1.7364  0.4402
  160SAPE  H18Z17968   1.880   6.948   8.669  0.5112 -2.4712  1.2432
  161SOPE     N17969   5.557   5.286  10.818  0.7773 -0.1364 -0.3096
  161SOPE   HN117970   5.481   5.233  10.866  0.2511  1.1694  0.3612
  161SOPE   HN217971   5.647   5.239  10.844  0.7238 -0.6271 -0.9874
  161SOPE   HN317972   5.549   5.381  10.860 -1.8040 -0.0685 -0.8501
  161SOPE   C1217973   5.540   5.278  10.666  0.9630 -0.3879 -0.3860
  161SOPE  H12A17974   5.574   5.174  10.646  1.0007 -1.0711  2.7112
  161SOPE  H12B17975   5.597   5.362  10.621 -0.6639  0.3592 -1.1056
  161SOPE   C1117976   5.396   5.266  10.625 -0.1203 -0.2830  0.1234
  161SOPE  H11A17977   5.408   5.232  10.520  1.5339 -0.7185  0.4311
  161SOPE  H11B17978   5.341   5.362  10.615 -0.8341 -0.8398 -1.8050
  161SOPE     P17979   5.264   5.047  10.662  0.3609  0.5736 -0.0076
  161SOPE   O1317980   5.141   5.032  10.743 -0.1190 -0.3279 -0.0071
  161SOPE   O1417981   5.358   4.930  10.667 -0.0313  0.2929  0.0721
  161SOPE   O1217982   5.332   5.180  10.713 -0.2039  0.0164 -0.7397
  161SOPE   O1117983   5.223   5.066  10.513 -0.0064  0.4550 -0.1231
  161SOPE    C117984   5.088   5.114  10.483  0.2559 -0.1020  0.1898
  161SOPE    HA17985   5.069   5.211  10.534 -1.1306 -1.0407  1.5791
  161SOPE    HB17986   5.020   5.030  10.511 -0.5252  1.2775  2.8443
  161SOPE    C217987   5.061   5.147  10.329 -0.5869 -0.0930  0.2145
  161SOPE    HS17988   4.952   5.142  10.309 -0.3095 -1.5043 -1.1507
  161SOPE   O2117989   5.120   5.047  10.248 -1.0454 -0.1664 -0.2190
  161SOPE   C2117990   5.065   4.934  10.263  0.0304 -0.0451  0.2185
  161SOPE   O2217991   4.967   4.901  10.322  0.2379  0.2337  0.1919
  161SOPE   C2217992   5.131   4.840  10.158 -0.0152  0.1842  0.0094
  161SOPE   H2R17993   5.184   4.904  10.083 -0.5462 -0.3016 -0.7940
  161SOPE   H2S17994   5.055   4.793  10.092  0.8482 -1.4889  0.1487
  161SOPE    C317995   5.124   5.287  10.288  0.1715  0.3404  0.8554
  161SOPE    HX17996   5.235   5.279  10.299  0.4589  0.7119 -1.2557
  161SOPE    HY17997   5.084   5.371  10.348  2.9555  1.1081  1.8227
  161SOPE   O3117998   5.116   5.311  10.144 -0.3367 -0.7616 -0.0855
  161SOPE   C3117999   5.006   5.366  10.090  1.1390  0.1030  0.2816
  161SOPE   O3218000   4.900   5.374  10.150 -0.5163 -0.3313 -0.0228
  161SOPE   C3218001   5.032   5.407   9.939 -0.5412 -0.3334 -0.2502
  161SOPE   H2X18002   5.048   5.309   9.889 -0.8294 -0.4482 -0.1190
  161SOPE   H2Y18003   5.123   5.469   9.954 -0.9933 -0.2886  3.2895
  161SOPE   C2318004   5.217   4.721  10.216 -0.7924 -0.4521  0.2464
  161SOPE   H3R18005   5.154   4.663  10.287 -0.3495  0.0958  1.0985
  161SOPE   H3S18006   5.311   4.755  10.265 -1.3072  0.7729  0.4100
  161SOPE   C2418007   5.276   4.626  10.109 -0.3574  0.3217 -0.4793
  161SOPE   H4R18008   5.343   4.553  10.157 -0.2264  0.4492 -0.4680
  161SOPE   H4S18009   5.193   4.569  10.060 -1.3320 -1.6713  3.0880
  161SOPE   C2518010   5.362   4.696  10.002 -0.5882  0.2662  0.3775
  161SOPE   H5R18011   5.300   4.759   9.934 -2.3087 -1.0515  0.6333
  161SOPE   H5S18012   5.428   4.757  10.067 -1.0688 -0.2702  1.3961
  161SOPE   C2618013   5.454   4.589   9.924  0.5396 -0.1333 -0.0353
  161SOPE   H6R18014   5.551   4.637   9.896  1.2687 -0.9920  0.9147
  161SOPE   H6S18015   5.476   4.500   9.987  0.2421  0.3110  0.7093
  161SOPE   C2718016   5.387   4.538   9.798 -0.0646 -0.5386 -0.5850
  161SOPE   H7R18017   5.293   4.486   9.828 -0.1049 -0.1606 -0.0311
  161SOPE   H7S18018   5.357   4.620   9.729 -2.6940 -1.1186 -0.2392
  161SOPE   C2818019   5.474   4.438   9.723  0.1571  0.1936  0.9819
  161SOPE   H8R18020   5.485   4.359   9.800  2.1858  0.2235  0.7879
  161SOPE   H8S18021   5.402   4.406   9.645 -0.4208  2.4385  0.5344
  161SOPE   C2918022   5.604   4.485   9.668  0.2557  0.4101  0.0893
  161SOPE   H9118023   5.677   4.523   9.741  2.0194  1.2417 -1.9946
  161SOPE  C21018024   5.648   4.488   9.543  0.1295 -0.2897  0.1554
  161SOPE  H10118025   5.754   4.515   9.530  0.9979 -3.7529 -1.1682
  161SOPE  C21118026   5.580   4.431   9.419 -0.5108  0.1899  0.5845
  161SOPE  H11R18027   5.523   4.510   9.366 -1.3388 -1.0083 -0.3560
  161SOPE  H11S18028   5.501   4.358   9.448 -0.4665  0.4889  1.5062
  161SOPE  C21218029   5.683   4.353   9.335  0.0157  0.2144  0.2163
  161SOPE  H12R18030   5.740   4.291   9.408 -0.8682  0.0925  0.8150
  161SOPE  H12S18031   5.749   4.429   9.287  0.4976  1.1528  2.2296
  161SOPE  C21318032   5.635   4.252   9.237 -0.6482  0.6153 -0.2196
  161SOPE  H13R18033   5.553   4.289   9.172 -2.4485  0.6515  1.9857
  161SOPE  H13S18034   5.604   4.160   9.292  1.0620  0.1707  0.0797
  161SOPE  C21418035   5.754   4.206   9.151 -0.3537 -0.1949 -0.3472
  161SOPE  H14R18036   5.843   4.168   9.205 -0.0009  0.0724 -0.7336
  161SOPE  H14S18037   5.784   4.303   9.105  0.5181 -0.6196 -0.6854
  161SOPE  C21518038   5.701   4.116   9.038 -0.4139  0.9257  0.2841
  161SOPE  H15R18039   5.631   4.163   8.965 -1.8269 -0.4177  0.7141
  161SOPE  H15S18040   5.640   4.033   9.079 -2.1890  1.2046 -1.6079
  161SOPE  C21618041   5.818   4.062   8.956  0.3447  0.7463  0.1052
  161SOPE  H16R18042   5.877   3.986   9.012  0.9393 -0.0364 -1.5145
  161SOPE  H16S18043   5.892   4.142   8.930  0.6442  0.4329 -0.0078
  161SOPE  C21718044   5.764   4.003   8.825 -0.3426  0.5454 -0.1792
  161SOPE  H17R18045   5.712   4.078   8.763 -0.3877  0.7194  0.0668
  161SOPE  H17S18046   5.689   3.923   8.839  0.4820  0.2396  3.2783
  161SOPE  C21818047   5.870   3.945   8.731  1.1519 -0.5090 -0.2717
  161SOPE  H18R18048   5.963   4.006   8.724  1.8405 -1.1047  2.4331
  161SOPE  H18S18049   5.818   3.930   8.634 -1.5687  1.7157  0.7269
  161SOPE  H18T18050   5.905   3.843   8.759  1.7914 -0.2952 -0.2759
  161SOPE   C3318051   4.917   5.494   9.882 -0.3757 -0.5234 -0.2736
  161SOPE   H3X18052   4.930   5.593   9.930 -0.9843  0.7226 -2.5255
  161SOPE   H3Y18053   4.817   5.457   9.915 -1.7955  2.2558 -1.1674
  161SOPE   C3418054   4.950   5.508   9.727  0.0254 -0.3703  0.1183
  161SOPE   H4X18055   5.060   5.511   9.714 -0.2495  0.3123 -2.6147
  161SOPE   H4Y18056   4.920   5.609   9.693  0.7734 -0.5063 -0.9863
  161SOPE   C3518057   4.892   5.395   9.642  0.0320  0.0118  0.1685
  161SOPE   H5X18058   4.781   5.406   9.646  0.1118  0.5992  0.8567
  161SOPE   H5Y18059   4.915   5.297   9.687  1.2625  1.2119  2.2922
  161SOPE   C3618060   4.938   5.400   9.494  0.2127  0.1729  0.1377
  161SOPE   H6X18061   5.048   5.380   9.494  0.6838  2.4601  0.8006
  161SOPE   H6Y18062   4.932   5.506   9.463 -2.2941  0.4539  1.3868
  161SOPE   C3718063   4.861   5.297   9.400  0.9069  0.0139  0.4705
  161SOPE   H7X18064   4.871   5.320   9.292  0.7884 -1.6917  0.0697
  161SOPE   H7Y18065   4.753   5.316   9.417  0.8886 -1.3315  2.1028
  161SOPE   C3818066   4.907   5.158   9.405 -0.1510  0.5533 -0.0757
  161SOPE   H8X18067   4.920   5.124   9.510  1.8036 -0.7549 -0.6825
  161SOPE   H8Y18068   5.006   5.153   9.354  0.2845 -2.0581  0.8815
  161SOPE   C3918069   4.805   5.057   9.341  0.7284  0.4940  0.3912
  161SOPE   H9X18070   4.706   5.083   9.384 -0.4648  0.2576 -1.9972
  161SOPE   H9Y18071   4.829   4.956   9.381 -1.7795 -0.5835 -0.5817
  161SOPE  C31018072   4.801   5.057   9.194  1.1918  0.2114 -0.4766
  161SOPE  H10X18073   4.770   5.157   9.156  3.2060  0.5245 -1.4271
  161SOPE  H10Y18074   4.718   4.985   9.178  0.0008  0.9065  2.0314
  161SOPE  C31118075   4.921   5.009   9.117 -0.5802 -0.6873 -0.5854
  161SOPE  H11X18076   4.974   4.921   9.159  0.3343  0.0350 -0.1762
  161SOPE  H11Y18077   4.999   5.088   9.122  0.2980 -1.4970 -1.2380
  161SOPE  C31218078   4.891   4.981   8.973  0.2634  0.2593  0.4274
  161SOPE  H12X18079   4.984   4.965   8.914 -0.6240  0.7877 -1.1720
  161SOPE  H12Y18080   4.844   5.071   8.928 -0.1919  0.1178  0.6172
  161SOPE  C31318081   4.808   4.849   8.947 -0.3328 -0.8396 -1.2471
  161SOPE  H13X18082   4.712   4.859   9.002  0.7899  0.5935  0.5613
  161SOPE  H13Y18083   4.863   4.763   8.992 -0.5664  0.2818  1.3539
  161SOPE  C31418084   4.778   4.821   8.798  0.0462 -0.1196  0.8509
  161SOPE  H14X18085   4.725   4.724   8.795  0.6786 -0.4683  0.7013
  161SOPE  H14Y18086   4.877   4.819   8.748 -0.1902  1.9367  0.2235
  161SOPE  C31518087   4.683   4.921   8.729 -0.3422  0.5627 -0.8293
  161SOPE  H15X18088   4.747   5.011   8.719  0.9565 -0.2744 -0.3580
  161SOPE  H15Y18089   4.584   4.929   8.778 -0.0126  1.2243 -0.2642
  161SOPE  C31618090   4.659   4.872   8.585 -0.5463 -1.3184  0.4839
  161SOPE  H16X18091   4.617   4.769   8.574  1.3425 -2.1285  0.5392
  161SOPE  H16Y18092   4.756   4.866   8.532 -0.2507  1.9196  0.4791
  161SOPE  C31718093   4.564   4.965   8.511 -0.0582  0.0353 -0.4101
  161SOPE  H17X18094   4.605   5.067   8.529  1.7042 -0.6429 -0.3831
  161SOPE  H17Y18095   4.461   4.976   8.552 -0.9978  1.5292 -2.8618
  161SOPE  C31818096   4.532   4.929   8.365 -0.1761  0.1118 -1.0647
  161SOPE  H18X18097   4.459   4.995   8.314 -0.8917 -0.3450 -0.6538
  161SOPE  H18Y18098   4.490   4.826   8.360 -1.9690  0.5575  1.8925
  161SOPE  H18Z18099   4.630   4.943   8.314 -0.6512  3.1999 -1.2882
  162SOPE     N18100   4.123   5.753  10.599  0.3214 -0.8571  0.0239
  162SOPE   HN118101   4.029   5.711  10.581 -0.5749  1.2726 -0.6944
  162SOPE   HN218102   4.088   5.851  10.600  1.3695 -0.4388 -1.5723
  162SOPE   HN318103   4.186   5.744  10.517  0.2386 -3.2236  0.1453
  162SOPE   C1218104   4.181   5.697  10.728  0.7964 -0.3349 -0.5178
  162SOPE  H12A18105   4.262   5.758  10.772  2.0690 -3.0299  1.1379
  162SOPE  H12B18106   4.224   5.603  10.686  0.9877 -0.5946  0.2501
  162SOPE   C1118107   4.076   5.666  10.839 -0.4510 -0.4221  0.1378
  162SOPE  H11A18108   4.037   5.761  10.881 -1.3494 -1.2835  1.3197
  162SOPE  H11B18109   4.123   5.621  10.930 -2.0475  1.1945  1.8403
  162SOPE     P18110   3.817   5.612  10.809 -0.1425  0.0375 -0.0403
  162SOPE   O1318111   3.790   5.757  10.777 -0.2790  0.1118  0.4742
  162SOPE   O1418112   3.768   5.555  10.941  0.0148 -0.0483  0.2840
  162SOPE   O1218113   3.972   5.587  10.795  0.1354 -0.6777 -0.0286
  162SOPE   O1118114   3.775   5.516  10.691  0.0218  0.0297  0.2235
  162SOPE    C118115   3.804   5.379  10.693 -0.7375  0.0179  0.0543
  162SOPE    HA18116   3.706   5.328  10.679 -0.5754  0.0762 -1.5129
  162SOPE    HB18117   3.845   5.353  10.793  1.9801  1.7278 -0.5139
  162SOPE    C218118   3.904   5.341  10.578  0.2976 -1.4311 -0.7080
  162SOPE    HS18119   4.003   5.380  10.609  0.2324  0.7834 -2.9946
  162SOPE   O2118120   3.858   5.396  10.452 -0.1614  0.1234 -0.2431
  162SOPE   C2118121   3.903   5.510  10.421  0.2614  0.3607 -0.2801
  162SOPE   O2218122   3.999   5.567  10.470  0.3759 -0.1009  0.2839
  162SOPE   C2218123   3.813   5.583  10.320  0.7164  0.3197 -0.2172
  162SOPE   H2R18124   3.787   5.686  10.350 -2.5479  0.2732 -2.3953
  162SOPE   H2S18125   3.719   5.523  10.321  1.1954 -0.5237 -1.8756
  162SOPE    C318126   3.916   5.190  10.555  0.7494  0.2394  0.3746
  162SOPE    HX18127   3.819   5.157  10.510  0.3019  1.4435  0.4271
  162SOPE    HY18128   3.926   5.153  10.659  0.9420  2.5100  1.2259
  162SOPE   O3118129   4.027   5.171  10.469  0.7236  0.1018  0.1303
  162SOPE   C3118130   4.027   5.077  10.373 -0.2740  0.7070  0.0937
  162SOPE   O3218131   3.931   5.004  10.349 -0.4101  0.0546 -0.6531
  162SOPE   C3218132   4.164   5.068  10.290 -0.6574  0.6623 -1.1306
  162SOPE   H2X18133   4.239   5.039  10.366 -1.1907  0.9458 -0.4872
  162SOPE   H2Y18134   4.179   5.171  10.252  0.0566  1.3977  1.0279
  162SOPE   C2318135   3.868   5.590  10.173  0.4827  0.3465  0.2728
  162SOPE   H3R18136   3.778   5.614  10.111  0.0975 -0.6539  0.4226
  162SOPE   H3S18137   3.916   5.495  10.141  0.1802  0.1827  0.3019
  162SOPE   C2418138   3.966   5.708  10.151 -0.2383 -0.2519 -0.7648
  162SOPE   H4R18139   3.932   5.801  10.201 -0.5878 -0.6928 -0.1669
  162SOPE   H4S18140   4.059   5.674  10.200 -0.4441 -2.6197 -1.8938
  162SOPE   C2518141   3.987   5.715  10.002  0.0889  0.2591  0.4039
  162SOPE   H5R18142   4.043   5.626   9.967  0.5347  0.5694  0.3143
  162SOPE   H5S18143   3.890   5.726   9.949 -0.9950 -1.4695  1.9291
  162SOPE   C2618144   4.075   5.836   9.972  0.9981 -1.0033 -0.0236
  162SOPE   H6R18145   4.008   5.923   9.987 -0.7868 -1.9554 -1.9337
  162SOPE   H6S18146   4.150   5.836  10.054 -2.2777 -0.5086  3.2346
  162SOPE   C2718147   4.132   5.830   9.831 -0.0359  0.0219 -0.3719
  162SOPE   H7R18148   4.225   5.892   9.825  2.6363 -3.1267  3.1469
  162SOPE   H7S18149   4.167   5.726   9.811  0.6424  0.4149 -1.3039
  162SOPE   C2818150   4.029   5.855   9.713 -0.1334  0.0467 -0.2171
  162SOPE   H8R18151   3.955   5.772   9.707 -1.8255  1.4837  0.1981
  162SOPE   H8S18152   3.970   5.949   9.719 -1.9952 -0.9215 -2.0054
  162SOPE   C2918153   4.110   5.848   9.585 -0.2450 -0.3786  0.3170
  162SOPE   H9118154   4.141   5.942   9.538  1.8899 -1.4397 -0.5500
  162SOPE  C21018155   4.150   5.729   9.528  0.1925  0.2253  0.3847
  162SOPE  H10118156   4.220   5.723   9.443  0.1621 -0.2733  0.3961
  162SOPE  C21118157   4.124   5.592   9.579 -0.4064  0.2107  0.3036
  162SOPE  H11R18158   4.070   5.584   9.676 -1.1096 -4.7336 -0.1960
  162SOPE  H11S18159   4.218   5.535   9.594 -1.3278 -1.2238  0.8780
  162SOPE  C21218160   4.042   5.502   9.481  0.0360  0.6491  0.0132
  162SOPE  H12R18161   3.961   5.569   9.446  1.0945  2.0090  0.0975
  162SOPE  H12S18162   4.010   5.407   9.529  1.7046  0.5543  1.0323
  162SOPE  C21318163   4.128   5.461   9.350 -0.1092  0.2704 -0.5404
  162SOPE  H13R18164   4.218   5.404   9.382 -0.0353 -0.0877 -1.3590
  162SOPE  H13S18165   4.156   5.558   9.305 -5.3646  1.4611 -1.9087
  162SOPE  C21418166   4.043   5.382   9.249 -0.1921 -0.4018 -0.3754
  162SOPE  H14R18167   3.956   5.438   9.208 -0.6294 -1.6562 -1.1936
  162SOPE  H14S18168   4.002   5.292   9.299  1.2834 -2.0935 -2.0775
  162SOPE  C21518169   4.129   5.333   9.132  0.4243  0.0095  0.6448
  162SOPE  H15R18170   4.205   5.271   9.184  1.9109 -0.1041 -1.5300
  162SOPE  H15S18171   4.177   5.425   9.093 -0.6498  0.9449  1.4781
  162SOPE  C21618172   4.051   5.251   9.036 -0.2523 -0.1690  0.0251
  162SOPE  H16R18173   4.094   5.268   8.935  2.7049  2.8295  1.5852
  162SOPE  H16S18174   3.944   5.282   9.038 -0.3946 -0.7016  1.2052
  162SOPE  C21718175   4.058   5.105   9.060  0.5230 -0.1135 -0.3218
  162SOPE  H17R18176   4.018   5.067   9.157 -1.8088  1.8937 -0.4098
  162SOPE  H17S18177   4.164   5.070   9.065  1.4310  2.5554  1.2078
  162SOPE  C21818178   3.979   5.040   8.953  0.0176  0.3694 -0.0298
  162SOPE  H18R18179   4.007   4.933   8.944  0.6474  0.3348  1.8584
  162SOPE  H18S18180   4.003   5.087   8.855  1.9150 -0.3131  0.0639
  162SOPE  H18T18181   3.876   5.039   8.994  0.0605 -2.5606  0.1740
  162SOPE   C3318182   4.166   4.962  10.182 -1.0567 -1.1523 -0.4854
  162SOPE   H3X18183   4.089   4.990  10.108  0.4645  1.7868 -1.1136
  162SOPE   H3Y18184   4.134   4.859  10.208  0.3911 -1.6275 -0.4828
  162SOPE   C3418185   4.304   4.950  10.105 -0.4821  0.5325  0.1957
  162SOPE   H4X18186   4.386   4.925  10.175 -0.9178  2.1723  1.3650
  162SOPE   H4Y18187   4.329   5.051  10.065  3.3502 -0.4872 -0.3781
  162SOPE   C3518188   4.296   4.846   9.997  0.2913  0.5406  0.8490
  162SOPE   H5X18189   4.196   4.853   9.949 -0.0052 -0.9742  1.1722
  162SOPE   H5Y18190   4.282   4.742  10.034 -1.9493  0.6917  0.5470
  162SOPE   C3618191   4.427   4.844   9.901  0.6468  0.2277 -0.4832
  162SOPE   H6X18192   4.509   4.843   9.976 -1.0001 -4.0223  1.6045
  162SOPE   H6Y18193   4.438   4.946   9.859 -0.1396  0.5968  0.1713
  162SOPE   C3718194   4.430   4.736   9.800 -0.2935  0.1172  0.5153
  162SOPE   H7X18195   4.333   4.740   9.745 -0.3737  1.9677  0.7013
  162SOPE   H7Y18196   4.437   4.640   9.855  1.4441 -0.8732 -1.3212
  162SOPE   C3818197   4.551   4.757   9.706 -0.0298  0.1554  0.6214
  162SOPE   H8X18198   4.645   4.749   9.766  0.1615  1.7945  0.5819
  162SOPE   H8Y18199   4.553   4.854   9.652  0.8550 -1.0960 -1.7395
  162SOPE   C3918200   4.555   4.655   9.589  0.0870 -0.3723 -0.2438
  162SOPE   H9X18201   4.453   4.666   9.547  0.2600  1.1360 -0.3313
  162SOPE   H9Y18202   4.575   4.559   9.641 -0.5745  0.0484  0.8369
  162SOPE  C31018203   4.658   4.696   9.487  0.5912  0.3240  0.5934
  162SOPE  H10X18204   4.748   4.735   9.539  1.3830  0.5094 -0.8744
  162SOPE  H10Y18205   4.617   4.787   9.439 -1.6361 -1.8591 -2.0204
  162SOPE  C31118206   4.686   4.584   9.391  0.4877  0.0740 -0.7332
  162SOPE  H11X18207   4.590   4.536   9.365  1.7728 -2.2687 -1.4786
  162SOPE  H11Y18208   4.761   4.512   9.430  1.2838  1.5126  0.5135
  162SOPE  C31218209   4.735   4.631   9.255  0.0446  1.3097  0.4787
  162SOPE  H12X18210   4.836   4.675   9.267  0.0542  1.9211 -1.4148
  162SOPE  H12Y18211   4.672   4.716   9.219 -0.2134  1.0501  0.3099
  162SOPE  C31318212   4.723   4.524   9.148 -0.0705  0.5129  0.2292
  162SOPE  H13X18213   4.747   4.572   9.051 -3.1709 -0.0236 -0.9139
  162SOPE  H13Y18214   4.615   4.502   9.131 -0.1134 -1.3738  2.3893
  162SOPE  C31418215   4.812   4.401   9.171 -0.6078  0.0633  0.2004
  162SOPE  H14X18216   4.798   4.350   9.269  2.6368 -1.9256 -0.2280
  162SOPE  H14Y18217   4.918   4.432   9.179 -0.6414  0.6006 -1.2462
  162SOPE  C31518218   4.799   4.301   9.052  0.8217 -0.2126 -0.2410
  162SOPE  H15X18219   4.691   4.295   9.025  0.0272  4.1531  1.1018
  162SOPE  H15Y18220   4.848   4.206   9.082 -0.7757 -0.9452  0.1634
  162SOPE  C31618221   4.873   4.349   8.923  0.0273 -0.7841  0.0325
  162SOPE  H16X18222   4.973   4.384   8.959  0.4590 -1.3106 -0.6334
  162SOPE  H16Y18223   4.817   4.435   8.880  2.1829 -0.4478 -2.3386
  162SOPE  C31718224   4.883   4.234   8.817  0.0063 -0.3263  0.0534
  162SOPE  H17X18225   4.789   4.226   8.760  0.2231 -0.0867 -0.3426
  162SOPE  H17Y18226   4.899   4.137   8.870  1.0660  0.1919  0.7306
  162SOPE  C31818227   5.002   4.256   8.723 -0.0916  0.5006 -0.1864
  162SOPE  H18X18228   5.011   4.180   8.643  0.4665  2.4633 -2.0992
  162SOPE  H18Y18229   5.092   4.241   8.787  0.9462  0.7327 -1.5436
  162SOPE  H18Z18230   5.000   4.361   8.687  1.2549  0.0539 -1.6686
  163SOPE     N18231   3.748   1.360  10.849 -0.0706  0.0065 -0.2284
  163SOPE   HN118232   3.700   1.339  10.939  2.2083 -3.6492  0.3425
  163SOPE   HN218233   3.778   1.269  10.808 -0.7382 -1.2495  1.9258
  163SOPE   HN318234   3.835   1.412  10.873 -0.4398  0.2826  0.5513
  163SOPE   C1218235   3.643   1.426  10.768 -0.7484 -0.4237 -0.8203
  163SOPE  H12A18236   3.686   1.450  10.668  2.4496 -0.1770  0.4919
  163SOPE  H12B18237   3.624   1.521  10.823 -1.6979 -0.7111 -0.6368
  163SOPE   C1118238   3.518   1.340  10.753 -0.5286 -0.0348 -0.5027
  163SOPE  H11A18239   3.535   1.262  10.676  0.3143  0.2818 -0.6416
  163SOPE  H11B18240   3.441   1.409  10.712 -0.1923 -0.1558 -1.3469
  163SOPE     P18241   3.345   1.303  10.941 -0.4430 -0.2079 -0.6433
  163SOPE   O1318242   3.368   1.429  11.022 -0.0348 -0.6901  0.1712
  163SOPE   O1418243   3.297   1.190  11.023 -0.0922 -0.0041 -0.4352
  163SOPE   O1218244   3.481   1.273  10.868  0.0428  0.2462  0.0430
  163SOPE   O1118245   3.248   1.326  10.814 -0.9414 -0.4213 -0.4002
  163SOPE    C118246   3.130   1.412  10.821 -0.0375  0.0246  0.3467
  163SOPE    HA18247   3.120   1.456  10.922  0.0399  2.9904 -0.8473
  163SOPE    HB18248   3.038   1.351  10.811 -1.1406  1.6594  0.2641
  163SOPE    C218249   3.145   1.523  10.715 -0.2115  1.1127  0.0922
  163SOPE    HS18250   3.051   1.580  10.701  0.4063  2.0692 -0.2145
  163SOPE   O2118251   3.206   1.474  10.588  0.7271  0.2270 -0.4523
  163SOPE   C2118252   3.133   1.378  10.531  0.3473  0.1189  0.0945
  163SOPE   O2218253   3.016   1.351  10.561  0.0883 -0.0339 -0.4033
  163SOPE   C2218254   3.214   1.297  10.435  0.5143  0.9256  0.3779
  163SOPE   H2R18255   3.269   1.221  10.495  1.8234  0.6746 -1.0578
  163SOPE   H2S18256   3.294   1.359  10.390  0.2544  0.1870 -1.1716
  163SOPE    C318257   3.235   1.634  10.772  0.3800 -0.1443  0.0263
  163SOPE    HX18258   3.342   1.608  10.790  1.1523  3.9183  2.4956
  163SOPE    HY18259   3.194   1.653  10.873  1.2937 -1.9259  0.7937
  163SOPE   O3118260   3.225   1.758  10.691 -0.4968 -0.2514  0.0796
  163SOPE   C3118261   3.322   1.773  10.601  0.2794  0.1445 -0.6455
  163SOPE   O3218262   3.419   1.706  10.587  0.1019 -0.1090  0.6313
  163SOPE   C3218263   3.285   1.893  10.511 -0.2357  0.7017 -0.0723
  163SOPE   H2X18264   3.334   1.971  10.572  1.5504 -1.7635  1.8927
  163SOPE   H2Y18265   3.175   1.910  10.511 -0.5585 -1.1468  0.4227
  163SOPE   C2318266   3.129   1.236  10.321 -0.5018 -0.0110 -0.8740
  163SOPE   H3R18267   3.042   1.182  10.364  0.6781 -0.8301  0.5513
  163SOPE   H3S18268   3.202   1.169  10.271  0.9042 -0.2601  1.4184
  163SOPE   C2418269   3.086   1.339  10.217  0.5200  0.7066 -0.0528
  163SOPE   H4R18270   3.021   1.415  10.265 -1.7510 -1.1205 -0.0332
  163SOPE   H4S18271   3.183   1.380  10.182  1.8313 -1.9562  0.1570
  163SOPE   C2518272   3.009   1.263  10.108  0.6321 -0.0136  0.4784
  163SOPE   H5R18273   3.080   1.181  10.084  0.3007 -0.1239 -0.1288
  163SOPE   H5S18274   2.915   1.215  10.142  1.4043 -1.8388  0.1213
  163SOPE   C2618275   2.982   1.339   9.981 -0.2892 -0.5968 -0.4801
  163SOPE   H6R18276   2.955   1.441  10.015  1.0847  0.0364 -1.2225
  163SOPE   H6S18277   3.076   1.356   9.924  0.2895  0.6828  0.7980
  163SOPE   C2718278   2.884   1.268   9.895  0.2040  0.5388 -0.3859
  163SOPE   H7R18279   2.938   1.186   9.844 -0.6442 -0.1528 -0.1899
  163SOPE   H7S18280   2.798   1.230   9.953  0.6191  1.6310  1.0242
  163SOPE   C2818281   2.831   1.347   9.773  0.3242  0.7759  0.0261
  163SOPE   H8R18282   2.769   1.276   9.714 -0.7202 -1.4739  3.5090
  163SOPE   H8S18283   2.763   1.423   9.816 -2.3198 -0.7555 -1.2046
  163SOPE   C2918284   2.925   1.430   9.683 -0.3638  0.5679  0.1191
  163SOPE   H9118285   2.959   1.524   9.728  0.8367  0.2874 -0.1806
  163SOPE  C21018286   2.981   1.396   9.562  0.4387 -0.2149  0.4456
  163SOPE  H10118287   3.052   1.453   9.501  0.9259 -0.8464  0.4147
  163SOPE  C21118288   2.951   1.264   9.499  0.5268  0.4663  0.1784
  163SOPE  H11R18289   2.887   1.201   9.565  0.9688 -2.0097 -1.5897
  163SOPE  H11S18290   3.050   1.218   9.477  1.9493  2.4131  2.0924
  163SOPE  C21218291   2.875   1.281   9.362 -0.6079 -0.0050 -0.2778
  163SOPE  H12R18292   2.786   1.347   9.371  0.4421  1.5738 -0.9895
  163SOPE  H12S18293   2.831   1.185   9.327  0.7758 -0.4260 -0.9254
  163SOPE  C21318294   2.959   1.337   9.247 -0.0488 -0.6242  0.0162
  163SOPE  H13R18295   3.033   1.259   9.218  1.7149  0.3046  1.7245
  163SOPE  H13S18296   3.016   1.428   9.276 -2.1546  0.9460 -0.5962
  163SOPE  C21418297   2.874   1.370   9.122 -0.0130  0.6817 -0.9425
  163SOPE  H14R18298   2.804   1.454   9.143  1.1796  1.7230 -0.9682
  163SOPE  H14S18299   2.802   1.289   9.097  0.2147 -0.3451  1.4623
  163SOPE  C21518300   2.967   1.398   9.011  0.0766  0.6178  0.4676
  163SOPE  H15R18301   3.019   1.309   8.968 -0.1480  0.2771  0.8890
  163SOPE  H15S18302   3.041   1.475   9.041  1.2365 -0.9835  1.9214
  163SOPE  C21618303   2.900   1.456   8.877  0.8278  0.4133  0.3079
  163SOPE  H16R18304   2.820   1.384   8.847  0.6379 -1.5090  4.6493
  163SOPE  H16S18305   2.973   1.451   8.793  1.2703 -1.5319  0.7549
  163SOPE  C21718306   2.836   1.598   8.894 -0.5228 -0.2523 -1.1301
  163SOPE  H17R18307   2.856   1.633   8.998  0.9140 -0.4352 -1.3272
  163SOPE  H17S18308   2.727   1.583   8.908 -0.4291  0.7928  1.1739
  163SOPE  C21818309   2.871   1.699   8.787 -0.2481  0.0456 -0.4849
  163SOPE  H18R18310   2.806   1.780   8.826  0.6970  0.7101 -0.2510
  163SOPE  H18S18311   2.836   1.681   8.683 -2.4462  2.3173 -0.2320
  163SOPE  H18T18312   2.977   1.730   8.793 -0.6401  1.1775  2.1130
  163SOPE   C3318313   3.333   1.882  10.370  0.5256  0.3302  0.2898
  163SOPE   H3X18314   3.437   1.842  10.372 -0.0863 -1.3935 -0.3612
  163SOPE   H3Y18315   3.326   1.980  10.319 -1.4383  0.1069  0.0712
  163SOPE   C3418316   3.250   1.786  10.280 -0.3581 -0.0894  0.2307
  163SOPE   H4X18317   3.142   1.803  10.297 -0.2987 -1.4731  2.2574
  163SOPE   H4Y18318   3.266   1.686  10.325  1.2833  0.6864  1.4699
  163SOPE   C3518319   3.291   1.794  10.130  0.3336  0.0877  0.0358
  163SOPE   H5X18320   3.398   1.771  10.112  0.1230 -1.5753  0.7503
  163SOPE   H5Y18321   3.268   1.899  10.101 -1.0412  0.5321  2.4938
  163SOPE   C3618322   3.196   1.697  10.056  0.3025  0.3352 -0.0467
  163SOPE   H6X18323   3.093   1.728  10.081 -0.2811 -1.5729  0.0381
  163SOPE   H6Y18324   3.202   1.602  10.112  0.0329  0.5854  0.4086
  163SOPE   C3718325   3.215   1.694   9.912 -0.4147  0.8535  0.0936
  163SOPE   H7X18326   3.138   1.631   9.862 -0.8945  2.3617 -1.1549
  163SOPE   H7Y18327   3.307   1.634   9.898 -0.9330 -0.1294  0.7691
  163SOPE   C3818328   3.228   1.827   9.836 -0.2508 -0.0125  0.4200
  163SOPE   H8X18329   3.303   1.884   9.895 -1.4867  0.3106  1.7342
  163SOPE   H8Y18330   3.134   1.886   9.841  0.0255  0.4612  0.0861
  163SOPE   C3918331   3.281   1.807   9.693 -0.0209 -0.1757  0.4594
  163SOPE   H9X18332   3.375   1.748   9.690 -0.2012 -0.4585  0.4067
  163SOPE   H9Y18333   3.308   1.905   9.648  1.6983 -1.1696 -0.8132
  163SOPE  C31018334   3.173   1.746   9.601 -0.2147 -0.3627 -0.1020
  163SOPE  H10X18335   3.096   1.826   9.607  1.0846  0.8487  1.5043
  163SOPE  H10Y18336   3.128   1.654   9.643  2.0703 -1.9453 -0.9466
  163SOPE  C31118337   3.216   1.736   9.449 -0.0405  0.4596 -0.1159
  163SOPE  H11X18338   3.131   1.688   9.396  0.7365 -1.2215  0.1041
  163SOPE  H11Y18339   3.302   1.667   9.441 -0.2167 -0.1087  2.1845
  163SOPE  C31218340   3.248   1.867   9.390 -0.3129 -0.4724  0.2205
  163SOPE  H12X18341   3.331   1.921   9.440 -0.7310  1.2484 -0.8659
  163SOPE  H12Y18342   3.160   1.935   9.383  1.3256  1.8469  0.9218
  163SOPE  C31318343   3.303   1.861   9.248  0.4157  0.3664  0.4382
  163SOPE  H13X18344   3.394   1.796   9.253 -0.6090 -1.0365  1.7296
  163SOPE  H13Y18345   3.319   1.967   9.217 -0.9076  0.8064  1.1899
  163SOPE  C31418346   3.213   1.789   9.146  0.3557 -1.1639 -0.3155
  163SOPE  H14X18347   3.128   1.859   9.134  2.3011  1.4999  0.4347
  163SOPE  H14Y18348   3.166   1.698   9.189 -2.0865  0.9963  1.9231
  163SOPE  C31518349   3.287   1.750   9.015  0.6564  0.1006 -0.1910
  163SOPE  H15X18350   3.245   1.663   8.960  0.6016 -0.2178  0.3480
  163SOPE  H15Y18351   3.374   1.691   9.050 -0.1052 -1.3537 -0.6656
  163SOPE  C31618352   3.343   1.866   8.934  0.6499 -0.6822  0.4708
  163SOPE  H16X18353   3.444   1.839   8.898  0.4011  0.4460 -1.1710
  163SOPE  H16Y18354   3.360   1.955   8.998 -1.8723 -1.4947  2.4569
  163SOPE  C31718355   3.254   1.892   8.807  0.2819  0.4008 -0.4442
  163SOPE  H17X18356   3.309   1.974   8.755  1.9187  0.1211  0.7727
  163SOPE  H17Y18357   3.153   1.927   8.835  1.3763  3.0837  0.4777
  163SOPE  C31818358   3.251   1.774   8.710  0.0328 -0.3734  0.3080
  163SOPE  H18X18359   3.355   1.760   8.676  0.9238  1.6453  1.9873
  163SOPE  H18Y18360   3.169   1.791   8.636 -0.1014 -0.9329  0.3183
  163SOPE  H18Z18361   3.222   1.680   8.763  0.7570 -0.3395  0.7625
  164SOPE     N18362   6.746   0.193  10.778  0.1849 -0.6220 -0.4678
  164SOPE   HN118363   6.753   0.274  10.843 -0.9580  1.0368 -2.2996
  164SOPE   HN218364   6.648   0.171  10.750  0.3053 -0.0628 -1.3657
  164SOPE   HN318365   6.783   0.113  10.834  0.6087  2.4607  4.2478
  164SOPE   C1218366   6.829   0.239  10.667  0.2682  0.1368 -0.1397
  164SOPE  H12A18367   6.811   0.165  10.586 -0.8755  1.1281 -0.8195
  164SOPE  H12B18368   6.935   0.237  10.701 -0.1022 -0.8283  1.0404
  164SOPE   C1118369   6.779   0.377  10.610 -0.2646 -0.4846 -0.5322
  164SOPE  H11A18370   6.674   0.371  10.574 -0.4154 -3.2229  0.1588
  164SOPE  H11B18371   6.837   0.400  10.519 -1.7669  0.3763 -1.3090
  164SOPE     P18372   6.911   0.574  10.737  0.3638 -0.0595 -0.1817
  164SOPE   O1318373   7.034   0.494  10.727 -0.7793 -0.3828  0.2774
  164SOPE   O1418374   6.887   0.641  10.869 -0.0706  0.5383 -0.1018
  164SOPE   O1218375   6.786   0.485  10.713 -0.2448 -0.0420 -0.0846
  164SOPE   O1118376   6.897   0.693  10.633  0.2052 -0.2606  0.0234
  164SOPE    C118377   6.773   0.727  10.574 -0.1348  0.3149 -0.0520
  164SOPE    HA18378   6.772   0.838  10.573  3.7327  0.4921  0.4318
  164SOPE    HB18379   6.680   0.682  10.615  0.9972 -1.8624  0.2595
  164SOPE    C218380   6.777   0.691  10.419 -0.0976  1.2912 -0.6750
  164SOPE    HS18381   6.787   0.581  10.418  0.0275  1.2985 -0.1885
  164SOPE   O2118382   6.882   0.769  10.360 -0.6156  0.1884  0.3645
  164SOPE   C2118383   6.997   0.704  10.372 -0.4255  0.8337  0.7449
  164SOPE   O2218384   7.014   0.581  10.367 -0.2182  0.3052 -0.0930
  164SOPE   C2218385   7.113   0.805  10.386 -0.4387  0.8813  0.3414
  164SOPE   H2R18386   7.164   0.766  10.476 -0.4862 -1.4449 -0.5589
  164SOPE   H2S18387   7.069   0.907  10.399  0.5223  1.6285 -1.8369
  164SOPE    C318388   6.650   0.748  10.350 -0.3621  0.6878  0.1863
  164SOPE    HX18389   6.660   0.859  10.340  0.4015  0.6805  0.8036
  164SOPE    HY18390   6.559   0.743  10.415  0.6025  0.8250  1.5875
  164SOPE   O3118391   6.627   0.685  10.216 -0.0131 -0.0754 -0.3476
  164SOPE   C3118392   6.558   0.567  10.232 -0.1227  0.3050  0.0260
  164SOPE   O3218393   6.513   0.522  10.337 -0.5645  0.2629 -0.0179
  164SOPE   C3218394   6.534   0.499  10.093  0.2945  0.1610  0.0904
  164SOPE   H2X18395   6.622   0.432  10.095 -0.5000 -0.8976  1.7043
  164SOPE   H2Y18396   6.534   0.575  10.012 -1.1115 -0.4611 -0.5307
  164SOPE   C2318397   7.205   0.785  10.263  0.5713  0.4760  0.1575
  164SOPE   H3R18398   7.220   0.677  10.239  0.0669  0.7769 -1.6334
  164SOPE   H3S18399   7.310   0.820  10.276  0.9509 -0.7634  0.6020
  164SOPE   C2418400   7.133   0.842  10.139  0.4675 -0.2213 -0.2576
  164SOPE   H4R18401   7.029   0.805  10.150  0.2547  0.4206 -0.0392
  164SOPE   H4S18402   7.121   0.953  10.136  0.5302 -0.2196 -0.5112
  164SOPE   C2518403   7.203   0.795  10.005  0.2373  0.1846 -0.2706
  164SOPE   H5R18404   7.305   0.834   9.987  1.1229 -0.8587  2.0226
  164SOPE   H5S18405   7.202   0.684  10.003 -2.9855  0.1273 -1.1209
  164SOPE   C2618406   7.122   0.845   9.887  0.1313  0.7121  0.2368
  164SOPE   H6R18407   7.024   0.801   9.914 -0.2250  0.5121 -1.2946
  164SOPE   H6S18408   7.109   0.956   9.884  0.7705  0.7842 -0.0402
  164SOPE   C2718409   7.181   0.804   9.752 -0.5092  1.1835 -0.2370
  164SOPE   H7R18410   7.281   0.852   9.748 -0.4408  1.0505 -0.1380
  164SOPE   H7S18411   7.198   0.694   9.759 -1.4367  1.1243  1.8228
  164SOPE   C2818412   7.084   0.841   9.635  0.1903  0.6198  0.1080
  164SOPE   H8R18413   7.002   0.766   9.637  0.5814  0.1983  0.8897
  164SOPE   H8S18414   7.034   0.936   9.663  0.5387  0.1996  2.3820
  164SOPE   C2918415   7.139   0.856   9.499 -0.4973 -0.3342  0.3387
  164SOPE   H9118416   7.191   0.949   9.472  0.5280 -1.6526 -2.7272
  164SOPE  C21018417   7.099   0.773   9.400  0.2155 -0.2946  0.3727
  164SOPE  H10118418   7.143   0.782   9.299  0.6920 -1.7600  0.4146
  164SOPE  C21118419   7.004   0.654   9.403 -0.0881  0.2439 -0.4049
  164SOPE  H11R18420   6.905   0.677   9.447  0.1966 -1.0445  1.0029
  164SOPE  H11S18421   7.033   0.571   9.471  0.8943 -0.1219 -1.2436
  164SOPE  C21218422   6.977   0.592   9.260  0.3286 -0.5988  0.5298
  164SOPE  H12R18423   6.914   0.501   9.268 -0.3343 -0.3257 -1.1464
  164SOPE  H12S18424   7.066   0.555   9.204 -0.3943  0.9358 -1.7933
  164SOPE  C21318425   6.898   0.684   9.163  0.4268  0.6383 -0.8023
  164SOPE  H13R18426   6.963   0.773   9.153  1.2655  0.1346  0.0055
  164SOPE  H13S18427   6.803   0.720   9.207  0.4712  0.0779 -0.2340
  164SOPE  C21418428   6.865   0.629   9.027 -0.7374  0.5960  0.7770
  164SOPE  H14R18429   6.814   0.712   8.972 -1.0488 -0.1912 -0.1558
  164SOPE  H14S18430   6.792   0.546   9.041  0.0181 -0.1547  0.3391
  164SOPE  C21518431   6.985   0.586   8.937  0.0144  0.9300  0.0695
  164SOPE  H15R18432   7.022   0.492   8.985 -1.4929  0.4098  0.2495
  164SOPE  H15S18433   7.071   0.657   8.927  1.8692 -1.4043 -1.9318
  164SOPE  C21618434   6.935   0.550   8.798 -0.1113 -0.0819 -0.2778
  164SOPE  H16R18435   6.858   0.621   8.760  0.9406 -0.0674 -2.5069
  164SOPE  H16S18436   6.884   0.453   8.814  0.4248 -0.1987  0.8350
  164SOPE  C21718437   7.045   0.537   8.694 -1.2172  0.2858  0.9243
  164SOPE  H17R18438   7.014   0.475   8.608 -0.0130 -0.0073  0.6886
  164SOPE  H17S18439   7.139   0.502   8.741 -2.5444 -1.7000  2.2287
  164SOPE  C21818440   7.076   0.674   8.627  0.2604  0.3141  0.6096
  164SOPE  H18R18441   7.169   0.665   8.567  0.1325 -0.4224  0.5165
  164SOPE  H18S18442   7.089   0.749   8.707 -0.8820  0.0800  1.0397
  164SOPE  H18T18443   6.992   0.695   8.557  0.4958  1.1192  0.5573
  164SOPE   C3318444   6.404   0.407  10.096 -0.9388 -0.4663 -0.1445
  164SOPE   H3X18445   6.304   0.456  10.098 -0.8284 -0.2567  0.2547
  164SOPE   H3Y18446   6.428   0.337  10.179  0.2532 -1.6738 -1.4498
  164SOPE   C3418447   6.397   0.310   9.983  0.5024 -0.4946 -0.0668
  164SOPE   H4X18448   6.312   0.242  10.006  0.0351  0.2364  0.3786
  164SOPE   H4Y18449   6.493   0.253   9.984  1.4301  1.0003 -0.6687
  164SOPE   C3518450   6.368   0.385   9.848 -0.0274 -0.4528  0.4552
  164SOPE   H5X18451   6.445   0.464   9.837 -1.1843  0.5800 -0.4725
  164SOPE   H5Y18452   6.267   0.428   9.861  0.0615 -0.3931  0.9756
  164SOPE   C3618453   6.371   0.291   9.722 -0.3932 -0.8407  0.1247
  164SOPE   H6X18454   6.282   0.224   9.729 -1.6518  0.5411 -1.5486
  164SOPE   H6Y18455   6.467   0.237   9.727 -0.7144 -1.3155  1.4477
  164SOPE   C3718456   6.360   0.364   9.586 -0.8655  0.6173  0.1844
  164SOPE   H7X18457   6.367   0.292   9.502 -2.5395  0.5362  0.0790
  164SOPE   H7Y18458   6.449   0.425   9.562 -1.0769  0.2656 -1.6426
  164SOPE   C3818459   6.225   0.436   9.566 -0.7830 -0.0364  0.2645
  164SOPE   H8X18460   6.231   0.531   9.623  2.6432 -0.8327  1.4832
  164SOPE   H8Y18461   6.144   0.364   9.593 -0.0895 -0.6638  0.7258
  164SOPE   C3918462   6.199   0.451   9.420 -0.5681 -0.5426  0.9302
  164SOPE   H9X18463   6.209   0.355   9.365 -0.6317 -0.1204  0.1686
  164SOPE   H9Y18464   6.285   0.515   9.390 -1.7686  1.2588  1.1586
  164SOPE  C31018465   6.061   0.500   9.388 -0.6887  0.1273 -0.7442
  164SOPE  H10X18466   6.037   0.596   9.438 -0.3698 -0.4131  0.4897
  164SOPE  H10Y18467   5.986   0.427   9.426 -0.6568  1.2704  1.7217
  164SOPE  C31118468   6.048   0.517   9.236 -0.8225  0.3268  0.1749
  164SOPE  H11X18469   6.082   0.423   9.187 -0.6074  0.0878  0.7709
  164SOPE  H11Y18470   6.111   0.598   9.194  0.8303 -1.0612 -0.1020
  164SOPE  C31218471   5.900   0.547   9.199 -0.1240 -0.9423  0.0008
  164SOPE  H12X18472   5.862   0.638   9.249  1.3267 -1.3334  1.9127
  164SOPE  H12Y18473   5.836   0.458   9.219 -1.3679  0.0568  0.5893
  164SOPE  C31318474   5.887   0.571   9.052  0.0980 -0.0816  0.6496
  164SOPE  H13X18475   5.959   0.650   9.020 -0.2095  0.5633  1.5048
  164SOPE  H13Y18476   5.786   0.611   9.031 -0.0365 -0.6854  0.1136
  164SOPE  C31418477   5.910   0.446   8.956  0.5079 -0.0955  0.1378
  164SOPE  H14X18478   5.848   0.362   8.993  0.5626 -1.8971 -3.4242
  164SOPE  H14Y18479   6.013   0.404   8.959 -0.0990 -1.6816 -0.5769
  164SOPE  C31518480   5.883   0.478   8.806  0.5246 -0.3237  0.5588
  164SOPE  H15X18481   5.912   0.391   8.743  1.0016  0.3613 -0.1852
  164SOPE  H15Y18482   5.941   0.570   8.781  0.9409  0.1915  3.1315
  164SOPE  C31618483   5.729   0.490   8.775 -0.7801 -0.0668 -0.1129
  164SOPE  H16X18484   5.683   0.585   8.811  0.0621 -0.0090  0.8693
  164SOPE  H16Y18485   5.688   0.399   8.824  1.5636 -0.4294  1.3253
  164SOPE  C31718486   5.708   0.495   8.629 -0.0627 -0.8996  0.2232
  164SOPE  H17X18487   5.786   0.437   8.576  0.4520 -1.5064  1.5969
  164SOPE  H17Y18488   5.720   0.596   8.583  0.0853 -0.5884  0.9295
  164SOPE  C31818489   5.579   0.432   8.576  0.6657 -0.1102 -0.1482
  164SOPE  H18X18490   5.573   0.321   8.583  5.0756 -0.4498  3.4643
  164SOPE  H18Y18491   5.558   0.458   8.470 -0.3740 -1.5796 -0.3323
  164SOPE  H18Z18492   5.496   0.470   8.639 -0.2320 -1.4275 -0.4913
  165SOPE     N18493   2.728   2.150  11.249 -0.3091 -0.1692 -0.0581
  165SOPE   HN118494   2.675   2.236  11.275 -0.4646 -0.1273 -0.4955
  165SOPE   HN218495   2.658   2.079  11.222 -0.0354 -0.4779  0.0414
  165SOPE   HN318496   2.789   2.112  11.324 -0.4426 -0.7590 -0.2469
  165SOPE   C1218497   2.812   2.175  11.123  0.0298 -0.2724  0.4271
  165SOPE  H12A18498   2.869   2.083  11.099  1.5577  0.8781 -0.5080
  165SOPE  H12B18499   2.880   2.260  11.146 -2.0754  1.0728  2.0730
  165SOPE   C1118500   2.715   2.213  11.009  0.0008 -0.4127 -0.1697
  165SOPE  H11A18501   2.648   2.130  10.981 -0.7934  0.3408 -0.5703
  165SOPE  H11B18502   2.781   2.233  10.922 -1.7744 -0.1320 -1.5125
  165SOPE     P18503   2.513   2.372  11.009 -0.0397 -0.1558  0.2432
  165SOPE   O1318504   2.487   2.505  11.070  0.5781 -0.2391 -0.4624
  165SOPE   O1418505   2.421   2.267  11.051 -0.2791  0.2484 -1.0099
  165SOPE   O1218506   2.662   2.339  11.047 -0.1439 -0.4774  0.1486
  165SOPE   O1118507   2.524   2.399  10.858 -0.0922 -0.8332  0.0046
  165SOPE    C118508   2.619   2.487  10.803  0.1838  0.3228  0.0255
  165SOPE    HA18509   2.724   2.468  10.834  0.2005  1.1800  0.5256
  165SOPE    HB18510   2.604   2.589  10.845  1.5159  1.1728 -1.4087
  165SOPE    C218511   2.615   2.497  10.648 -0.0781 -0.0256 -0.0266
  165SOPE    HS18512   2.518   2.535  10.607  0.1657  1.1243  0.4130
  165SOPE   O2118513   2.634   2.368  10.592 -0.5333  0.2234 -0.5138
  165SOPE   C2118514   2.547   2.321  10.500 -0.6203  0.4791  0.0401
  165SOPE   O2218515   2.438   2.361  10.486  0.1907 -0.7737 -0.0753
  165SOPE   C2218516   2.617   2.204  10.426  0.2121  0.2369 -0.3126
  165SOPE   H2R18517   2.642   2.121  10.497 -0.5526  0.4477  0.2226
  165SOPE   H2S18518   2.713   2.237  10.382 -0.7370  1.7954 -1.2768
  165SOPE    C318519   2.730   2.588  10.597  1.2095  0.3107 -0.6668
  165SOPE    HX18520   2.824   2.553  10.646  1.3774 -0.5774 -1.6023
  165SOPE    HY18521   2.712   2.693  10.631 -0.0611 -0.1695  0.2061
  165SOPE   O3118522   2.728   2.590  10.456  0.0639 -0.1564  0.0437
  165SOPE   C3118523   2.836   2.536  10.396  0.7533  0.6104 -0.3501
  165SOPE   O3218524   2.916   2.462  10.453  0.0694 -0.0460  0.2305
  165SOPE   C3218525   2.834   2.595  10.256  0.3598  0.0493  0.1644
  165SOPE   H2X18526   2.912   2.549  10.191 -1.5054 -0.4070 -1.8628
  165SOPE   H2Y18527   2.856   2.704  10.259  0.0884  0.1842 -1.4959
  165SOPE   C2318528   2.521   2.139  10.322  0.2313  0.0856 -0.5149
  165SOPE   H3R18529   2.414   2.163  10.340  0.3060 -0.2265  0.3936
  165SOPE   H3S18530   2.521   2.028  10.323  0.0236  0.0646  1.2763
  165SOPE   C2418531   2.557   2.177  10.180  0.1869 -0.1831  0.7531
  165SOPE   H4R18532   2.552   2.284  10.149  1.0361 -0.3664 -0.0680
  165SOPE   H4S18533   2.662   2.154  10.153  0.4391  1.2587  0.3962
  165SOPE   C2518534   2.470   2.082  10.089  0.0433 -0.5811  0.8227
  165SOPE   H5R18535   2.493   1.976  10.114 -1.0629 -1.2647 -0.8988
  165SOPE   H5S18536   2.362   2.101  10.103 -0.2934 -1.8501  0.0997
  165SOPE   C2618537   2.488   2.115   9.941 -0.1974 -0.2100  0.9917
  165SOPE   H6R18538   2.463   2.221   9.915  0.4961 -0.7958 -2.5448
  165SOPE   H6S18539   2.593   2.098   9.910 -0.3205 -0.9526  0.9653
  165SOPE   C2718540   2.403   2.031   9.850 -0.7046  0.0880 -0.2268
  165SOPE   H7R18541   2.403   1.921   9.867 -3.1092 -0.2812 -2.1067
  165SOPE   H7S18542   2.296   2.058   9.863 -0.7131  0.2604 -0.6289
  165SOPE   C2818543   2.453   2.038   9.698  0.0370  0.0139 -0.4177
  165SOPE   H8R18544   2.559   2.009   9.685 -0.2133 -0.2026 -2.2902
  165SOPE   H8S18545   2.389   1.975   9.633 -0.5731  1.5429 -1.3489
  165SOPE   C2918546   2.455   2.171   9.635  0.7188  0.0507  0.0101
  165SOPE   H9118547   2.496   2.257   9.690 -2.0376  2.3073 -1.2038
  165SOPE  C21018548   2.418   2.208   9.516 -0.2860 -0.6561  0.4792
  165SOPE  H10118549   2.415   2.317   9.497 -1.9225 -1.3819 -4.7152
  165SOPE  C21118550   2.363   2.125   9.406 -0.3515 -0.3423 -0.8991
  165SOPE  H11R18551   2.255   2.146   9.394 -0.4961  0.2542  1.0868
  165SOPE  H11S18552   2.379   2.018   9.431  0.5728  0.5980  3.2925
  165SOPE  C21218553   2.446   2.161   9.279 -0.4460  0.0386  0.0014
  165SOPE  H12R18554   2.555   2.161   9.301 -0.4889  0.2205  0.2188
  165SOPE  H12S18555   2.421   2.261   9.240 -2.3438  0.1771  1.4255
  165SOPE  C21318556   2.421   2.059   9.171  0.1932  0.3604  0.3171
  165SOPE  H13R18557   2.318   2.084   9.135  1.8198  1.8633 -3.8788
  165SOPE  H13S18558   2.431   1.959   9.219  0.0734  0.6907  1.0419
  165SOPE  C21418559   2.515   2.069   9.045 -0.1698 -0.1846 -0.2198
  165SOPE  H14R18560   2.616   2.040   9.080  0.1574  2.0683  0.9197
  165SOPE  H14S18561   2.529   2.175   9.013 -0.8720  1.0031  2.9163
  165SOPE  C21518562   2.467   1.967   8.946  0.1546 -0.1321  0.2473
  165SOPE  H15R18563   2.370   2.001   8.903  0.6342  0.9343 -0.0280
  165SOPE  H15S18564   2.454   1.870   8.998 -0.3699 -0.7315 -0.9681
  165SOPE  C21618565   2.571   1.946   8.837 -0.7302  0.1786 -0.2276
  165SOPE  H16R18566   2.667   1.947   8.892 -0.4364 -0.9707 -0.6996
  165SOPE  H16S18567   2.573   2.035   8.769  0.1207 -1.3502 -2.3074
  165SOPE  C21718568   2.550   1.816   8.750  0.6265 -0.3315  0.0339
  165SOPE  H17R18569   2.544   1.732   8.823 -0.3436  0.7846  1.2939
  165SOPE  H17S18570   2.627   1.782   8.678 -1.3696 -1.5212 -1.6588
  165SOPE  C21818571   2.417   1.834   8.675 -0.2409 -0.7816  0.2540
  165SOPE  H18R18572   2.328   1.856   8.738  0.5585 -0.1121  1.1658
  165SOPE  H18S18573   2.396   1.738   8.623  2.1697 -0.6806 -1.0476
  165SOPE  H18T18574   2.421   1.913   8.598 -0.8485  0.0704  1.0731
  165SOPE   C3318575   2.695   2.579  10.185 -0.4183  0.0471 -0.1196
  165SOPE   H3X18576   2.650   2.680  10.187  0.6300  0.5281  0.0878
  165SOPE   H3Y18577   2.624   2.502  10.220 -0.5011 -0.1058 -0.6176
  165SOPE   C3418578   2.721   2.539  10.042 -0.4402 -0.2218 -1.1356
  165SOPE   H4X18579   2.775   2.442  10.041 -0.6023 -0.3790  0.8321
  165SOPE   H4Y18580   2.798   2.607   9.999  0.0751  1.3275  1.9824
  165SOPE   C3518581   2.591   2.529   9.958  0.7907 -0.0886 -0.3733
  165SOPE   H5X18582   2.555   2.633   9.944 -0.4834  0.0866  3.1708
  165SOPE   H5Y18583   2.513   2.462  10.001  0.7502 -1.1493 -2.0217
  165SOPE   C3618584   2.620   2.460   9.825 -0.6850 -0.7204  1.2669
  165SOPE   H6X18585   2.524   2.457   9.771  0.7675 -0.1081 -1.5149
  165SOPE   H6Y18586   2.637   2.354   9.855 -0.1725 -0.2807  2.6209
  165SOPE   C3718587   2.726   2.531   9.735  0.2630 -0.0493 -0.2130
  165SOPE   H7X18588   2.825   2.507   9.780  0.0258  2.2244  1.7120
  165SOPE   H7Y18589   2.717   2.641   9.747  0.3021  0.0509 -1.0691
  165SOPE   C3818590   2.705   2.500   9.585  0.1359  0.2165 -0.3764
  165SOPE   H8X18591   2.673   2.394   9.573  0.5019  0.0242  0.2996
  165SOPE   H8Y18592   2.801   2.507   9.531  1.7389 -2.0861  1.9309
  165SOPE   C3918593   2.593   2.591   9.528 -0.0086  0.1945 -1.0268
  165SOPE   H9X18594   2.611   2.694   9.564 -0.3254 -0.0035 -0.2861
  165SOPE   H9Y18595   2.496   2.562   9.573  0.3400 -0.1869 -0.5217
  165SOPE  C31018596   2.570   2.586   9.378 -0.9523  0.2006  0.3435
  165SOPE  H10X18597   2.496   2.666   9.360 -0.2706  0.6831 -0.3738
  165SOPE  H10Y18598   2.527   2.489   9.345 -2.6043  0.1940  2.2785
  165SOPE  C31118599   2.695   2.622   9.293  0.6083 -1.0083 -0.2872
  165SOPE  H11X18600   2.784   2.565   9.326  0.8263  0.6332  2.1888
  165SOPE  H11Y18601   2.717   2.731   9.303 -0.1481 -0.8615 -0.1588
  165SOPE  C31218602   2.683   2.602   9.145  0.3969 -0.7615  1.4062
  165SOPE  H12X18603   2.628   2.511   9.115 -0.0094  0.1338 -0.7414
  165SOPE  H12Y18604   2.786   2.591   9.104 -0.4683  1.0356 -1.5930
  165SOPE  C31318605   2.603   2.719   9.077  0.4036  0.4727  0.1729
  165SOPE  H13X18606   2.639   2.817   9.114  3.0122 -0.9328  1.6884
  165SOPE  H13Y18607   2.497   2.722   9.111  0.3952  1.5288  0.0768
  165SOPE  C31418608   2.605   2.705   8.925  0.2898 -0.0841  0.4449
  165SOPE  H14X18609   2.561   2.606   8.903  0.1471  0.1778 -0.5219
  165SOPE  H14Y18610   2.715   2.704   8.907  0.5195 -0.7037  1.7812
  165SOPE  C31518611   2.524   2.802   8.838  0.3157  0.0258 -0.3713
  165SOPE  H15X18612   2.557   2.903   8.870 -1.6749 -0.2600  2.9592
  165SOPE  H15Y18613   2.418   2.793   8.872  0.2623  1.3965 -0.1343
  165SOPE  C31618614   2.541   2.777   8.693 -0.0523  0.0257 -0.0327
  165SOPE  H16X18615   2.480   2.686   8.673 -0.7613  0.7921 -1.5413
  165SOPE  H16Y18616   2.649   2.760   8.674  1.0376  2.7491  2.8461
  165SOPE  C31718617   2.486   2.881   8.595  0.5033 -0.3681 -0.2319
  165SOPE  H17X18618   2.537   2.862   8.498 -0.5363 -2.3923 -0.4402
  165SOPE  H17Y18619   2.499   2.987   8.625  2.6004 -0.3292 -1.0999
  165SOPE  C31818620   2.336   2.852   8.581 -0.3927 -0.1954  0.0545
  165SOPE  H18X18621   2.329   2.757   8.524 -0.6190  0.4749 -1.0834
  165SOPE  H18Y18622   2.283   2.925   8.515 -0.8566 -0.6221 -0.0514
  165SOPE  H18Z18623   2.283   2.845   8.678  2.9748  0.7268  2.1505
  166SOPE     N18624   2.705   6.527  10.779 -0.8340  0.4559  0.6604
  166SOPE   HN118625   2.807   6.527  10.760 -1.0971 -3.3518 -2.0014
  166SOPE   HN218626   2.675   6.437  10.737  1.1698  0.1604 -0.2736
  166SOPE   HN318627   2.677   6.611  10.724 -0.3851  0.2553  0.1153
  166SOPE   C1218628   2.677   6.556  10.918 -0.0492  0.5286  0.7780
  166SOPE  H12A18629   2.731   6.648  10.947  1.5184 -0.5116  1.3153
  166SOPE  H12B18630   2.717   6.465  10.968  0.3861 -0.7867 -1.7656
  166SOPE   C1118631   2.530   6.580  10.931 -0.0622  0.1839  1.0998
  166SOPE  H11A18632   2.509   6.615  11.034 -1.1643  1.1906  0.5625
  166SOPE  H11B18633   2.466   6.493  10.906  0.4175  0.2811 -0.5589
  166SOPE     P18634   2.368   6.679  10.752 -0.0462  0.0778  0.0667
  166SOPE   O1318635   2.258   6.660  10.846  0.7644 -0.1674 -0.0365
  166SOPE   O1418636   2.393   6.567  10.653 -0.3991  0.8814 -0.1771
  166SOPE   O1218637   2.495   6.691  10.847 -0.0038  0.0389  0.1112
  166SOPE   O1118638   2.356   6.810  10.673 -0.3050  0.0341  0.0614
  166SOPE    C118639   2.239   6.883  10.657  0.7211  0.1346 -0.2761
  166SOPE    HA18640   2.271   6.988  10.677 -1.3943  0.8148 -0.2095
  166SOPE    HB18641   2.161   6.858  10.732 -0.4157  0.0211 -1.4471
  166SOPE    C218642   2.187   6.872  10.511 -0.2133  0.3025 -0.1577
  166SOPE    HS18643   2.087   6.916  10.496 -0.1476  0.7123  0.5384
  166SOPE   O2118644   2.185   6.737  10.458  0.6427 -0.5535 -0.2249
  166SOPE   C2118645   2.101   6.658  10.521 -0.8262  0.2541 -0.2751
  166SOPE   O2218646   2.016   6.701  10.596  0.6411  0.0722 -0.2254
  166SOPE   C2218647   2.127   6.515  10.480  0.1495 -0.2319  0.1875
  166SOPE   H2R18648   2.106   6.449  10.567  0.4147 -1.0979 -0.3883
  166SOPE   H2S18649   2.231   6.501  10.443 -0.2139 -0.5143 -0.7558
  166SOPE    C318650   2.293   6.936  10.413  0.2549  0.0212 -0.4999
  166SOPE    HX18651   2.386   6.875  10.417  0.1746 -0.0145  1.2956
  166SOPE    HY18652   2.319   7.034  10.456  3.1124 -0.3807 -1.1132
  166SOPE   O3118653   2.246   6.948  10.276  0.0287  0.1060  0.1836
  166SOPE   C3118654   2.331   7.014  10.202  0.8694  0.2064 -0.2658
  166SOPE   O3218655   2.439   7.057  10.241  0.5628  0.3298 -0.3986
  166SOPE   C3218656   2.266   7.034  10.065  0.5382  0.0895 -0.5739
  166SOPE   H2X18657   2.155   7.028  10.075  0.5679 -2.0094 -1.1635
  166SOPE   H2Y18658   2.316   6.952  10.010 -0.2747 -0.0030 -1.2057
  166SOPE   C2318659   2.026   6.487  10.363 -0.1211 -0.3885 -0.6364
  166SOPE   H3R18660   2.038   6.564  10.283 -0.1469  0.7647  0.4302
  166SOPE   H3S18661   1.924   6.494  10.406 -0.4675 -1.6238 -1.2347
  166SOPE   C2418662   2.015   6.349  10.299 -0.4582 -0.9478  0.4772
  166SOPE   H4R18663   2.111   6.318  10.251  0.2295  1.5242  0.1572
  166SOPE   H4S18664   1.994   6.286  10.388 -1.7125 -2.0215 -0.5379
  166SOPE   C2518665   1.897   6.345  10.200  0.2953 -0.0250  0.4044
  166SOPE   H5R18666   1.883   6.238  10.177 -1.7982  0.1980  0.4304
  166SOPE   H5S18667   1.801   6.373  10.248 -0.9584 -1.4495 -1.1288
  166SOPE   C2618668   1.918   6.419  10.071 -0.2927 -0.0598  0.7268
  166SOPE   H6R18669   1.901   6.527  10.088  1.2633  0.0997  1.4009
  166SOPE   H6S18670   2.024   6.417  10.038 -0.8045  2.6983 -1.4470
  166SOPE   C2718671   1.838   6.350   9.958  0.2959 -0.2290  0.2067
  166SOPE   H7R18672   1.858   6.241   9.957 -1.3348 -0.5712  1.4072
  166SOPE   H7S18673   1.732   6.344   9.988  0.5794  0.7752  1.4861
  166SOPE   C2818674   1.830   6.425   9.827 -0.1886 -0.2795  0.6262
  166SOPE   H8R18675   1.736   6.394   9.776  1.0324 -0.9997 -1.2598
  166SOPE   H8S18676   1.820   6.535   9.836  0.6259 -0.2701  1.5547
  166SOPE   C2918677   1.959   6.413   9.737  0.3841 -0.3734  0.2380
  166SOPE   H9118678   2.036   6.489   9.755 -0.8803  1.0173  0.0388
  166SOPE  C21018679   1.969   6.338   9.624 -0.5561  0.4681  0.6863
  166SOPE  H10118680   2.057   6.348   9.559 -0.4212  1.4794  1.0076
  166SOPE  C21118681   1.873   6.243   9.569  0.7275  0.6124  0.3179
  166SOPE  H11R18682   1.833   6.191   9.659  1.7316 -1.2720 -0.2770
  166SOPE  H11S18683   1.917   6.153   9.521  0.9456 -0.9392  3.1974
  166SOPE  C21218684   1.761   6.315   9.489 -0.2698  0.5028 -0.2535
  166SOPE  H12R18685   1.715   6.394   9.551  0.1138  1.1594 -0.7918
  166SOPE  H12S18686   1.674   6.249   9.465  0.7376 -1.1582  0.5006
  166SOPE  C21318687   1.807   6.365   9.345  0.5194  0.0782 -0.1009
  166SOPE  H13R18688   1.855   6.281   9.291 -0.8939 -1.6853  1.2599
  166SOPE  H13S18689   1.897   6.429   9.361 -0.8322  2.2279 -0.5680
  166SOPE  C21418690   1.704   6.436   9.259  0.0840 -0.3834 -0.3243
  166SOPE  H14R18691   1.685   6.542   9.287 -0.4666 -0.9122  1.4081
  166SOPE  H14S18692   1.608   6.381   9.274 -1.5505  1.5656 -2.7558
  166SOPE  C21518693   1.736   6.429   9.107 -0.5193 -0.1048 -0.2860
  166SOPE  H15R18694   1.739   6.320   9.089  2.6257 -0.2584  0.5331
  166SOPE  H15S18695   1.837   6.465   9.078  0.3084 -0.9804  1.3952
  166SOPE  C21618696   1.630   6.506   9.025 -0.0243 -0.7664  0.0548
  166SOPE  H16R18697   1.605   6.604   9.070  0.8900 -0.4633 -0.0724
  166SOPE  H16S18698   1.543   6.437   9.030 -0.8138  0.3087  2.5842
  166SOPE  C21718699   1.655   6.528   8.875  0.0005 -0.0889  0.4625
  166SOPE  H17R18700   1.677   6.424   8.843 -1.0930 -0.7087  1.6707
  166SOPE  H17S18701   1.753   6.571   8.842  1.5889 -1.9313  2.4866
  166SOPE  C21818702   1.540   6.591   8.795  0.2681 -0.2582  0.2378
  166SOPE  H18R18703   1.575   6.610   8.691  1.0942  0.4000  0.6307
  166SOPE  H18S18704   1.503   6.683   8.845  1.5628  0.1344  0.5056
  166SOPE  H18T18705   1.456   6.519   8.783 -1.0351  1.4568 -1.5697
  166SOPE   C3318706   2.325   7.168   9.998  0.0669 -0.0783  0.1577
  166SOPE   H3X18707   2.435   7.180   9.990 -0.1409  1.8844 -0.2560
  166SOPE   H3Y18708   2.292   7.254  10.061  2.0038  0.4295  0.5707
  166SOPE   C3418709   2.263   7.173   9.862  0.0252  0.4713 -1.4252
  166SOPE   H4X18710   2.153   7.181   9.878  0.5761  2.4116  2.2040
  166SOPE   H4Y18711   2.288   7.080   9.806  0.0209 -1.1173  1.0703
  166SOPE   C3518712   2.319   7.294   9.777 -0.1670 -0.0966  0.0931
  166SOPE   H5X18713   2.429   7.287   9.790 -0.1216 -0.0383 -0.2463
  166SOPE   H5Y18714   2.286   7.386   9.831  2.6460 -0.2613  2.3341
  166SOPE   C3618715   2.272   7.319   9.629 -0.5806 -0.1090 -0.8055
  166SOPE   H6X18716   2.169   7.360   9.633  0.2261  1.9782 -0.0785
  166SOPE   H6Y18717   2.272   7.222   9.575 -0.2926 -0.1740 -0.6922
  166SOPE   C3718718   2.372   7.416   9.557  0.8751  0.1713  0.3311
  166SOPE   H7X18719   2.472   7.369   9.570  0.6280 -0.5272 -0.2301
  166SOPE   H7Y18720   2.382   7.512   9.612  0.7495  1.0466 -1.1122
  166SOPE   C3818721   2.344   7.429   9.403  0.2753  0.5103  0.6548
  166SOPE   H8X18722   2.341   7.330   9.353  1.6508  1.6745 -1.8868
  166SOPE   H8Y18723   2.419   7.490   9.349  0.1570  0.7466  0.7528
  166SOPE   C3918724   2.199   7.489   9.368 -0.3331 -0.6467  0.3203
  166SOPE   H9X18725   2.188   7.580   9.431  0.5045 -0.3679  0.0824
  166SOPE   H9Y18726   2.126   7.410   9.396 -1.3690  0.6636  1.4392
  166SOPE  C31018727   2.189   7.539   9.224  0.4247  0.0449  0.0952
  166SOPE  H10X18728   2.210   7.448   9.163  0.9963 -0.7030  1.3592
  166SOPE  H10Y18729   2.278   7.602   9.206  1.4398 -1.9915 -2.6891
  166SOPE  C31118730   2.049   7.602   9.194  0.0137  0.1422 -0.3712
  166SOPE  H11X18731   2.047   7.691   9.260 -0.8944  1.2784 -1.8840
  166SOPE  H11Y18732   1.972   7.525   9.217 -0.2709 -0.8979 -4.1097
  166SOPE  C31218733   2.028   7.642   9.052 -0.3206 -0.0141  0.3395
  166SOPE  H12X18734   2.132   7.658   9.016  0.8622 -1.8557  2.6349
  166SOPE  H12Y18735   1.952   7.718   9.025  1.2911  1.6914  0.4320
  166SOPE  C31318736   1.974   7.522   8.966  0.7194  1.6143 -0.1372
  166SOPE  H13X18737   1.892   7.487   9.032 -0.9476  2.5073 -1.6310
  166SOPE  H13Y18738   2.052   7.443   8.963 -0.3736  0.5346 -1.4746
  166SOPE  C31418739   1.940   7.550   8.825  0.5180  0.0743  0.1807
  166SOPE  H14X18740   2.030   7.587   8.772  0.8655  2.2247  2.1048
  166SOPE  H14Y18741   1.861   7.628   8.818  0.0875 -0.0644  2.5337
  166SOPE  C31518742   1.883   7.416   8.763 -0.1123 -0.0131 -0.6310
  166SOPE  H15X18743   1.797   7.385   8.826 -0.2513 -1.3542 -1.4496
  166SOPE  H15Y18744   1.957   7.333   8.769 -0.3566 -0.2959 -1.4470
  166SOPE  C31618745   1.848   7.438   8.622  0.4281 -1.0957  0.2705
  166SOPE  H16X18746   1.943   7.442   8.565 -0.1675 -0.7338 -0.7336
  166SOPE  H16Y18747   1.792   7.530   8.593  1.0199 -0.6999  0.3625
  166SOPE  C31718748   1.771   7.323   8.567 -0.3242  0.0436 -0.5204
  166SOPE  H17X18749   1.671   7.320   8.615  0.8139  3.0593  2.3960
  166SOPE  H17Y18750   1.815   7.234   8.617  0.3404  0.7814  0.2438
  166SOPE  C31818751   1.766   7.321   8.416  0.3449  0.1239  0.3314
  166SOPE  H18X18752   1.663   7.318   8.375  1.0980  0.2067 -1.6669
  166SOPE  H18Y18753   1.812   7.227   8.379 -1.5792 -0.5158 -0.5721
  166SOPE  H18Z18754   1.829   7.399   8.367  1.4877 -0.3912  0.9295
  167SOPE     N18755   5.273   2.548   6.246  0.3430  0.1219 -0.7619
  167SOPE   HN118756   5.208   2.570   6.325  3.2954 -0.6507  2.0998
  167SOPE   HN218757   5.370   2.543   6.284  0.3565  0.7887 -0.6942
  167SOPE   HN318758   5.272   2.622   6.173 -1.8683  0.6839 -0.2255
  167SOPE   C1218759   5.256   2.407   6.199 -0.1834 -0.2461  0.3787
  167SOPE  H12A18760   5.350   2.391   6.142 -0.4673  0.1887 -0.2272
  167SOPE  H12B18761   5.159   2.399   6.146 -0.2327 -1.5474  0.6362
  167SOPE   C1118762   5.237   2.315   6.318 -0.3077 -0.1692 -0.9702
  167SOPE  H11A18763   5.218   2.208   6.295 -1.8766  0.2588 -1.8040
  167SOPE  H11B18764   5.156   2.353   6.384  0.1539  1.7172 -1.4254
  167SOPE     P18765   5.443   2.211   6.474  0.2971 -0.2230  0.0685
  167SOPE   O1318766   5.574   2.195   6.409 -0.2115 -0.9921  0.0136
  167SOPE   O1418767   5.362   2.087   6.473 -0.3827 -1.3115  0.6677
  167SOPE   O1218768   5.358   2.327   6.400 -0.4635 -0.0784 -0.2034
  167SOPE   O1118769   5.461   2.263   6.618 -0.0273  0.5842 -0.4121
  167SOPE    C118770   5.363   2.347   6.686  0.4357 -0.2457 -0.1535
  167SOPE    HA18771   5.342   2.444   6.637  1.3466  0.8707  1.6070
  167SOPE    HB18772   5.402   2.373   6.786 -0.1139  1.0778 -0.2703
  167SOPE    C218773   5.226   2.275   6.712  0.5073 -0.0861  0.6087
  167SOPE    HS18774   5.190   2.262   6.608  0.0489  0.0051  0.7558
  167SOPE   O2118775   5.144   2.349   6.803 -0.3347  0.2868 -0.7247
  167SOPE   C2118776   5.020   2.306   6.804 -0.8578  0.0870 -0.4885
  167SOPE   O2218777   4.975   2.211   6.746  0.1374  0.5769  0.5144
  167SOPE   C2218778   4.936   2.383   6.905 -0.2493 -0.2022  0.1973
  167SOPE   H2R18779   4.836   2.338   6.917 -0.4004  0.1734  0.3509
  167SOPE   H2S18780   4.930   2.491   6.879  0.6057 -0.5427 -1.6322
  167SOPE    C318781   5.251   2.126   6.774  0.0008 -0.6997 -0.1065
  167SOPE    HX18782   5.320   2.072   6.706  1.6311 -1.0495  1.7188
  167SOPE    HY18783   5.154   2.074   6.774 -2.0937  2.5063  4.3052
  167SOPE   O3118784   5.311   2.124   6.909 -0.3704  0.1909 -0.5199
  167SOPE   C3118785   5.237   2.085   7.006  0.4818  1.0817 -0.5249
  167SOPE   O3218786   5.123   2.046   6.997  0.1600  0.1396  0.3174
  167SOPE   C3218787   5.313   2.095   7.139  0.4421 -0.3945 -0.5145
  167SOPE   H2X18788   5.319   2.205   7.153 -1.5079 -0.4974  2.0877
  167SOPE   H2Y18789   5.408   2.043   7.115 -0.4899 -2.0447 -0.7704
  167SOPE   C2318790   5.007   2.384   7.040  0.7734 -0.1779 -0.7126
  167SOPE   H3R18791   5.106   2.434   7.040  1.5473 -1.6378 -1.7806
  167SOPE   H3S18792   5.036   2.283   7.079 -1.9659 -1.0922 -0.7741
  167SOPE   C2418793   4.913   2.442   7.153 -0.1368 -0.5335 -0.0272
  167SOPE   H4R18794   4.914   2.550   7.126  0.7668 -0.9840 -2.0455
  167SOPE   H4S18795   4.803   2.433   7.137 -0.1552  0.2427 -0.4043
  167SOPE   C2518796   4.964   2.403   7.288 -0.4268 -0.1364  0.1218
  167SOPE   H5R18797   4.951   2.293   7.299 -1.6048 -0.4006 -2.8996
  167SOPE   H5S18798   5.074   2.417   7.296 -0.3329 -1.6167  2.2504
  167SOPE   C2618799   4.898   2.474   7.408 -0.2405 -0.0840  0.2358
  167SOPE   H6R18800   4.926   2.582   7.408  1.3108 -0.4576 -0.8909
  167SOPE   H6S18801   4.787   2.465   7.402 -0.3460  1.2507 -0.1978
  167SOPE   C2718802   4.942   2.405   7.540 -0.3412 -1.0521 -0.7580
  167SOPE   H7R18803   4.923   2.297   7.519  0.7698 -1.1671 -1.2714
  167SOPE   H7S18804   5.051   2.409   7.560 -0.8269  0.1901  2.1277
  167SOPE   C2818805   4.881   2.470   7.661  0.2909 -0.4962 -0.9418
  167SOPE   H8R18806   4.950   2.557   7.670  1.9452 -1.7623 -0.8624
  167SOPE   H8S18807   4.784   2.513   7.628  1.1090  0.5648 -2.0436
  167SOPE   C2918808   4.887   2.372   7.780 -0.2310 -0.6929 -0.6645
  167SOPE   H9118809   4.871   2.265   7.758 -0.5129 -1.1127  1.4361
  167SOPE  C21018810   4.923   2.412   7.903 -0.3644 -1.0150 -1.0788
  167SOPE  H10118811   4.927   2.344   7.989 -1.2449  0.2688  0.0165
  167SOPE  C21118812   4.956   2.556   7.945  0.3407 -0.2747  0.5025
  167SOPE  H11R18813   4.906   2.636   7.886 -0.5547  0.1138  1.7551
  167SOPE  H11S18814   5.066   2.573   7.934  0.2694 -0.2476 -0.2435
  167SOPE  C21218815   4.915   2.590   8.086 -0.3077 -0.9300  0.1260
  167SOPE  H12R18816   4.815   2.546   8.105 -2.0069  2.0407 -1.2206
  167SOPE  H12S18817   4.909   2.700   8.099  1.2047 -0.9904  1.7852
  167SOPE  C21318818   5.016   2.549   8.194 -0.1940 -0.4497  0.1046
  167SOPE  H13R18819   5.114   2.598   8.177  0.1671 -1.2907 -0.2495
  167SOPE  H13S18820   5.025   2.439   8.191 -0.0020 -0.4845  1.4514
  167SOPE  C21418821   4.963   2.588   8.332  0.4798  0.2011  0.1126
  167SOPE  H14R18822   4.934   2.695   8.331  1.8016  0.5772 -0.1179
  167SOPE  H14S18823   5.043   2.580   8.409 -0.6816 -2.5089  1.1691
  167SOPE  C21518824   4.842   2.517   8.392  0.1580  0.6307  1.2743
  167SOPE  H15R18825   4.749   2.530   8.334 -0.1054  0.2013  1.5997
  167SOPE  H15S18826   4.816   2.558   8.492 -2.4675  2.0038  0.1094
  167SOPE  C21618827   4.859   2.367   8.389  0.6199 -0.0664 -0.1301
  167SOPE  H16R18828   4.962   2.338   8.418  0.6544  1.2013  1.1357
  167SOPE  H16S18829   4.849   2.334   8.283 -0.7880  0.0865 -0.0610
  167SOPE  C21718830   4.753   2.292   8.482 -0.1619  0.3372  0.5360
  167SOPE  H17R18831   4.753   2.324   8.588  5.3019 -1.1349  1.2979
  167SOPE  H17S18832   4.797   2.191   8.495 -2.1872 -0.3319  3.0408
  167SOPE  C21818833   4.613   2.267   8.430  0.5168 -0.7606  0.2263
  167SOPE  H18R18834   4.557   2.185   8.481  1.3794 -2.6822 -1.7739
  167SOPE  H18S18835   4.619   2.232   8.325 -0.6392 -1.0376  0.2314
  167SOPE  H18T18836   4.548   2.357   8.435  1.5756  0.0747 -0.6532
  167SOPE   C3318837   5.234   2.034   7.261 -0.0461  0.1896  0.5555
  167SOPE   H3X18838   5.238   1.924   7.243  3.8565 -0.2593  2.8527
  167SOPE   H3Y18839   5.135   2.082   7.266  0.4201  1.1029  1.3318
  167SOPE   C3418840   5.301   2.066   7.389  0.0150 -0.9728 -0.1191
  167SOPE   H4X18841   5.328   2.174   7.388  0.5072 -1.0727  0.8563
  167SOPE   H4Y18842   5.393   2.004   7.397 -0.7549 -2.4279 -1.8577
  167SOPE   C3518843   5.203   2.044   7.508 -0.1336 -0.3747 -0.0832
  167SOPE   H5X18844   5.176   1.938   7.530 -2.1332  0.1185 -0.0298
  167SOPE   H5Y18845   5.113   2.102   7.479  0.4287 -0.3370 -1.8646
  167SOPE   C3618846   5.233   2.115   7.644 -0.5785 -0.5279  0.2981
  167SOPE   H6X18847   5.172   2.061   7.719 -0.2428 -0.5495  0.5573
  167SOPE   H6Y18848   5.202   2.221   7.632 -1.5847 -0.4387  2.9904
  167SOPE   C3718849   5.384   2.089   7.692 -0.1849 -0.2861 -0.5353
  167SOPE   H7X18850   5.451   2.150   7.627  1.3562 -0.3461  0.9346
  167SOPE   H7Y18851   5.397   1.979   7.686  0.0256 -0.3511  0.9373
  167SOPE   C3818852   5.407   2.139   7.843  0.4944  0.0982 -0.3096
  167SOPE   H8X18853   5.352   2.233   7.866 -0.1266 -0.5946  1.1959
  167SOPE   H8Y18854   5.512   2.165   7.868  0.3874  0.6070 -0.3644
  167SOPE   C3918855   5.369   2.027   7.944 -0.3103  0.8465  0.3101
  167SOPE   H9X18856   5.448   1.949   7.939  1.4284  2.6148 -1.7170
  167SOPE   H9Y18857   5.272   1.978   7.923  1.6818 -3.2644 -0.1693
  167SOPE  C31018858   5.375   2.079   8.089 -0.2006 -0.3800  0.0059
  167SOPE  H10X18859   5.464   2.143   8.108 -1.2330  1.1810 -0.2404
  167SOPE  H10Y18860   5.380   1.992   8.159  0.8014 -2.6834 -2.7238
  167SOPE  C31118861   5.242   2.150   8.109  0.4920  0.1671  0.0775
  167SOPE  H11X18862   5.158   2.090   8.067  0.5829  1.0135 -1.3960
  167SOPE  H11Y18863   5.255   2.249   8.061  1.4513  0.6826  1.3452
  167SOPE  C31218864   5.210   2.181   8.260 -0.1005 -0.2547 -0.6599
  167SOPE  H12X18865   5.119   2.244   8.265  0.5987  0.7069  1.4887
  167SOPE  H12Y18866   5.298   2.224   8.314 -0.3747 -0.4978 -0.0068
  167SOPE  C31318867   5.176   2.055   8.345 -0.0093 -0.0487  0.6063
  167SOPE  H13X18868   5.255   1.978   8.331 -0.6647 -0.6213 -0.0277
  167SOPE  H13Y18869   5.085   2.004   8.309  2.8616 -4.1572 -1.6729
  167SOPE  C31418870   5.174   2.086   8.491 -0.6306 -0.2426  0.1585
  167SOPE  H14X18871   5.075   2.123   8.527  0.4185  2.6928  0.3507
  167SOPE  H14Y18872   5.253   2.154   8.529  0.3919 -1.1856 -0.2458
  167SOPE  C31518873   5.193   1.964   8.583  0.7531 -0.5608  0.0450
  167SOPE  H15X18874   5.117   1.890   8.552 -0.3085 -0.0945  1.4597
  167SOPE  H15Y18875   5.149   1.989   8.681  0.9589 -0.1039  0.0275
  167SOPE  C31618876   5.336   1.915   8.593 -0.9395  0.0837 -0.4766
  167SOPE  H16X18877   5.396   2.005   8.616  3.2430 -2.3540 -0.8137
  167SOPE  H16Y18878   5.367   1.875   8.494 -1.2815  1.9839 -1.4015
  167SOPE  C31718879   5.346   1.808   8.707 -0.3450 -0.5806 -0.4719
  167SOPE  H17X18880   5.273   1.724   8.699 -0.6386 -0.2685 -1.1086
  167SOPE  H17Y18881   5.323   1.864   8.801  1.2264  0.0700 -0.4583
  167SOPE  C31818882   5.487   1.748   8.715  0.5123  0.1440 -0.3470
  167SOPE  H18X18883   5.505   1.675   8.633 -0.3063  1.2203 -1.5238
  167SOPE  H18Y18884   5.495   1.699   8.815  0.1494  0.0851 -0.3446
  167SOPE  H18Z18885   5.567   1.825   8.704  0.2168  0.3870 -0.8214
  168SOPE     N18886   0.865   2.892   5.784 -0.7263  0.1660 -0.1748
  168SOPE   HN118887   0.869   2.792   5.812  0.2332  0.5711  1.2548
  168SOPE   HN218888   0.854   2.891   5.681  0.1012  0.8055 -0.2800
  168SOPE   HN318889   0.961   2.922   5.809  0.3871 -2.5205 -0.8196
  168SOPE   C1218890   0.757   2.970   5.855 -0.2372  0.6121 -0.1092
  168SOPE  H12A18891   0.674   2.904   5.885 -1.2220  1.7762 -0.1923
  168SOPE  H12B18892   0.715   3.050   5.790 -0.1191 -0.1156 -1.0972
  168SOPE   C1118893   0.824   3.036   5.979  0.3888  0.3768 -0.6322
  168SOPE  H11A18894   0.746   3.078   6.045  1.4512 -0.0525  0.9600
  168SOPE  H11B18895   0.889   3.121   5.947  1.2400  0.3721  0.9748
  168SOPE     P18896   1.002   2.969   6.172  0.1751 -0.1895  0.2923
  168SOPE   O1318897   1.095   3.080   6.135  0.1451 -0.3814 -0.2150
  168SOPE   O1418898   1.060   2.836   6.199 -0.3443  0.1686  0.5174
  168SOPE   O1218899   0.905   2.944   6.045  0.6525  0.5013 -0.2885
  168SOPE   O1118900   0.904   3.014   6.287  1.0835 -0.6992  0.3217
  168SOPE    C118901   0.777   2.945   6.311  0.6315 -0.0305  0.1060
  168SOPE    HA18902   0.788   2.836   6.297  0.8277 -0.0656  0.5176
  168SOPE    HB18903   0.714   2.982   6.227 -0.2833 -0.4633  0.5925
  168SOPE    C218904   0.708   2.974   6.445  0.6607 -0.1449 -0.5887
  168SOPE    HS18905   0.701   3.084   6.462 -0.7535 -0.5715  1.9730
  168SOPE   O2118906   0.776   2.898   6.546  0.2388  0.4147 -0.2507
  168SOPE   C2118907   0.769   2.955   6.670  0.4791 -0.2818 -0.1496
  168SOPE   O2218908   0.715   3.061   6.695 -0.5036  0.3322  0.2660
  168SOPE   C2218909   0.821   2.856   6.769 -0.1272  0.3701 -0.1146
  168SOPE   H2R18910   0.932   2.863   6.778 -0.3047  1.2898  1.7970
  168SOPE   H2S18911   0.807   2.752   6.734  1.2210 -0.1174  0.6919
  168SOPE    C318912   0.559   2.939   6.445  0.0886  0.0271  0.6396
  168SOPE    HX18913   0.558   2.829   6.433  2.8581 -0.0003  0.1915
  168SOPE    HY18914   0.512   2.973   6.350 -0.4656 -0.5459  0.6962
  168SOPE   O3118915   0.492   2.973   6.567  0.1047 -0.4810 -0.2003
  168SOPE   C3118916   0.459   3.098   6.588 -0.1809 -0.8694  0.2617
  168SOPE   O3218917   0.487   3.189   6.511  0.3648  0.3548 -0.3246
  168SOPE   C3218918   0.383   3.115   6.719  0.3028 -0.2098  0.5558
  168SOPE   H2X18919   0.446   3.073   6.800  1.5806 -0.9261 -0.7657
  168SOPE   H2Y18920   0.292   3.051   6.723 -0.7960  1.2088 -0.6055
  168SOPE   C2318921   0.765   2.864   6.914 -0.3795 -0.3866  0.0141
  168SOPE   H3R18922   0.657   2.891   6.911 -0.0830  0.9472  0.7665
  168SOPE   H3S18923   0.799   2.963   6.952  0.1936 -0.0394 -1.3582
  168SOPE   C2418924   0.786   2.751   7.011 -0.2903 -0.5911 -0.7447
  168SOPE   H4R18925   0.753   2.654   6.968  0.7195 -2.1608  1.8063
  168SOPE   H4S18926   0.893   2.753   7.037 -0.4860  1.4024  0.1501
  168SOPE   C2518927   0.709   2.768   7.140  0.2355 -0.0922  0.2026
  168SOPE   H5R18928   0.610   2.805   7.105  1.2297  0.0721 -2.7397
  168SOPE   H5S18929   0.701   2.670   7.191 -1.0979  0.3085  0.8014
  168SOPE   C2618930   0.781   2.854   7.243 -0.0072  0.1628 -0.9497
  168SOPE   H6R18931   0.876   2.799   7.258 -0.4224  0.1897  2.3888
  168SOPE   H6S18932   0.807   2.955   7.206  2.0975 -0.6990 -2.0076
  168SOPE   C2718933   0.695   2.877   7.367 -0.7699  0.0819 -0.3318
  168SOPE   H7R18934   0.619   2.954   7.339 -1.2543 -0.9822 -2.1307
  168SOPE   H7S18935   0.644   2.788   7.408 -0.6854  0.5948  0.9218
  168SOPE   C2818936   0.780   2.950   7.477  0.4081  1.1189 -0.0380
  168SOPE   H8R18937   0.874   2.903   7.513  0.7593  0.4419 -1.7448
  168SOPE   H8S18938   0.817   3.035   7.416 -1.5195  1.1633 -1.2131
  168SOPE   C2918939   0.696   2.987   7.597  0.4862 -0.0662 -0.5609
  168SOPE   H9118940   0.639   3.078   7.577  0.7256 -0.1293 -1.6036
  168SOPE  C21018941   0.682   2.922   7.710  0.7337 -0.1125 -0.1254
  168SOPE  H10118942   0.615   2.962   7.787 -1.5452 -0.8013 -1.6455
  168SOPE  C21118943   0.757   2.799   7.763  0.4614  0.6452  0.5302
  168SOPE  H11R18944   0.854   2.794   7.709 -1.0367  1.3074 -2.4245
  168SOPE  H11S18945   0.702   2.708   7.731 -0.0324  0.5110  1.7082
  168SOPE  C21218946   0.765   2.785   7.914 -0.4261  0.6730  0.2988
  168SOPE  H12R18947   0.825   2.694   7.938 -1.5479 -0.6305 -1.5353
  168SOPE  H12S18948   0.669   2.757   7.963  0.5761  0.8056  2.4833
  168SOPE  C21318949   0.826   2.910   7.984  0.3088 -0.3919  0.3157
  168SOPE  H13R18950   0.742   2.982   7.985  0.4675 -0.2092  0.4669
  168SOPE  H13S18951   0.894   2.968   7.918 -0.5104 -0.4268 -0.5687
  168SOPE  C21418952   0.883   2.884   8.126 -0.1511 -0.1826 -0.6179
  168SOPE  H14R18953   0.872   2.981   8.180  0.1122  0.2696 -1.3542
  168SOPE  H14S18954   0.991   2.863   8.110  0.1415  1.1698 -0.6085
  168SOPE  C21518955   0.824   2.769   8.201 -0.3073 -0.6089 -0.0808
  168SOPE  H15R18956   0.848   2.671   8.155  2.6071 -0.4092  0.8147
  168SOPE  H15S18957   0.715   2.785   8.190 -0.4819 -0.4892  1.6619
  168SOPE  C21618958   0.867   2.772   8.351 -0.8854  0.7285  0.4845
  168SOPE  H16R18959   0.855   2.873   8.396 -0.3354  0.0783  2.1718
  168SOPE  H16S18960   0.976   2.751   8.341 -0.9281  1.6957 -4.1369
  168SOPE  C21718961   0.798   2.649   8.414 -0.0072  0.3154  0.2527
  168SOPE  H17R18962   0.819   2.566   8.344  0.0794  0.5605 -0.0128
  168SOPE  H17S18963   0.687   2.643   8.419 -0.0302 -1.5673 -1.5612
  168SOPE  C21818964   0.842   2.592   8.551 -0.5033  0.0747 -0.1766
  168SOPE  H18R18965   0.803   2.487   8.555  0.2660 -0.2041  0.1172
  168SOPE  H18S18966   0.809   2.661   8.631  1.3709  0.1327  0.5970
  168SOPE  H18T18967   0.952   2.577   8.556 -0.4621  0.2611 -0.4758
  168SOPE   C3318968   0.338   3.268   6.751  0.0662  0.4330 -0.0947
  168SOPE   H3X18969   0.275   3.310   6.669 -1.3106 -2.1763 -0.4834
  168SOPE   H3Y18970   0.431   3.324   6.775  0.0170  0.3097  0.3839
  168SOPE   C3418971   0.274   3.265   6.891 -1.0276  0.4387  0.0880
  168SOPE   H4X18972   0.196   3.186   6.886  1.5856 -2.2494 -0.9789
  168SOPE   H4Y18973   0.222   3.362   6.910 -0.6040  0.4915  1.0772
  168SOPE   C3518974   0.361   3.250   7.021  0.2288  0.0071 -0.0466
  168SOPE   H5X18975   0.433   3.335   7.024 -0.0476  0.1995  1.4109
  168SOPE   H5Y18976   0.404   3.148   7.024 -1.2364 -0.6112  2.8581
  168SOPE   C3618977   0.272   3.258   7.140  0.4055 -0.1382 -0.2626
  168SOPE   H6X18978   0.204   3.171   7.146  1.0975 -0.6535  0.3606
  168SOPE   H6Y18979   0.205   3.346   7.135 -1.0240 -1.2320 -1.0674
  168SOPE   C3718980   0.350   3.267   7.272  0.0589 -0.0233 -0.1630
  168SOPE   H7X18981   0.410   3.359   7.259  1.3563 -0.9736 -1.1293
  168SOPE   H7Y18982   0.434   3.194   7.275  0.8671  0.9313  1.4471
  168SOPE   C3818983   0.261   3.258   7.395 -0.3815  1.1296 -0.2399
  168SOPE   H8X18984   0.192   3.171   7.399 -0.2791  1.0959  1.6745
  168SOPE   H8Y18985   0.187   3.340   7.390  0.6230  1.9961 -1.4537
  168SOPE   C3918986   0.347   3.258   7.520 -0.2435 -0.7485 -0.9164
  168SOPE   H9X18987   0.388   3.361   7.532 -0.8387 -0.6863  0.9508
  168SOPE   H9Y18988   0.431   3.187   7.504 -0.8501 -1.0482 -3.0572
  168SOPE  C31018989   0.279   3.218   7.644  0.6661 -0.3604  0.6194
  168SOPE  H10X18990   0.242   3.114   7.642 -2.3308  0.6086 -1.1784
  168SOPE  H10Y18991   0.194   3.283   7.674 -1.0120 -1.3070 -1.7849
  168SOPE  C31118992   0.374   3.213   7.770 -0.3623 -0.0372  0.0029
  168SOPE  H11X18993   0.446   3.297   7.774  0.5060 -0.8171  0.9166
  168SOPE  H11Y18994   0.426   3.117   7.749 -1.9175 -0.8517 -0.3347
  168SOPE  C31218995   0.302   3.176   7.909 -0.8190 -0.0298  1.0031
  168SOPE  H12X18996   0.252   3.078   7.889  0.3426 -0.4621  0.1028
  168SOPE  H12Y18997   0.225   3.252   7.936 -1.5720 -0.7221  0.8542
  168SOPE  C31318998   0.399   3.179   8.027 -0.0273  0.7168 -0.4122
  168SOPE  H13X18999   0.427   3.285   8.042  2.4259 -0.0567  0.9491
  168SOPE  H13Y19000   0.489   3.121   7.997  1.0534  1.5769  1.0556
  168SOPE  C31419001   0.357   3.101   8.155 -0.6532 -0.2541 -0.4945
  168SOPE  H14X19002   0.328   2.998   8.126  0.1399 -0.4207 -0.6979
  168SOPE  H14Y19003   0.268   3.146   8.206 -0.4862 -1.7369  1.1944
  168SOPE  C31519004   0.479   3.092   8.251 -0.1814  0.6130  0.4521
  168SOPE  H15X19005   0.500   3.195   8.285 -1.3248  1.0293 -0.0561
  168SOPE  H15Y19006   0.567   3.040   8.206  0.4100  0.5408  1.6395
  168SOPE  C31619007   0.429   3.022   8.375 -0.3719 -0.4342 -0.0026
  168SOPE  H16X19008   0.363   2.937   8.346 -0.7603 -0.5496  1.1587
  168SOPE  H16Y19009   0.381   3.097   8.441  0.8941  0.4608 -0.0647
  168SOPE  C31719010   0.547   2.954   8.458  0.3252  0.0585 -0.1626
  168SOPE  H17X19011   0.615   3.030   8.502  1.3714 -0.8003 -0.2566
  168SOPE  H17Y19012   0.605   2.895   8.384  0.0852  0.1828 -0.4511
  168SOPE  C31819013   0.509   2.855   8.567  0.4157  0.0507 -0.5774
  168SOPE  H18X19014   0.599   2.798   8.597  0.4953  0.8221  0.7170
  168SOPE  H18Y19015   0.424   2.791   8.533 -0.3326  0.8490 -0.2672
  168SOPE  H18Z19016   0.467   2.898   8.661  2.1682  0.6274 -0.0279
  169SOPE     N19017   1.140   3.421   6.377  0.3768 -0.0766  0.7731
  169SOPE   HN119018   1.163   3.332   6.329  4.2785  0.8220  0.6631
  169SOPE   HN219019   1.183   3.495   6.318 -1.9346  0.6745 -0.0656
  169SOPE   HN319020   1.194   3.421   6.466 -0.2788 -1.2435  1.1966
  169SOPE   C1219021   1.000   3.443   6.411  0.8491 -0.6021 -0.0616
  169SOPE  H12A19022   0.964   3.363   6.479  0.0230 -0.1704  0.0190
  169SOPE  H12B19023   0.936   3.440   6.321 -0.3047  3.4355  0.4340
  169SOPE   C1119024   0.974   3.576   6.483 -0.2816  0.4080 -0.5813
  169SOPE  H11A19025   1.053   3.596   6.559 -0.9883 -4.3291  1.8242
  169SOPE  H11B19026   0.878   3.582   6.537  0.8625  3.5074  1.3771
  169SOPE     P19027   0.846   3.780   6.374 -0.1939  0.1805 -0.0204
  169SOPE   O1319028   0.722   3.716   6.420 -0.4573  0.3270 -0.2116
  169SOPE   O1419029   0.844   3.837   6.238  0.5035  0.0884 -0.0413
  169SOPE   O1219030   0.972   3.686   6.393 -0.0209  0.3058 -0.3068
  169SOPE   O1119031   0.901   3.890   6.474  0.4739  0.0128  0.2527
  169SOPE    C119032   0.884   3.881   6.619 -0.2546  0.0494 -0.0063
  169SOPE    HA19033   0.979   3.833   6.652  1.1124  0.6152 -2.8177
  169SOPE    HB19034   0.801   3.809   6.636  0.6590 -1.8582 -2.8706
  169SOPE    C219035   0.863   4.013   6.685  0.4703  0.3781  0.0778
  169SOPE    HS19036   0.951   4.078   6.664  1.6725 -1.0157  0.6018
  169SOPE   O2119037   0.854   3.985   6.828  0.0404  0.5224  0.2013
  169SOPE   C2119038   0.894   4.084   6.904  0.0860  0.1420 -0.2027
  169SOPE   O2219039   0.949   4.192   6.871  0.3335  0.2786  0.0527
  169SOPE   C2219040   0.885   4.026   7.048 -0.1890  0.1086 -0.1431
  169SOPE   H2R19041   0.948   3.934   7.055 -1.7945 -0.9264  2.3158
  169SOPE   H2S19042   0.782   3.985   7.050 -0.7356  1.4693  0.8554
  169SOPE    C319043   0.729   4.083   6.630  0.5652  0.2658 -0.0870
  169SOPE    HX19044   0.661   3.999   6.606  2.3359 -0.7344 -1.8544
  169SOPE    HY19045   0.752   4.143   6.539 -0.1598  1.7869  0.6866
  169SOPE   O3119046   0.676   4.163   6.737  0.2784 -0.5338  0.0247
  169SOPE   C3119047   0.567   4.227   6.705  0.5555  0.4862  0.7260
  169SOPE   O3219048   0.497   4.209   6.605 -0.0098  0.6811 -0.0174
  169SOPE   C3219049   0.536   4.342   6.803 -0.1518 -0.6635 -0.4593
  169SOPE   H2X19050   0.538   4.437   6.747 -1.6506 -0.1099  0.3557
  169SOPE   H2Y19051   0.602   4.345   6.892  1.9097  0.2907 -1.9554
  169SOPE   C2319052   0.891   4.131   7.172 -0.3202  0.0613 -0.2620
  169SOPE   H3R19053   0.837   4.216   7.126 -2.3761 -1.0272  0.0451
  169SOPE   H3S19054   0.991   4.163   7.208 -1.0233  1.2602  0.6989
  169SOPE   C2419055   0.821   4.060   7.293  0.6674  0.2088  0.0615
  169SOPE   H4R19056   0.713   4.057   7.267  0.6925 -0.7072  0.0348
  169SOPE   H4S19057   0.863   3.959   7.313  0.1504 -0.4274 -1.8580
  169SOPE   C2519058   0.828   4.159   7.411  0.2344  0.1896  0.4621
  169SOPE   H5R19059   0.935   4.186   7.415  0.3461 -0.2219  0.3553
  169SOPE   H5S19060   0.760   4.244   7.391 -1.1963 -1.1984 -0.8838
  169SOPE   C2619061   0.793   4.092   7.542  0.0094 -0.4381 -0.9153
  169SOPE   H6R19062   0.755   4.171   7.610  4.0478  1.1101 -0.1259
  169SOPE   H6S19063   0.722   4.009   7.526 -1.2438  0.8688 -2.4439
  169SOPE   C2719064   0.923   4.041   7.613  0.6723  0.3296  0.5313
  169SOPE   H7R19065   0.959   3.952   7.556  1.4042  1.6879 -1.2346
  169SOPE   H7S19066   1.002   4.119   7.605 -2.2422  3.4590  0.3323
  169SOPE   C2819067   0.916   4.003   7.768  0.8598  0.9555  0.0844
  169SOPE   H8R19068   0.824   3.943   7.788  1.4396  0.2776  0.8106
  169SOPE   H8S19069   1.002   3.937   7.790 -0.3831 -2.0477 -3.0063
  169SOPE   C2919070   0.915   4.123   7.861  0.5813  0.2023  0.1745
  169SOPE   H9119071   1.007   4.180   7.840  1.6871 -1.8909 -1.1004
  169SOPE  C21019072   0.829   4.160   7.954 -0.4236 -0.3521 -0.6886
  169SOPE  H10119073   0.822   4.262   7.994 -1.3107  0.6882 -3.3045
  169SOPE  C21119074   0.703   4.075   7.988 -0.4724 -0.8567 -1.1942
  169SOPE  H11R19075   0.696   4.080   8.099 -0.7984  1.9933 -1.2675
  169SOPE  H11S19076   0.722   3.966   7.982 -2.2788 -1.4367  1.7926
  169SOPE  C21219077   0.571   4.110   7.921 -1.2253  0.0155 -0.5068
  169SOPE  H12R19078   0.586   4.114   7.811  1.6490  0.9948 -0.1603
  169SOPE  H12S19079   0.546   4.210   7.961  1.7064 -0.1228  2.0860
  169SOPE  C21319080   0.464   4.014   7.977  0.1816  0.0396  0.3506
  169SOPE  H13R19081   0.498   3.912   7.947 -0.8354 -0.1093 -0.3411
  169SOPE  H13S19082   0.365   4.025   7.930  0.2113  0.1557  0.3170
  169SOPE  C21419083   0.438   4.037   8.126  0.2886 -0.5644  0.6026
  169SOPE  H14R19084   0.463   4.139   8.160  0.8442 -1.1063  1.8559
  169SOPE  H14S19085   0.498   3.963   8.184 -2.0243 -0.5922  3.1601
  169SOPE  C21519086   0.293   4.000   8.161 -0.0278  0.2989 -0.7878
  169SOPE  H15R19087   0.259   3.919   8.094 -1.0358  0.0225  0.0278
  169SOPE  H15S19088   0.232   4.089   8.133  0.7431  1.7244  1.7195
  169SOPE  C21619089   0.281   3.976   8.318 -0.3074 -0.0670  0.3004
  169SOPE  H16R19090   0.279   4.077   8.365 -0.0221  0.3157 -0.4864
  169SOPE  H16S19091   0.367   3.916   8.355  0.1294  1.7995  2.6228
  169SOPE  C21719092   0.138   3.922   8.355  0.8772 -0.7709  0.0374
  169SOPE  H17R19093   0.133   3.837   8.283  1.0125 -0.8003  0.0638
  169SOPE  H17S19094   0.071   4.007   8.330  0.1404 -0.9014  1.5140
  169SOPE  C21819095   0.137   3.877   8.500 -0.0450 -0.1829  0.0189
  169SOPE  H18R19096   0.207   3.791   8.508 -1.5061 -1.3981  0.1313
  169SOPE  H18S19097   0.035   3.851   8.535  0.3346 -1.7458  0.0456
  169SOPE  H18T19098   0.177   3.954   8.568  2.1226 -0.3375 -0.9975
  169SOPE   C3319099   0.386   4.325   6.857  0.3892  0.2629 -0.6006
  169SOPE   H3X19100   0.365   4.219   6.883  1.9697 -0.1581 -0.9439
  169SOPE   H3Y19101   0.326   4.356   6.768  0.6006  0.7632 -0.5717
  169SOPE   C3419102   0.359   4.420   6.971  0.0666 -0.4209 -0.0236
  169SOPE   H4X19103   0.249   4.426   6.989  0.3352 -1.1235  2.2343
  169SOPE   H4Y19104   0.391   4.520   6.934 -0.0697 -0.9203 -1.5559
  169SOPE   C3519105   0.422   4.396   7.112  0.0803  0.6325  0.3740
  169SOPE   H5X19106   0.377   4.470   7.180 -2.1518 -0.3635  0.0778
  169SOPE   H5Y19107   0.532   4.409   7.105  0.4037 -1.4628  0.7927
  169SOPE   C3619108   0.394   4.257   7.163 -0.4038 -0.2472 -0.5628
  169SOPE   H6X19109   0.427   4.172   7.100 -0.5231 -0.7120 -0.0039
  169SOPE   H6Y19110   0.286   4.238   7.175  0.1461 -1.7098  3.5306
  169SOPE   C3719111   0.460   4.240   7.306  0.3342 -0.3778 -0.4603
  169SOPE   H7X19112   0.570   4.256   7.303  0.2403  1.6158  2.5825
  169SOPE   H7Y19113   0.443   4.132   7.329  0.1788 -0.3501 -0.4478
  169SOPE   C3819114   0.400   4.333   7.408  0.6263  0.4866  0.0620
  169SOPE   H8X19115   0.431   4.437   7.384  0.3090  0.7836  0.9133
  169SOPE   H8Y19116   0.290   4.324   7.393  0.8423  0.0224 -1.4157
  169SOPE   C3919117   0.433   4.305   7.553  0.0879 -0.0983  0.5642
  169SOPE   H9X19118   0.543   4.322   7.552  0.2626 -0.9632 -1.8121
  169SOPE   H9Y19119   0.408   4.206   7.597 -0.8198  0.5457  1.5452
  169SOPE  C31019120   0.364   4.400   7.645 -0.1662 -0.1201 -0.5283
  169SOPE  H10X19121   0.254   4.400   7.630 -0.7922  0.4567  3.1226
  169SOPE  H10Y19122   0.391   4.507   7.629 -1.2193  0.3890  0.8600
  169SOPE  C31119123   0.386   4.372   7.795 -0.0366  0.1724  0.6269
  169SOPE  H11X19124   0.495   4.360   7.812 -0.4822 -0.9588  3.0297
  169SOPE  H11Y19125   0.334   4.279   7.827  0.0932  0.3695  1.4170
  169SOPE  C31219126   0.344   4.486   7.884  0.2433  0.3195  0.5733
  169SOPE  H12X19127   0.236   4.505   7.868  0.6523 -0.0299 -3.6048
  169SOPE  H12Y19128   0.385   4.581   7.843 -1.6619 -0.3201 -3.1927
  169SOPE  C31319129   0.379   4.457   8.025 -0.3777  0.0859  0.1667
  169SOPE  H13X19130   0.337   4.362   8.064  1.2366 -1.6783 -2.1196
  169SOPE  H13Y19131   0.316   4.527   8.085  0.5986  0.4442  0.8084
  169SOPE  C31419132   0.525   4.480   8.075  0.1011 -0.1625  0.1599
  169SOPE  H14X19133   0.552   4.579   8.031 -1.0796  0.7053  1.3301
  169SOPE  H14Y19134   0.595   4.398   8.048 -1.5103 -2.1324  1.7476
  169SOPE  C31519135   0.537   4.503   8.227 -0.8074  0.2024 -0.3641
  169SOPE  H15X19136   0.453   4.561   8.271 -1.8966 -1.1009 -0.6394
  169SOPE  H15Y19137   0.631   4.561   8.238 -1.2845  0.7487  1.1164
  169SOPE  C31619138   0.542   4.372   8.312 -0.1979  0.9366  0.1216
  169SOPE  H16X19139   0.622   4.311   8.264 -0.1147  1.8723 -0.9999
  169SOPE  H16Y19140   0.447   4.317   8.295  1.5086 -1.6563 -1.8120
  169SOPE  C31719141   0.566   4.390   8.461 -0.1263  0.0777 -0.2384
  169SOPE  H17X19142   0.510   4.478   8.499 -0.1754 -0.7554  1.7938
  169SOPE  H17Y19143   0.671   4.416   8.487  0.0995 -1.1732  0.1707
  169SOPE  C31819144   0.522   4.272   8.535  0.2815  0.3969  0.4585
  169SOPE  H18X19145   0.503   4.300   8.641  0.0932  1.6762  0.1027
  169SOPE  H18Y19146   0.601   4.194   8.524  3.7101  3.2669  2.5136
  169SOPE  H18Z19147   0.428   4.235   8.488  0.0897  0.4627  0.7843
  170SOPE     N19148   0.999   1.307   6.253  0.0036  0.6535  0.5992
  170SOPE   HN119149   1.072   1.258   6.309  1.2511  1.5085 -0.2552
  170SOPE   HN219150   1.015   1.409   6.264 -0.0792  0.7808 -0.3810
  170SOPE   HN319151   0.905   1.294   6.296 -0.5147  0.6422 -0.4989
  170SOPE   C1219152   0.992   1.260   6.110  0.1396 -0.2517  0.5089
  170SOPE  H12A19153   1.091   1.289   6.069  0.4799 -0.3410  1.2505
  170SOPE  H12B19154   0.904   1.305   6.058 -1.2033 -1.6972  1.4484
  170SOPE   C1119155   0.986   1.104   6.114  0.7933 -0.1258  0.4660
  170SOPE  H11A19156   0.976   1.084   6.005 -3.7088 -0.5321  0.7488
  170SOPE  H11B19157   0.890   1.061   6.150 -1.3223  1.5102 -2.6707
  170SOPE     P19158   1.123   0.992   6.311  0.3151 -0.2373  0.1754
  170SOPE   O1319159   1.119   1.106   6.398 -0.2361 -0.0198  0.4577
  170SOPE   O1419160   1.245   0.909   6.307 -0.2958  0.4822  0.2801
  170SOPE   O1219161   1.106   1.043   6.166  0.5800  1.0243  0.1869
  170SOPE   O1119162   0.993   0.904   6.328 -0.3957 -0.0795  0.0755
  170SOPE    C119163   0.879   0.933   6.405 -0.0772  0.2201 -0.2257
  170SOPE    HA19164   0.805   0.852   6.388  1.1771 -1.6863  2.5969
  170SOPE    HB19165   0.835   1.032   6.381 -2.8620 -0.6581  0.7477
  170SOPE    C219166   0.901   0.952   6.557 -0.3826 -0.8234  0.2988
  170SOPE    HS19167   0.970   1.039   6.567  0.8688 -1.6460 -0.8624
  170SOPE   O2119168   0.965   0.830   6.602 -0.5034  0.0524  0.2157
  170SOPE   C2119169   1.045   0.841   6.707 -0.1124  0.0078  0.5192
  170SOPE   O2219170   1.069   0.940   6.771  0.0368 -0.1313  0.3950
  170SOPE   C2219171   1.087   0.700   6.749  0.1219  0.1594 -0.0217
  170SOPE   H2R19172   1.092   0.636   6.658 -1.1548  0.5948 -0.4234
  170SOPE   H2S19173   1.001   0.655   6.801 -0.3713  1.1335  0.0406
  170SOPE    C319174   0.766   0.982   6.634  0.3162 -0.2055  0.3387
  170SOPE    HX19175   0.697   0.907   6.590  2.6166 -1.4550 -1.3502
  170SOPE    HY19176   0.727   1.081   6.603 -0.0434  0.0736  1.6217
  170SOPE   O3119177   0.770   0.971   6.777 -0.1352 -0.4576 -0.1992
  170SOPE   C3119178   0.809   1.091   6.825 -0.0947 -0.1496 -0.0332
  170SOPE   O3219179   0.866   1.176   6.763 -0.3234  0.6016  0.1635
  170SOPE   C3219180   0.780   1.093   6.977 -0.4479 -0.3017 -0.2937
  170SOPE   H2X19181   0.745   0.991   7.007  1.0553 -0.1041  2.4389
  170SOPE   H2Y19182   0.706   1.173   6.995 -0.4829 -0.2222 -0.7785
  170SOPE   C2319183   1.208   0.700   6.838  0.1526  0.3099 -0.4332
  170SOPE   H3R19184   1.186   0.769   6.923 -0.5015 -1.4239  0.8498
  170SOPE   H3S19185   1.296   0.732   6.779  1.2164 -0.3370  0.7683
  170SOPE   C2419186   1.243   0.567   6.904 -0.7715  0.2005 -0.2051
  170SOPE   H4R19187   1.165   0.511   6.960 -0.5832 -1.0378 -1.1488
  170SOPE   H4S19188   1.263   0.477   6.843 -0.9593 -0.1470  0.2339
  170SOPE   C2519189   1.366   0.581   6.998 -0.7177 -0.1856  0.1152
  170SOPE   H5R19190   1.454   0.621   6.944 -0.6781  1.4574  1.3248
  170SOPE   H5S19191   1.328   0.658   7.069  0.9553  0.8362 -0.0397
  170SOPE   C2619192   1.414   0.449   7.064 -0.1213  0.0768 -0.4435
  170SOPE   H6R19193   1.332   0.381   7.097  0.5328 -0.6645 -0.3053
  170SOPE   H6S19194   1.464   0.387   6.987  0.0872 -1.4557  0.8732
  170SOPE   C2719195   1.501   0.484   7.192  0.5016 -0.0140  0.5989
  170SOPE   H7R19196   1.574   0.556   7.153 -0.4446  0.3497 -0.5445
  170SOPE   H7S19197   1.440   0.535   7.269  1.2286 -0.4395  1.4799
  170SOPE   C2819198   1.579   0.368   7.260 -0.4437 -0.3034  1.1885
  170SOPE   H8R19199   1.497   0.296   7.281 -1.5759 -0.0868 -2.0104
  170SOPE   H8S19200   1.649   0.330   7.182 -2.5872 -0.5014 -0.7331
  170SOPE   C2919201   1.635   0.416   7.388 -0.8897  0.1201  0.0033
  170SOPE   H9119202   1.648   0.525   7.390 -0.0002  0.0205  2.1325
  170SOPE  C21019203   1.661   0.346   7.495 -0.0853 -0.7174  0.3768
  170SOPE  H10119204   1.699   0.399   7.583 -0.7677  2.1093 -0.9311
  170SOPE  C21119205   1.645   0.196   7.512 -0.4352 -0.6036  0.7942
  170SOPE  H11R19206   1.745   0.163   7.478 -0.4661  0.3614 -0.3029
  170SOPE  H11S19207   1.573   0.155   7.438  0.2146 -0.1401 -0.1198
  170SOPE  C21219208   1.604   0.139   7.648  0.0237  0.2330  0.3906
  170SOPE  H12R19209   1.581   0.031   7.640  1.7792 -0.0909 -0.7827
  170SOPE  H12S19210   1.509   0.193   7.671  0.5107  1.8002 -1.0637
  170SOPE  C21319211   1.703   0.150   7.758 -0.7452 -0.0191 -0.0690
  170SOPE  H13R19212   1.716   0.258   7.782 -0.7620 -0.0273 -0.0232
  170SOPE  H13S19213   1.803   0.113   7.727 -0.3417  0.4094  0.6876
  170SOPE  C21419214   1.646   0.076   7.884 -0.2508 -0.2187 -0.3549
  170SOPE  H14R19215   1.616  -0.027   7.854  0.8281 -0.8358  0.6143
  170SOPE  H14S19216   1.549   0.125   7.909 -0.9187 -2.1592  1.0334
  170SOPE  C21519217   1.745   0.080   8.002 -0.6121 -0.3012 -0.4552
  170SOPE  H15R19218   1.797   0.178   7.993  0.0050 -0.7547 -2.4576
  170SOPE  H15S19219   1.820   0.001   7.981 -1.9592 -1.9010  0.5521
  170SOPE  C21619220   1.680   0.067   8.134 -0.3207  0.4892 -0.2086
  170SOPE  H16R19221   1.595  -0.003   8.119  0.3197 -0.0559 -1.4313
  170SOPE  H16S19222   1.636   0.166   8.160  0.8102  0.9872 -0.1349
  170SOPE  C21719223   1.783   0.035   8.248 -0.5964  0.7495 -0.2818
  170SOPE  H17R19224   1.880   0.081   8.219 -1.2860  0.1075 -4.2369
  170SOPE  H17S19225   1.805  -0.073   8.261  0.5974  1.1677  1.3817
  170SOPE  C21819226   1.732   0.096   8.380  0.9794 -0.0401 -0.6319
  170SOPE  H18R19227   1.623   0.075   8.386  0.7312  1.1725 -0.6566
  170SOPE  H18S19228   1.741   0.206   8.390 -1.0359  0.0427  0.6378
  170SOPE  H18T19229   1.784   0.056   8.469  0.3601  3.5883  1.5523
  170SOPE   C3319230   0.907   1.116   7.065  0.0328 -0.0150  0.0654
  170SOPE   H3X19231   0.969   1.199   7.026 -0.1130 -0.0514 -0.2541
  170SOPE   H3Y19232   0.965   1.024   7.041  1.8025  1.2006 -0.4711
  170SOPE   C3419233   0.880   1.143   7.212 -0.0328 -0.0135  0.0395
  170SOPE   H4X19234   0.842   1.244   7.238  0.4127  0.2932 -0.4825
  170SOPE   H4Y19235   0.982   1.154   7.254  0.3535 -0.1978 -0.8194
  170SOPE   C3519236   0.793   1.041   7.289 -0.6684 -0.0715  0.4252
  170SOPE   H5X19237   0.829   0.949   7.238  0.9292  1.2518 -0.9346
  170SOPE   H5Y19238   0.686   1.056   7.261 -0.2659  1.8657 -0.1991
  170SOPE   C3619239   0.814   1.033   7.443  1.0847  0.6060  0.1840
  170SOPE   H6X19240   0.914   0.996   7.474 -0.4764 -1.8329  2.8254
  170SOPE   H6Y19241   0.743   0.953   7.473  2.8972 -1.7928 -1.4701
  170SOPE   C3719242   0.795   1.160   7.523 -1.2450 -1.2341 -1.0718
  170SOPE   H7X19243   0.702   1.210   7.490 -1.3820 -2.1180 -2.0607
  170SOPE   H7Y19244   0.876   1.232   7.500 -0.6051 -1.7134 -0.3886
  170SOPE   C3819245   0.802   1.130   7.671  0.1352 -0.6796 -0.5091
  170SOPE   H8X19246   0.908   1.102   7.689  0.5047  1.0725  0.2150
  170SOPE   H8Y19247   0.731   1.049   7.697 -1.1460  1.0798  1.8444
  170SOPE   C3919248   0.782   1.259   7.761  0.1379  0.9321  0.3427
  170SOPE   H9X19249   0.684   1.303   7.735 -0.5696  0.8497  2.6406
  170SOPE   H9Y19250   0.868   1.326   7.737  0.5947 -0.2665 -1.5630
  170SOPE  C31019251   0.776   1.223   7.912  0.2810  0.1874  0.3126
  170SOPE  H10X19252   0.860   1.151   7.923  0.7358 -0.0341 -3.4446
  170SOPE  H10Y19253   0.679   1.175   7.936 -0.6901  1.3643 -1.1007
  170SOPE  C31119254   0.796   1.337   8.013 -0.5395  0.2958  0.2254
  170SOPE  H11X19255   0.737   1.425   7.978  0.6311  1.1811  0.3893
  170SOPE  H11Y19256   0.897   1.379   7.995 -1.0867  3.7384  3.7099
  170SOPE  C31219257   0.783   1.289   8.158  0.1538 -0.3503  0.3540
  170SOPE  H12X19258   0.870   1.223   8.176 -0.2031 -0.3678  2.1747
  170SOPE  H12Y19259   0.691   1.232   8.183 -1.0948  1.1318 -0.6648
  170SOPE  C31319260   0.782   1.412   8.256 -0.7127 -0.1771 -0.4688
  170SOPE  H13X19261   0.693   1.475   8.236  0.6942  2.3750  0.8438
  170SOPE  H13Y19262   0.869   1.477   8.238  0.7350 -1.4217  1.6222
  170SOPE  C31419263   0.792   1.367   8.398 -0.4244  0.2691  0.4711
  170SOPE  H14X19264   0.885   1.310   8.418  0.2323  1.1439 -0.0048
  170SOPE  H14Y19265   0.704   1.302   8.417 -1.1831  1.0627 -0.2680
  170SOPE  C31519266   0.791   1.482   8.500  0.3405  0.4570 -0.3240
  170SOPE  H15X19267   0.686   1.513   8.513 -0.0692  0.1910 -2.5010
  170SOPE  H15Y19268   0.849   1.571   8.468 -1.5292  1.9659  0.3509
  170SOPE  C31619269   0.834   1.453   8.642  0.4425 -0.3844 -0.3204
  170SOPE  H16X19270   0.935   1.408   8.640 -0.2491 -2.0137 -0.2260
  170SOPE  H16Y19271   0.756   1.390   8.690  0.3792  0.3482  0.5602
  170SOPE  C31719272   0.852   1.585   8.724  0.2320  0.9018  0.1999
  170SOPE  H17X19273   0.750   1.631   8.733  0.4346  1.7101 -1.3929
  170SOPE  H17Y19274   0.930   1.653   8.684  0.0358  0.9011 -0.1882
  170SOPE  C31819275   0.900   1.556   8.871  0.3625  0.1444 -0.1570
  170SOPE  H18X19276   0.829   1.485   8.919  1.4496  0.4445  2.0599
  170SOPE  H18Y19277   0.891   1.651   8.929  1.6652  0.4211 -0.3812
  170SOPE  H18Z19278   1.002   1.512   8.873  0.3939  0.2088  1.9603
  171SOPE     N19279   1.342   5.259   6.224  0.5879  0.0203  0.4639
  171SOPE   HN119280   1.402   5.259   6.309  0.5316 -1.7865  0.5422
  171SOPE   HN219281   1.265   5.191   6.240 -0.2670  1.5558  3.8986
  171SOPE   HN319282   1.407   5.223   6.152 -0.3763 -0.3693 -0.2266
  171SOPE   C1219283   1.284   5.394   6.192 -0.0787 -0.4327 -0.1345
  171SOPE  H12A19284   1.363   5.464   6.157 -1.0393  0.0263 -1.5009
  171SOPE  H12B19285   1.254   5.445   6.286  1.9341  1.5959 -0.4887
  171SOPE   C1119286   1.161   5.396   6.093 -0.7971 -0.3197  0.0792
  171SOPE  H11A19287   1.178   5.350   5.993  0.1297 -0.1337  0.1407
  171SOPE  H11B19288   1.143   5.502   6.066 -0.6364 -0.7817 -2.0340
  171SOPE     P19289   0.957   5.400   6.256 -0.7267 -0.0564  0.2896
  171SOPE   O1319290   0.831   5.321   6.271  0.2820  0.0786  0.1017
  171SOPE   O1419291   0.939   5.532   6.200  0.7229  0.6614  0.7515
  171SOPE   O1219292   1.048   5.325   6.149  1.0320 -0.1140  0.5312
  171SOPE   O1119293   1.031   5.404   6.392  0.4298 -0.2410 -0.5441
  171SOPE    C119294   1.038   5.282   6.476  0.2476 -0.2453  0.3031
  171SOPE    HA19295   1.097   5.198   6.433 -1.2588 -0.4975 -1.4165
  171SOPE    HB19296   0.936   5.241   6.490  0.2421 -0.6653 -0.8814
  171SOPE    C219297   1.089   5.320   6.615  0.0681 -0.3143 -0.1073
  171SOPE    HS19298   1.039   5.245   6.680 -1.8942  0.6210 -0.4849
  171SOPE   O2119299   1.054   5.454   6.656  0.2549 -0.1643  0.0620
  171SOPE   C2119300   0.927   5.471   6.668  0.0621 -0.1427  0.1861
  171SOPE   O2219301   0.833   5.400   6.638  0.1208 -0.0202 -0.0787
  171SOPE   C2219302   0.908   5.601   6.749 -0.5361 -0.1149 -0.1643
  171SOPE   H2R19303   0.835   5.661   6.689  0.4231  0.0602 -1.1992
  171SOPE   H2S19304   1.003   5.658   6.752  0.0363 -1.0956  2.3667
  171SOPE    C319305   1.243   5.310   6.623 -0.3187 -0.4186  0.5368
  171SOPE    HX19306   1.267   5.408   6.577 -0.2884 -0.2718  0.8666
  171SOPE    HY19307   1.281   5.230   6.556  0.5586  1.1056 -0.8643
  171SOPE   O3119308   1.287   5.307   6.764  0.9832  0.0059 -0.0499
  171SOPE   C3119309   1.411   5.354   6.777  0.6150  0.3719 -0.8772
  171SOPE   O3219310   1.474   5.407   6.689 -0.1264 -0.3364  0.2130
  171SOPE   C3219311   1.457   5.319   6.920  0.3771  0.6188  0.2931
  171SOPE   H2X19312   1.430   5.211   6.926 -1.5256  1.0647  0.6713
  171SOPE   H2Y19313   1.401   5.380   6.994  0.0347  1.5019 -0.6724
  171SOPE   C2319314   0.850   5.568   6.883 -0.7135 -0.2778  0.1144
  171SOPE   H3R19315   0.771   5.490   6.883  0.1518 -1.1833  1.2622
  171SOPE   H3S19316   0.799   5.657   6.926  1.4665  0.2820  1.7082
  171SOPE   C2419317   0.962   5.526   6.977 -0.5060  0.2289 -0.6543
  171SOPE   H4R19318   1.006   5.430   6.944  0.3628  0.0135  1.0101
  171SOPE   H4S19319   1.040   5.604   6.990 -1.7917  1.2123  2.2300
  171SOPE   C2519320   0.909   5.488   7.120 -0.3112  0.7288 -0.4164
  171SOPE   H5R19321   0.846   5.573   7.154 -0.4304  0.5550 -0.1994
  171SOPE   H5S19322   0.834   5.406   7.106 -0.3428  0.5152  0.9163
  171SOPE   C2619323   1.016   5.434   7.218 -0.9411 -0.0480  0.1498
  171SOPE   H6R19324   1.089   5.372   7.162 -0.3788 -0.6210  1.4808
  171SOPE   H6S19325   1.088   5.506   7.262 -0.2036 -1.2447  0.9286
  171SOPE   C2719326   0.945   5.348   7.321 -0.4341  0.4179 -1.0782
  171SOPE   H7R19327   0.881   5.419   7.377 -0.4561 -0.0732 -0.4759
  171SOPE   H7S19328   0.872   5.275   7.279 -0.4989 -1.0799  1.4404
  171SOPE   C2819329   1.043   5.270   7.416  0.7223 -0.1995  0.3685
  171SOPE   H8R19330   1.084   5.204   7.337 -1.3205  0.5721 -1.4343
  171SOPE   H8S19331   1.130   5.332   7.446 -0.9606  2.3029  0.3499
  171SOPE   C2919332   0.975   5.175   7.514 -0.2709  0.6685  0.0941
  171SOPE   H9119333   0.979   5.066   7.494 -0.0320  0.6454  0.2665
  171SOPE  C21019334   0.935   5.214   7.636  0.2290  0.3095  0.7095
  171SOPE  H10119335   0.892   5.138   7.703 -0.9236 -0.0018 -0.3250
  171SOPE  C21119336   0.948   5.355   7.693 -0.6352  0.6673 -0.7812
  171SOPE  H11R19337   0.845   5.362   7.734 -0.3034 -0.2743  0.2356
  171SOPE  H11S19338   0.974   5.443   7.629 -0.2167  0.5573 -0.7609
  171SOPE  C21219339   1.045   5.367   7.815  0.0560 -0.2376 -0.5255
  171SOPE  H12R19340   1.001   5.454   7.867 -0.2896 -0.5692 -0.2568
  171SOPE  H12S19341   1.148   5.393   7.781  1.3710 -0.8164  2.7004
  171SOPE  C21319342   1.055   5.235   7.897 -0.6388 -0.0871  0.2843
  171SOPE  H13R19343   1.107   5.156   7.838  2.2615 -0.3658  2.9536
  171SOPE  H13S19344   0.954   5.199   7.927 -2.2383  1.8501 -2.3554
  171SOPE  C21419345   1.144   5.256   8.021  0.7505 -0.6477 -0.1351
  171SOPE  H14R19346   1.102   5.339   8.083  0.2522  0.1523 -1.4978
  171SOPE  H14S19347   1.248   5.284   7.996  1.2717 -0.6999  1.7882
  171SOPE  C21519348   1.162   5.129   8.097 -0.9893  0.5257  0.0799
  171SOPE  H15R19349   1.239   5.069   8.044  0.1645  1.5058  0.6158
  171SOPE  H15S19350   1.065   5.078   8.077 -1.3392  1.0958  0.2883
  171SOPE  C21619351   1.186   5.130   8.247 -0.6656  0.4016 -0.8276
  171SOPE  H16R19352   1.284   5.181   8.261  0.8672 -2.5818  0.0307
  171SOPE  H16S19353   1.213   5.033   8.292 -0.2394  0.4426 -0.9840
  171SOPE  C21719354   1.073   5.210   8.319 -0.6492  0.5632 -0.2232
  171SOPE  H17R19355   1.050   5.311   8.278 -2.4151  0.2193 -0.1806
  171SOPE  H17S19356   1.114   5.235   8.419  1.8669  2.8431 -1.6766
  171SOPE  C21819357   0.939   5.136   8.337  0.8228  0.1320  0.4226
  171SOPE  H18R19358   0.902   5.118   8.234  0.1818 -1.3732  0.8902
  171SOPE  H18S19359   0.871   5.205   8.392  1.4653  0.7603  0.4342
  171SOPE  H18T19360   0.944   5.042   8.396  1.2870 -0.0937  0.0225
  171SOPE   C3319361   1.605   5.334   6.944 -0.5287 -0.3750 -0.2076
  171SOPE   H3X19362   1.629   5.442   6.939 -1.8243 -0.1130 -1.1282
  171SOPE   H3Y19363   1.665   5.275   6.872 -0.7367 -0.1431 -0.5746
  171SOPE   C3419364   1.628   5.292   7.098 -0.3242  0.6025 -0.1364
  171SOPE   H4X19365   1.602   5.193   7.141  3.2512  0.8072  2.9798
  171SOPE   H4Y19366   1.563   5.356   7.161 -0.0380 -0.8518  1.7246
  171SOPE   C3519367   1.770   5.329   7.132 -1.0613  0.1854 -0.1353
  171SOPE   H5X19368   1.803   5.432   7.104  1.7032 -0.9797 -1.5227
  171SOPE   H5Y19369   1.832   5.269   7.062  1.2883  2.3654 -0.1084
  171SOPE   C3619370   1.808   5.306   7.277  0.2197  0.8149  0.1883
  171SOPE   H6X19371   1.752   5.358   7.357 -0.0685 -1.7672  1.7725
  171SOPE   H6Y19372   1.918   5.317   7.287  0.3969 -0.1094 -0.6546
  171SOPE   C3719373   1.790   5.160   7.327 -0.1577  0.3017  0.5926
  171SOPE   H7X19374   1.819   5.088   7.248  0.2958  0.6366  0.4478
  171SOPE   H7Y19375   1.685   5.145   7.360 -0.1023  0.2858  0.7666
  171SOPE   C3819376   1.876   5.132   7.456 -0.5722  0.4677  0.4317
  171SOPE   H8X19377   1.845   5.207   7.532  1.0034  1.0671  0.5385
  171SOPE   H8Y19378   1.985   5.154   7.445 -0.2633 -0.4706  1.4068
  171SOPE   C3919379   1.855   4.993   7.511 -0.0140  0.1092  0.3756
  171SOPE   H9X19380   1.928   4.926   7.461 -0.7602 -1.3471  1.1616
  171SOPE   H9Y19381   1.753   4.968   7.477 -0.2366  1.1530  0.2309
  171SOPE  C31019382   1.863   4.995   7.665  0.3260  0.1071 -0.3105
  171SOPE  H10X19383   1.764   4.989   7.716  0.9034  0.7507  0.9269
  171SOPE  H10Y19384   1.910   5.089   7.699 -1.1414  0.4405  0.9171
  171SOPE  C31119385   1.952   4.886   7.704  0.2583 -0.4087 -0.3726
  171SOPE  H11X19386   2.052   4.929   7.680 -0.1558  0.5461 -0.4097
  171SOPE  H11Y19387   1.946   4.803   7.630  1.4859 -0.2114 -0.7158
  171SOPE  C31219388   1.941   4.826   7.846 -0.6475  0.2815 -0.0933
  171SOPE  H12X19389   1.993   4.727   7.847 -2.4092 -0.7370  3.0260
  171SOPE  H12Y19390   1.835   4.813   7.875 -0.5233 -2.9405 -0.6850
  171SOPE  C31319391   2.014   4.919   7.946  0.1160  0.4080 -0.2557
  171SOPE  H13X19392   1.943   4.999   7.976  0.4405  0.4509  0.4017
  171SOPE  H13Y19393   2.112   4.957   7.908  1.6486 -1.3144  1.7930
  171SOPE  C31419394   2.035   4.840   8.077 -0.4191  0.2471 -0.4341
  171SOPE  H14X19395   2.078   4.741   8.050  1.1507  1.1312 -1.3194
  171SOPE  H14Y19396   1.944   4.806   8.131 -0.0826  3.9227  2.8717
  171SOPE  C31519397   2.129   4.910   8.169  0.0557  0.6499 -0.0267
  171SOPE  H15X19398   2.073   4.994   8.216 -2.0438 -1.2824  1.1521
  171SOPE  H15Y19399   2.220   4.950   8.118  0.8579  0.0545  0.9079
  171SOPE  C31619400   2.167   4.814   8.288  0.5001 -0.3837 -0.0596
  171SOPE  H16X19401   2.208   4.724   8.237  1.1753  1.0929 -2.2422
  171SOPE  H16Y19402   2.085   4.775   8.352  1.3282 -3.1080 -0.5158
  171SOPE  C31719403   2.281   4.877   8.374 -0.1033  0.4732 -0.0972
  171SOPE  H17X19404   2.338   4.954   8.318  2.4409 -1.3346 -0.1621
  171SOPE  H17Y19405   2.354   4.794   8.388 -0.3738  0.1067 -0.7785
  171SOPE  C31819406   2.250   4.940   8.510 -0.6661 -0.3112  0.2296
  171SOPE  H18X19407   2.230   4.859   8.584 -1.7601  1.2662  1.7587
  171SOPE  H18Y19408   2.171   5.018   8.506  0.8566  1.3532  0.9260
  171SOPE  H18Z19409   2.339   4.992   8.551 -0.2320 -1.0575  0.2439
  172SOPE     N19410   2.998   6.171   6.624 -0.3767 -0.2874 -0.2303
  172SOPE   HN119411   2.939   6.113   6.561  1.7989 -3.4628  0.4129
  172SOPE   HN219412   2.933   6.246   6.656  1.5617  1.2710  0.1915
  172SOPE   HN319413   3.070   6.221   6.568 -1.7321  0.5900 -1.2488
  172SOPE   C1219414   3.061   6.106   6.737 -0.2556  0.1261 -0.7956
  172SOPE  H12A19415   2.989   6.101   6.821  0.0881  0.9594 -0.4338
  172SOPE  H12B19416   3.142   6.176   6.766 -2.3215  2.4364 -0.1815
  172SOPE   C1119417   3.102   5.961   6.706 -0.2051  0.2107 -0.1146
  172SOPE  H11A19418   3.017   5.906   6.662 -0.9093 -0.4946  2.0333
  172SOPE  H11B19419   3.118   5.909   6.802 -0.8729  0.1188 -0.0495
  172SOPE     P19420   3.318   5.846   6.615  0.0176 -0.1670 -0.0418
  172SOPE   O1319421   3.356   5.834   6.473  0.6982  0.3156  0.0117
  172SOPE   O1419422   3.257   5.728   6.684  0.2047  0.0619  0.3745
  172SOPE   O1219423   3.213   5.965   6.614  0.8198 -0.1022  0.1519
  172SOPE   O1119424   3.440   5.898   6.696 -0.6959  0.5464 -0.0385
  172SOPE    C119425   3.446   6.031   6.748 -0.0332 -0.4612  0.1266
  172SOPE    HA19426   3.376   6.107   6.706  2.4778  0.5635 -2.5921
  172SOPE    HB19427   3.538   6.078   6.707 -1.4385  1.9099 -0.5041
  172SOPE    C219428   3.444   6.046   6.901 -0.3605 -0.4373  0.1084
  172SOPE    HS19429   3.527   5.980   6.935 -0.6987  0.1650  2.2343
  172SOPE   O2119430   3.320   5.997   6.955  0.2749  0.4837  0.2113
  172SOPE   C2119431   3.314   5.911   7.052 -0.4193 -0.1975  0.5856
  172SOPE   O2219432   3.413   5.853   7.098 -0.5110 -0.4032  0.0564
  172SOPE   C2219433   3.162   5.884   7.086  0.9124 -0.3071  0.7702
  172SOPE   H2R19434   3.110   5.846   6.995 -1.1636  1.5360  1.1184
  172SOPE   H2S19435   3.122   5.984   7.110  0.5651 -0.3655  0.4499
  172SOPE    C319436   3.471   6.193   6.947  0.5292  0.1877  0.1051
  172SOPE    HX19437   3.397   6.272   6.920  2.8541  2.9464  1.2953
  172SOPE    HY19438   3.566   6.218   6.896 -1.2414  2.1545 -2.4946
  172SOPE   O3119439   3.485   6.186   7.094 -0.0818  0.6317 -0.0595
  172SOPE   C3119440   3.386   6.242   7.163 -0.3899 -0.1025  0.9893
  172SOPE   O3219441   3.291   6.295   7.114  0.4018 -0.3014 -0.0278
  172SOPE   C3219442   3.403   6.216   7.317  0.2848 -0.1037 -0.2515
  172SOPE   H2X19443   3.308   6.246   7.366  1.5589  2.3108  0.9001
  172SOPE   H2Y19444   3.471   6.293   7.358 -1.2250  0.7707  0.6874
  172SOPE   C2319445   3.126   5.791   7.207  0.0507 -0.3387 -0.2738
  172SOPE   H3R19446   3.219   5.741   7.241 -2.0960 -3.5894  1.4475
  172SOPE   H3S19447   3.065   5.702   7.179 -0.0281  0.1387 -1.6917
  172SOPE   C2419448   3.066   5.871   7.331  0.2344  0.4728  0.7242
  172SOPE   H4R19449   3.120   5.968   7.337  2.7243 -0.6830 -1.1165
  172SOPE   H4S19450   2.959   5.898   7.319 -0.0422 -0.5431  0.8327
  172SOPE   C2519451   3.086   5.782   7.461 -0.2352 -0.0576  0.0928
  172SOPE   H5R19452   3.013   5.698   7.451 -0.6989  0.2682  0.6616
  172SOPE   H5S19453   3.188   5.741   7.472  1.6401  4.0351 -0.2771
  172SOPE   C2619454   3.041   5.858   7.590 -0.1584  0.5636  0.2532
  172SOPE   H6R19455   3.129   5.922   7.614  0.0328 -0.5218  2.6546
  172SOPE   H6S19456   2.949   5.921   7.584 -0.5521 -0.0393 -0.1409
  172SOPE   C2719457   3.019   5.769   7.721  0.0484  0.2157  0.3942
  172SOPE   H7R19458   2.956   5.682   7.690  1.8947 -0.7114 -0.9456
  172SOPE   H7S19459   3.119   5.726   7.743 -0.5586 -0.5907  1.6717
  172SOPE   C2819460   2.953   5.837   7.845 -0.0085  0.4544  0.2883
  172SOPE   H8R19461   2.851   5.873   7.820  0.6812  1.2821 -1.5040
  172SOPE   H8S19462   2.952   5.760   7.925 -0.9179 -2.0469 -1.9975
  172SOPE   C2919463   3.029   5.955   7.905 -0.4558 -0.6911  0.5127
  172SOPE   H9119464   3.132   5.975   7.872  0.7415  0.0138  4.2591
  172SOPE  C21019465   2.977   6.031   8.006  0.2703  0.0607 -0.0486
  172SOPE  H10119466   3.033   6.115   8.049  0.0074  0.1772  0.0643
  172SOPE  C21119467   2.846   6.017   8.078 -1.1244  0.5607  0.4651
  172SOPE  H11R19468   2.779   5.938   8.038 -2.4066  2.3709 -1.1716
  172SOPE  H11S19469   2.782   6.106   8.057 -1.9847  0.1214  1.1247
  172SOPE  C21219470   2.848   6.004   8.230 -0.0268  0.1979 -0.6547
  172SOPE  H12R19471   2.917   6.074   8.283  0.2702 -1.2250  0.9038
  172SOPE  H12S19472   2.885   5.902   8.252  0.3531 -0.0743 -2.4209
  172SOPE  C21319473   2.707   6.022   8.290 -0.2109 -0.2148 -0.1081
  172SOPE  H13R19474   2.637   5.946   8.248 -0.9065 -0.8821  2.1052
  172SOPE  H13S19475   2.656   6.120   8.274 -0.1695 -0.1893 -0.0842
  172SOPE  C21419476   2.704   5.988   8.444  1.0087  0.1657  0.2595
  172SOPE  H14R19477   2.595   5.981   8.466  0.6627 -1.4845 -1.6647
  172SOPE  H14S19478   2.740   6.068   8.512 -1.3479  1.0084  0.6169
  172SOPE  C21519479   2.756   5.850   8.470  0.4700  0.2070  0.1951
  172SOPE  H15R19480   2.738   5.822   8.576  2.1319 -2.6806 -0.1659
  172SOPE  H15S19481   2.867   5.848   8.466  0.6623 -0.5355  3.3479
  172SOPE  C21619482   2.690   5.729   8.385  0.5843 -0.2501  0.1245
  172SOPE  H16R19483   2.690   5.754   8.277 -0.5914 -2.5095 -0.4730
  172SOPE  H16S19484   2.583   5.714   8.409 -0.2811 -2.0295 -4.0023
  172SOPE  C21719485   2.759   5.600   8.390  0.1598  0.2000 -0.7925
  172SOPE  H17R19486   2.774   5.581   8.499  4.4023  1.6776 -0.9538
  172SOPE  H17S19487   2.862   5.612   8.350  1.2215  1.6885  2.1153
  172SOPE  C21819488   2.679   5.492   8.321  1.2268  0.4524  0.5065
  172SOPE  H18R19489   2.574   5.499   8.354  0.4746 -1.6959 -1.1768
  172SOPE  H18S19490   2.725   5.394   8.349  2.2269  0.3595 -1.2652
  172SOPE  H18T19491   2.672   5.502   8.210  0.6531  0.2752  0.5268
  172SOPE   C3319492   3.444   6.074   7.357  0.3578 -0.2890 -0.6742
  172SOPE   H3X19493   3.546   6.052   7.318  0.6416 -1.0336  0.4571
  172SOPE   H3Y19494   3.382   5.988   7.327  0.1449 -0.6894  0.8259
  172SOPE   C3419495   3.443   6.063   7.511 -0.6592  1.0662  0.5362
  172SOPE   H4X19496   3.341   6.067   7.555 -2.1732  0.9810 -2.6499
  172SOPE   H4Y19497   3.505   6.150   7.540  2.0475 -0.6267  0.1793
  172SOPE   C3519498   3.504   5.931   7.558 -0.2865 -0.2426  0.3511
  172SOPE   H5X19499   3.613   5.926   7.538  0.1764  0.7085  2.3807
  172SOPE   H5Y19500   3.453   5.847   7.508  1.1166 -0.9273  0.0351
  172SOPE   C3619501   3.504   5.923   7.714 -1.3848 -0.3184 -0.3709
  172SOPE   H6X19502   3.539   6.024   7.745  0.2232 -0.7103 -0.8042
  172SOPE   H6Y19503   3.577   5.848   7.753 -0.6195  0.1857 -0.8077
  172SOPE   C3719504   3.373   5.902   7.783  0.6530 -0.2822  0.1044
  172SOPE   H7X19505   3.309   5.838   7.719  0.1156 -0.7290  1.0700
  172SOPE   H7Y19506   3.312   5.995   7.789  1.9888  0.6861 -0.8373
  172SOPE   C3819507   3.385   5.836   7.918  0.3803  0.3557  0.3724
  172SOPE   H8X19508   3.442   5.741   7.910  0.6584  0.3497  2.0245
  172SOPE   H8Y19509   3.279   5.816   7.945  0.4503  0.7466  0.9511
  172SOPE   C3919510   3.451   5.919   8.026  0.2408  0.6180 -0.2663
  172SOPE   H9X19511   3.397   6.016   8.035  0.1402  0.3642  2.6044
  172SOPE   H9Y19512   3.557   5.938   7.998  0.0154 -0.1170 -1.7184
  172SOPE  C31019513   3.449   5.849   8.164 -0.2501  1.0450  0.5593
  172SOPE  H10X19514   3.519   5.905   8.229 -0.6902  1.0043  1.0765
  172SOPE  H10Y19515   3.496   5.750   8.144 -0.7971  1.1689 -1.4983
  172SOPE  C31119516   3.310   5.830   8.232  0.1380  0.6063 -0.8513
  172SOPE  H11X19517   3.244   5.765   8.170 -1.6265  1.7048 -0.1866
  172SOPE  H11Y19518   3.258   5.928   8.235  1.0668  1.0865  0.0031
  172SOPE  C31219519   3.321   5.764   8.371 -0.7526 -0.1394  0.3092
  172SOPE  H12X19520   3.382   5.832   8.434 -1.7790  0.3252  0.8085
  172SOPE  H12Y19521   3.387   5.675   8.366 -1.4855 -0.6676 -0.1342
  172SOPE  C31319522   3.186   5.746   8.432  0.6869  0.1980 -0.0653
  172SOPE  H13X19523   3.125   5.674   8.373 -0.9950  1.0806  0.5452
  172SOPE  H13Y19524   3.132   5.840   8.408  2.4922  1.5177  0.7853
  172SOPE  C31419525   3.188   5.720   8.585 -0.3058  0.7502  0.3839
  172SOPE  H14X19526   3.266   5.784   8.630  0.7207 -0.3145  0.1649
  172SOPE  H14Y19527   3.228   5.617   8.597 -0.7935  0.5655  0.4563
  172SOPE  C31519528   3.057   5.725   8.654 -0.1729  0.3971  0.4738
  172SOPE  H15X19529   2.986   5.645   8.622  1.6501 -1.6106  1.2249
  172SOPE  H15Y19530   2.998   5.815   8.627  0.0201 -0.3107 -2.7320
  172SOPE  C31619531   3.079   5.705   8.805 -0.2632 -0.2812  0.3033
  172SOPE  H16X19532   3.149   5.785   8.837 -0.2018  0.1429 -0.8407
  172SOPE  H16Y19533   3.146   5.618   8.822  1.7818  1.5157  2.1012
  172SOPE  C31719534   2.953   5.702   8.894  0.0118  0.5028 -0.2447
  172SOPE  H17X19535   2.902   5.800   8.891 -1.2759 -0.1382  0.2852
  172SOPE  H17Y19536   2.981   5.681   8.999  3.4916 -0.7227 -1.2620
  172SOPE  C31819537   2.845   5.596   8.846 -0.5624 -0.1089 -0.2299
  172SOPE  H18X19538   2.893   5.498   8.865  0.3767  0.6096  1.2938
  172SOPE  H18Y19539   2.809   5.611   8.742 -0.8136  0.6419 -0.0417
  172SOPE  H18Z19540   2.761   5.620   8.915  1.1650  0.4167  1.8193
  173SAPI   C1219541   2.916   6.519  11.256 -0.4136  0.6690 -1.4093
  173SAPI    H219542   2.960   6.478  11.162  0.6798  1.6059 -1.3339
  173SAPI    O219543   2.775   6.498  11.239  0.1650  0.1385  0.5528
  173SAPI   HO219544   2.745   6.574  11.189  2.5252 -0.0313 -1.2715
  173SAPI   C1319545   2.970   6.437  11.380  0.9335  0.7022 -0.0003
  173SAPI    H319546   3.076   6.469  11.386  0.8509  0.9298  0.2463
  173SAPI    O319547   2.957   6.291  11.365  0.4745 -0.0532  0.4244
  173SAPI   HO319548   2.881   6.262  11.315 -0.0860 -0.0879  1.2764
  173SAPI   C1419549   2.898   6.482  11.498 -0.1723  0.7920 -0.0844
  173SAPI    H419550   2.791   6.453  11.493  0.3036 -1.3107  0.8434
  173SAPI    O419551   2.954   6.416  11.613 -0.1278 -0.1231  0.5132
  173SAPI   HO419552   2.962   6.325  11.584 -1.5569  0.0668 -0.5757
  173SAPI   C1519553   2.900   6.635  11.512  0.4127 -0.3376 -0.2614
  173SAPI    H519554   3.008   6.658  11.524  0.2849 -0.5703  1.6403
  173SAPI    O519555   2.836   6.676  11.631 -0.3759  0.6771 -0.0697
  173SAPI   HO519556   2.750   6.633  11.635  0.1167 -0.2280  1.7081
  173SAPI   C1619557   2.856   6.713  11.390  0.5468  0.3833  0.8693
  173SAPI    H619558   2.746   6.700  11.383 -0.0219  3.7003  1.8956
  173SAPI    O619559   2.875   6.854  11.406  0.0025 -0.1615 -0.3678
  173SAPI   HO619560   2.937   6.881  11.338  1.5795 -1.9093  0.2936
  173SAPI   C1119561   2.938   6.663  11.263  0.7820  0.0981  0.0879
  173SAPI    H119562   3.046   6.681  11.279  0.9691 -0.2736 -0.6994
  173SAPI     P19563   2.998   6.846  11.073 -0.3396  0.1776 -0.6971
  173SAPI   O1319564   3.041   6.943  11.176  0.1041 -0.2432 -0.2355
  173SAPI   O1419565   2.930   6.894  10.949  0.0522 -0.6404 -0.0911
  173SAPI   O1219566   2.891   6.736  11.146  0.3095  0.0147  0.0997
  173SAPI   O1119567   3.126   6.756  11.037 -0.5782 -0.2010 -0.6393
  173SAPI    C119568   3.112   6.647  10.951  0.3193  0.4768  0.6892
  173SAPI    HA19569   3.165   6.553  10.979 -0.7551 -0.8841 -1.5105
  173SAPI    HB19570   3.006   6.613  10.945  0.9261 -1.4034 -0.4229
  173SAPI    C219571   3.163   6.683  10.813  0.3246  0.0264  0.1612
  173SAPI    HS19572   3.105   6.771  10.778 -0.6136 -1.7132 -2.9655
  173SAPI   O2119573   3.172   6.572  10.720 -0.3228 -0.0027  0.6741
  173SAPI   C2119574   3.058   6.540  10.654 -0.0950 -0.3416 -0.2983
  173SAPI   O2219575   2.949   6.594  10.668 -0.1594 -0.1595 -0.3363
  173SAPI   C2219576   3.107   6.428  10.558 -0.2464 -0.8676  0.5483
  173SAPI   H2R19577   3.218   6.432  10.547 -0.1429 -0.2502  1.6141
  173SAPI   H2S19578   3.073   6.329  10.595 -1.4806 -1.5319 -2.1646
  173SAPI    C319579   3.309   6.732  10.838 -0.0553 -0.1428  0.2619
  173SAPI    HX19580   3.357   6.653  10.898  2.4904 -0.1766 -1.6645
  173SAPI    HY19581   3.309   6.829  10.892  0.5601 -1.0934  2.0347
  173SAPI   O3119582   3.382   6.738  10.708 -0.1276 -0.1982 -0.4230
  173SAPI   C3119583   3.379   6.843  10.631 -0.5587  0.1860 -1.2192
  173SAPI   O3219584   3.318   6.947  10.655 -0.5222 -0.1613  0.2433
  173SAPI   C3219585   3.459   6.805  10.505  0.5361 -0.3771 -0.6570
  173SAPI   H2X19586   3.565   6.814  10.538  0.4542 -1.2875 -0.0849
  173SAPI   H2Y19587   3.431   6.887  10.436 -0.6297  0.0017  0.2247
  173SAPI   C2319588   3.046   6.447  10.417 -0.3427 -0.7893  0.0176
  173SAPI   H3R19589   3.087   6.536  10.365 -0.3646 -1.7192 -1.6755
  173SAPI   H3S19590   2.937   6.468  10.425 -0.5121 -0.5649 -2.2228
  173SAPI   C2419591   3.044   6.325  10.315  0.3570 -0.1910 -0.3271
  173SAPI   H4R19592   3.145   6.285  10.294 -0.5703 -2.1138 -1.3832
  173SAPI   H4S19593   3.006   6.359  10.216 -2.3736  0.9717  1.0102
  173SAPI   C2519594   2.962   6.207  10.370 -0.2122  0.3441 -0.9647
  173SAPI   H5R19595   2.996   6.176  10.470 -2.4613  2.0585  0.3983
  173SAPI   C2619596   2.873   6.127  10.302 -0.3036 -0.4941 -0.8514
  173SAPI   H6R19597   2.827   6.044  10.357  0.2381 -0.9412 -1.0632
  173SAPI   C2719598   2.833   6.151  10.157 -0.5760 -0.1124 -0.4687
  173SAPI   H7R19599   2.801   6.254  10.130 -2.0230 -0.5589 -0.4934
  173SAPI   H7S19600   2.747   6.085  10.134 -0.3898 -1.3506  2.0729
  173SAPI   C2819601   2.950   6.127  10.059 -0.0405  0.2584 -0.1868
  173SAPI   H8R19602   3.044   6.090  10.101 -0.1767  3.1705  3.1157
  173SAPI   C2919603   2.940   6.148   9.926 -0.3986 -0.0518  0.3506
  173SAPI   H9R19604   3.022   6.121   9.859 -0.5993 -0.5935  0.3148
  173SAPI  C21019605   2.825   6.216   9.851  0.6769  0.3194  0.6776
  173SAPI  H10R19606   2.744   6.237   9.924 -1.3973 -2.9295 -0.4447
  173SAPI  H10S19607   2.773   6.141   9.788  1.8887 -0.3425  0.4360
  173SAPI  C21119608   2.867   6.347   9.788  0.0826 -0.9131 -0.4896
  173SAPI  H11R19609   2.918   6.418   9.854 -0.7171 -0.9468  0.1792
  173SAPI  C21219610   2.858   6.372   9.657 -0.3810 -0.4153 -0.8588
  173SAPI  H12R19611   2.881   6.473   9.621 -1.4463 -0.3252 -1.3082
  173SAPI  C21319612   2.800   6.283   9.553 -0.2464  0.3903  0.6415
  173SAPI  H13R19613   2.727   6.212   9.597 -0.3296 -0.4969 -0.8690
  173SAPI  H13S19614   2.874   6.210   9.512 -1.5256 -1.0071  0.7294
  173SAPI  C21419615   2.722   6.343   9.437 -0.2401  0.1339 -0.4226
  173SAPI  H14R19616   2.694   6.447   9.458  2.2701  0.6774  0.7105
  173SAPI  C21519617   2.717   6.297   9.311  0.3262  0.2819 -0.4045
  173SAPI  H15R19618   2.651   6.354   9.245  1.0454  2.4785  0.6911
  173SAPI  C21619619   2.785   6.174   9.256  0.0912  0.1206 -0.1629
  173SAPI  H16R19620   2.719   6.087   9.276 -1.0442  0.6713 -1.4410
  173SAPI  H16S19621   2.883   6.151   9.304  2.4443  1.0105 -4.1233
  173SAPI  C21719622   2.795   6.177   9.104  1.0644  0.6939  0.3591
  173SAPI  H17R19623   2.709   6.234   9.064  2.2409  0.8081 -2.1874
  173SAPI  H17S19624   2.790   6.068   9.082  1.6363  0.4716  1.2978
  173SAPI  C21819625   2.929   6.242   9.064 -0.0084 -0.5666 -0.1253
  173SAPI  H18R19626   3.009   6.178   9.107 -1.3128 -2.4852 -0.4156
  173SAPI  H18S19627   2.925   6.346   9.103 -0.4121 -0.5507 -0.2018
  173SAPI  C21919628   2.953   6.237   8.911  0.0521  0.4702 -0.1270
  173SAPI  H19R19629   3.051   6.287   8.893 -1.4546  4.2083  0.9922
  173SAPI  H19S19630   2.884   6.302   8.853 -0.1121  0.7603  0.3910
  173SAPI  C22019631   2.961   6.092   8.856 -0.1894 -0.1329 -0.4961
  173SAPI  H20R19632   3.030   6.086   8.769  0.8311  0.5674  0.2449
  173SAPI  H20S19633   2.861   6.055   8.826 -1.3619  2.1540  0.3667
  173SAPI  H20T19634   3.012   6.022   8.925 -0.6315 -0.7532 -0.7943
  173SAPI   C3319635   3.425   6.663  10.453 -0.8314  0.2302  0.4331
  173SAPI   H3X19636   3.319   6.658  10.420 -0.1402 -3.2296 -1.7511
  173SAPI   H3Y19637   3.441   6.594  10.538  0.7959  1.8799  1.5468
  173SAPI   C3419638   3.506   6.625  10.333  0.1938 -0.2283 -0.4498
  173SAPI   H4X19639   3.605   6.674  10.334 -1.1637  2.7540  0.8562
  173SAPI   H4Y19640   3.446   6.666  10.249 -2.6166 -1.5080  0.7679
  173SAPI   C3519641   3.507   6.474  10.303 -0.0914 -0.1893 -0.5635
  173SAPI   H5X19642   3.522   6.418  10.398 -0.9463  0.1442 -0.2192
  173SAPI   H5Y19643   3.589   6.452  10.231 -0.4381 -1.4590 -0.6057
  173SAPI   C3619644   3.389   6.419  10.236  0.3169 -0.4764  0.2655
  173SAPI   H6X19645   3.301   6.446  10.299  1.1157  0.8779  0.8399
  173SAPI   H6Y19646   3.402   6.310  10.248  1.1713 -0.3536  0.4750
  173SAPI   C3719647   3.372   6.466  10.091  0.2338  0.0372 -0.2213
  173SAPI   H7X19648   3.464   6.516  10.054  1.5569 -1.2572  1.2010
  173SAPI   H7Y19649   3.298   6.549  10.079  0.4692  0.6874  2.2523
  173SAPI   C3819650   3.334   6.344  10.013  0.5022 -0.5688 -0.2576
  173SAPI   H8X19651   3.230   6.315  10.037  0.2058 -1.1052 -2.0069
  173SAPI   H8Y19652   3.396   6.253  10.031 -1.8241 -2.6298 -1.8458
  173SAPI   C3919653   3.352   6.379   9.867  0.1895 -0.4903 -0.2451
  173SAPI   H9X19654   3.460   6.391   9.842 -0.0115  2.0931 -0.1898
  173SAPI   H9Y19655   3.304   6.477   9.847  1.6425  0.0526 -1.3197
  173SAPI  C31019656   3.296   6.271   9.782  0.3838  0.0939  0.5441
  173SAPI  H10X19657   3.194   6.240   9.812  0.0290  0.2605 -0.4550
  173SAPI  H10Y19658   3.365   6.184   9.792  0.2704  0.0390  0.8533
  173SAPI  C31119659   3.285   6.311   9.635 -0.3430 -0.0639  0.0926
  173SAPI  H11X19660   3.381   6.363   9.614 -0.7535  0.7711  0.2339
  173SAPI  H11Y19661   3.193   6.373   9.625 -1.6623 -1.7348  1.3158
  173SAPI  C31219662   3.292   6.187   9.541 -0.2524 -0.3287 -0.3707
  173SAPI  H12X19663   3.226   6.104   9.575 -1.7365  0.6073 -0.8874
  173SAPI  H12Y19664   3.399   6.155   9.541  0.0920  0.7563  0.5095
  173SAPI  C31319665   3.267   6.234   9.398 -0.1581  0.0290  0.4620
  173SAPI  H13X19666   3.329   6.320   9.364 -2.1169  0.6457 -1.8152
  173SAPI  H13Y19667   3.161   6.267   9.398  0.2301  1.3946 -0.9273
  173SAPI  C31419668   3.280   6.129   9.290  0.2942  0.1429  0.0197
  173SAPI  H14X19669   3.178   6.088   9.274  0.8350 -1.3491  0.2399
  173SAPI  H14Y19670   3.336   6.040   9.328 -3.1956 -1.2201  2.4980
  173SAPI  C31519671   3.340   6.180   9.161 -0.5199 -0.6767 -0.2555
  173SAPI  H15X19672   3.436   6.232   9.181 -1.1844  0.4400  0.1420
  173SAPI  H15Y19673   3.277   6.255   9.108 -2.3754 -0.9309  1.4781
  173SAPI  C31619674   3.367   6.062   9.065 -0.1672  0.0105  0.1893
  173SAPI  H16X19675   3.275   6.000   9.060 -0.5701  0.6504 -3.1541
  173SAPI  H16Y19676   3.448   6.008   9.119  0.5955  0.0374 -0.8830
  173SAPI  C31719677   3.396   6.105   8.923  0.5008 -0.7616 -0.5621
  173SAPI  H17X19678   3.475   6.183   8.928 -0.7478  0.7508 -3.0992
  173SAPI  H17Y19679   3.301   6.156   8.898 -0.8772 -1.7157  2.2403
  173SAPI  C31819680   3.433   5.996   8.823 -0.8730  0.1099 -0.0201
  173SAPI  H18X19681   3.356   5.917   8.830  0.3273 -0.9934  1.2342
  173SAPI  H18Y19682   3.522   5.937   8.856 -0.9324 -0.5336 -0.9501
  173SAPI  H18Z19683   3.446   6.035   8.719  1.2737  0.0653  0.1904
  174SAPI   C1219684   5.814   0.876  10.781  0.0914 -0.8653 -0.2008
  174SAPI    H219685   5.906   0.821  10.753  0.6129  0.2752 -0.8246
  174SAPI    O219686   5.773   0.970  10.678 -0.1374  0.1448 -0.1776
  174SAPI   HO219687   5.830   1.047  10.686 -0.1620  0.1778 -0.3212
  174SAPI   C1319688   5.712   0.774  10.815  0.7648 -0.0467 -0.0889
  174SAPI    H319689   5.740   0.699  10.892  0.7858 -0.3993 -0.4360
  174SAPI    O319690   5.689   0.697  10.691 -0.0451 -0.0137  0.4315
  174SAPI   HO319691   5.638   0.751  10.631  0.9604  0.4352 -0.0479
  174SAPI   C1419692   5.577   0.836  10.869 -0.6771 -0.4029 -0.3214
  174SAPI    H419693   5.533   0.900  10.790 -2.9586 -1.7151 -0.1804
  174SAPI    O419694   5.485   0.733  10.894 -0.1518 -0.3699 -0.2054
  174SAPI   HO419695   5.400   0.774  10.873  0.0196 -0.9750 -2.2762
  174SAPI   C1519696   5.605   0.927  10.989 -0.5440 -0.3459  0.8401
  174SAPI    H519697   5.647   0.859  11.066  0.1496  0.9008  1.5889
  174SAPI    O519698   5.481   0.984  11.033  0.1647  0.4765  0.7428
  174SAPI   HO519699   5.470   0.960  11.126 -1.3466 -0.3092  0.3800
  174SAPI   C1619700   5.708   1.032  10.959  0.0331 -0.0827 -0.3563
  174SAPI    H619701   5.674   1.097  10.876 -1.2205  1.7252  1.4790
  174SAPI    O619702   5.737   1.109  11.077 -0.3534 -0.1924 -0.0555
  174SAPI   HO619703   5.810   1.085  11.135  0.2124  0.7349 -0.3533
  174SAPI   C1119704   5.837   0.960  10.912  0.1734  0.0509 -0.4562
  174SAPI    H119705   5.873   0.883  10.983  3.4973  1.3499 -0.5337
  174SAPI     P19706   6.093   1.030  10.865  0.2127  0.1158  0.4262
  174SAPI   O1319707   6.125   0.902  10.936 -0.1998 -0.6399  0.4707
  174SAPI   O1419708   6.169   1.148  10.903 -0.5147  0.0382 -0.3224
  174SAPI   O1219709   5.934   1.058  10.893  0.5725  0.0495 -0.0782
  174SAPI   O1119710   6.106   1.003  10.711  0.3601 -0.5866  0.8252
  174SAPI    C119711   6.088   1.125  10.626 -0.2385  0.7174 -0.0884
  174SAPI    HA19712   5.980   1.152  10.626 -0.9979 -1.9291 -2.1871
  174SAPI    HB19713   6.158   1.205  10.657  1.9266 -1.0363 -0.1996
  174SAPI    C219714   6.115   1.096  10.482 -0.5139  0.0040 -0.2153
  174SAPI    HS19715   6.093   1.175  10.407  1.4818  0.8493  0.0368
  174SAPI   O2119716   6.056   0.972  10.446  0.7631  0.1518  0.5842
  174SAPI   C2119717   5.926   0.987  10.409  0.5387 -0.0830 -0.4677
  174SAPI   O2219718   5.868   1.091  10.403  0.3144 -0.1416 -0.1911
  174SAPI   C2219719   5.885   0.840  10.370  0.3153 -0.3912 -0.5685
  174SAPI   H2R19720   5.839   0.785  10.454  0.8344 -2.9973 -1.8976
  174SAPI   H2S19721   5.798   0.870  10.308 -0.4763  1.3950  1.2717
  174SAPI    C319722   6.271   1.097  10.462 -0.1668 -0.1315  0.6020
  174SAPI    HX19723   6.312   1.008  10.515  0.6151  0.8311  1.6581
  174SAPI    HY19724   6.311   1.192  10.504  2.0076 -0.0832 -1.3366
  174SAPI   O3119725   6.303   1.091  10.323 -0.4362  0.0614 -0.0814
  174SAPI   C3119726   6.341   0.970  10.280  0.3479 -0.0766 -0.0301
  174SAPI   O3219727   6.371   0.872  10.342  0.4702 -0.6890 -0.5192
  174SAPI   C3219728   6.350   0.983  10.125 -0.1227  0.1485 -0.5775
  174SAPI   H2X19729   6.455   0.968  10.093 -0.1283 -1.4415  0.0883
  174SAPI   H2Y19730   6.324   1.085  10.090 -1.1927 -0.9723 -3.3911
  174SAPI   C2319731   5.987   0.756  10.288 -0.5688  0.1012  0.2839
  174SAPI   H3R19732   6.097   0.767  10.304 -0.3699 -1.1612 -0.1045
  174SAPI   H3S19733   5.977   0.768  10.178  2.2742  0.1024 -0.0463
  174SAPI   C2419734   5.962   0.601  10.298  0.1331 -0.5615 -0.1814
  174SAPI   H4R19735   5.856   0.583  10.267 -1.6722  0.6423  4.4622
  174SAPI   H4S19736   5.957   0.582  10.407  1.3540 -0.1910 -0.0440
  174SAPI   C2519737   6.061   0.503  10.242 -0.0596 -0.3106 -0.4443
  174SAPI   H5R19738   6.150   0.480  10.302 -0.8934 -1.6009  0.3375
  174SAPI   C2619739   6.042   0.433  10.130  0.3185 -0.6367  0.0706
  174SAPI   H6R19740   6.112   0.361  10.085 -2.5051 -3.3719 -0.2879
  174SAPI   C2719741   5.918   0.455  10.046 -0.0721  0.0821  0.2991
  174SAPI   H7R19742   5.921   0.562  10.017  0.5419  0.2226  0.8706
  174SAPI   H7S19743   5.825   0.438  10.103  0.9085  1.2700  2.3426
  174SAPI   C2819744   5.918   0.353   9.934 -0.1882 -0.1064 -0.3487
  174SAPI   H8R19745   5.933   0.248   9.962  1.0335  0.4481  1.2169
  174SAPI   C2919746   5.883   0.375   9.809  0.5221 -0.1044  0.0899
  174SAPI   H9R19747   5.894   0.295   9.734 -0.8954 -2.1202  1.8968
  174SAPI  C21019748   5.836   0.512   9.764 -0.0472  1.1734  0.5344
  174SAPI  H10R19749   5.924   0.579   9.762  0.2209  0.7980 -0.6854
  174SAPI  H10S19750   5.764   0.553   9.838 -3.0626 -0.9893 -0.9766
  174SAPI  C21119751   5.763   0.516   9.629 -0.1383  0.0689 -0.2380
  174SAPI  H11R19752   5.730   0.425   9.578  0.5669 -0.2526 -0.1354
  174SAPI  C21219753   5.753   0.626   9.547 -0.1945  0.5145 -0.2861
  174SAPI  H12R19754   5.696   0.613   9.454 -0.6430  1.1458 -0.1093
  174SAPI  C21319755   5.804   0.767   9.573 -0.4630 -0.6732  0.0192
  174SAPI  H13R19756   5.901   0.778   9.521 -0.4551  0.2572  0.2073
  174SAPI  H13S19757   5.830   0.778   9.680  1.0562 -1.4898 -0.2454
  174SAPI  C21419758   5.701   0.879   9.531 -0.5183 -0.3960 -0.5055
  174SAPI  H14R19759   5.715   0.922   9.431  0.5803 -2.9821 -1.5295
  174SAPI  C21519760   5.595   0.917   9.610  0.3536  0.1980 -0.2050
  174SAPI  H15R19761   5.529   1.001   9.582  0.5282  0.2690 -0.4087
  174SAPI  C21619762   5.566   0.851   9.744 -0.1581  0.3326 -0.1466
  174SAPI  H16R19763   5.610   0.749   9.741  0.7484  0.7172 -0.3170
  174SAPI  H16S19764   5.456   0.837   9.751 -0.2580  1.3177  0.5023
  174SAPI  C21719765   5.624   0.903   9.869 -0.1135 -0.2795 -0.1576
  174SAPI  H17R19766   5.732   0.928   9.863 -0.6452  2.1258 -1.0577
  174SAPI  H17S19767   5.604   0.828   9.948  1.7905 -0.1819  0.4392
  174SAPI  C21819768   5.548   1.033   9.912 -0.1178 -0.6367 -0.0789
  174SAPI  H18R19769   5.441   1.008   9.898 -0.0845 -0.0639 -1.5178
  174SAPI  H18S19770   5.566   1.116   9.840  0.2755 -0.1328  0.5884
  174SAPI  C21919771   5.587   1.079  10.051  0.2830 -0.5154 -0.5084
  174SAPI  H19R19772   5.691   1.117  10.058 -0.4552  1.9568 -1.7163
  174SAPI  H19S19773   5.579   1.014  10.140 -3.3483  0.2475 -0.1413
  174SAPI  C22019774   5.513   1.206  10.085 -0.1736  0.1832  0.3226
  174SAPI  H20R19775   5.528   1.279  10.002  0.8995 -0.9247 -0.4907
  174SAPI  H20S19776   5.555   1.240  10.182  0.5911 -1.9413  0.7651
  174SAPI  H20T19777   5.403   1.189  10.089 -0.1764 -0.0303 -0.5202
  174SAPI   C3319778   6.262   0.884  10.043  0.6444  0.1230 -0.6052
  174SAPI   H3X19779   6.158   0.893  10.081  0.5117  0.0091 -0.9407
  174SAPI   H3Y19780   6.290   0.777  10.054 -0.4474  0.0498  2.1448
  174SAPI   C3419781   6.259   0.939   9.897 -0.2511 -0.3485 -0.1492
  174SAPI   H4X19782   6.356   0.959   9.847 -0.5720  1.0641 -0.2276
  174SAPI   H4Y19783   6.211   1.038   9.906  1.0400  0.3228 -0.4023
  174SAPI   C3519784   6.181   0.839   9.810  0.3469 -0.6208  0.7511
  174SAPI   H5X19785   6.079   0.841   9.855 -0.0082 -0.9220 -0.0343
  174SAPI   H5Y19786   6.222   0.737   9.816  0.2178 -0.8309 -1.3854
  174SAPI   C3619787   6.173   0.884   9.660 -0.0358  0.1104 -0.6094
  174SAPI   H6X19788   6.121   0.807   9.599  1.1316 -0.8176 -0.4678
  174SAPI   H6Y19789   6.281   0.893   9.634  0.1794 -1.7468 -0.4629
  174SAPI   C3719790   6.093   1.017   9.645 -0.3027  0.6007  0.5264
  174SAPI   H7X19791   6.125   1.091   9.722 -0.3807 -1.2614  2.4479
  174SAPI   H7Y19792   5.983   1.007   9.657 -0.7236  2.4112 -1.3349
  174SAPI   C3819793   6.123   1.095   9.512  0.4460 -0.2076 -0.3669
  174SAPI   H8X19794   6.231   1.116   9.493  0.4487 -1.2339 -1.6097
  174SAPI   H8Y19795   6.076   1.195   9.522  2.0495  0.6828 -1.1499
  174SAPI   C3919796   6.076   1.027   9.388  0.5795 -0.1102 -0.3560
  174SAPI   H9X19797   5.971   0.994   9.406  0.0485  1.8154  0.4202
  174SAPI   H9Y19798   6.133   0.934   9.372  0.8314 -0.0766  0.3194
  174SAPI  C31019799   6.088   1.102   9.256  0.1628 -0.3229  0.0944
  174SAPI  H10X19800   6.185   1.142   9.219  0.0436  1.9540  1.9579
  174SAPI  H10Y19801   6.037   1.200   9.270  0.6372 -0.1080  0.3423
  174SAPI  C31119802   6.037   1.013   9.150  0.4591 -0.4921 -0.4204
  174SAPI  H11X19803   5.926   1.020   9.145  0.4673 -0.9889 -1.9536
  174SAPI  H11Y19804   6.061   0.905   9.158 -2.5056 -1.2317 -0.2139
  174SAPI  C31219805   6.095   1.061   9.023 -0.2376  0.1383 -0.8712
  174SAPI  H12X19806   6.206   1.071   9.030 -0.3418  1.0188 -0.1888
  174SAPI  H12Y19807   6.060   1.164   8.999 -1.6998 -0.4503 -1.3498
  174SAPI  C31319808   6.055   0.971   8.908 -0.1546 -0.2397  0.8505
  174SAPI  H13X19809   5.945   0.961   8.895 -0.3523  0.6889  1.6807
  174SAPI  H13Y19810   6.104   0.876   8.935 -0.6635 -0.3168  1.5339
  174SAPI  C31419811   6.117   1.034   8.782  0.3299 -0.4998  0.1448
  174SAPI  H14X19812   6.227   1.043   8.780  0.3036 -0.1629 -1.6870
  174SAPI  H14Y19813   6.086   1.141   8.772 -0.4492 -0.5746  1.4664
  174SAPI  C31519814   6.076   0.955   8.645  0.1728 -0.4422 -0.9044
  174SAPI  H15X19815   6.115   0.853   8.667 -0.1499 -0.4464 -0.3442
  174SAPI  H15Y19816   6.138   0.989   8.559  0.7923  1.4876  0.2321
  174SAPI  C31619817   5.924   0.955   8.620  0.5116  0.1729 -0.7511
  174SAPI  H16X19818   5.883   1.057   8.603 -0.9576  0.0220  1.6094
  174SAPI  H16Y19819   5.867   0.911   8.704  0.4876 -0.0843 -0.9023
  174SAPI  C31719820   5.874   0.875   8.504  0.1850  0.1740  0.7075
  174SAPI  H17X19821   5.767   0.904   8.499  0.3332  0.5054 -0.9928
  174SAPI  H17Y19822   5.861   0.766   8.521  0.9640 -0.0116  0.1755
  174SAPI  C31819823   5.942   0.904   8.373 -0.0145  0.5938 -0.1321
  174SAPI  H18X19824   5.940   1.013   8.351  0.0584  0.9747  1.6038
  174SAPI  H18Y19825   5.894   0.862   8.282 -1.1404 -0.1273  0.7675
  174SAPI  H18Z19826   6.049   0.875   8.382 -0.2570 -0.8037 -1.3697
  175SAPI   C1219827   2.075   2.874   6.442 -0.2651  0.0081  0.2883
  175SAPI    H219828   2.002   2.955   6.419 -0.4306 -0.5586 -1.2690
  175SAPI    O219829   2.093   2.849   6.586  0.1210 -0.2126  0.2652
  175SAPI   HO219830   2.109   2.938   6.619  0.6830 -0.6551  1.2082
  175SAPI   C1319831   2.014   2.755   6.376  0.6598  0.4829 -0.2083
  175SAPI    H319832   1.998   2.775   6.268 -0.5485 -0.4079 -0.2180
  175SAPI    O319833   1.886   2.725   6.434 -0.2556 -0.0884 -0.0606
  175SAPI   HO319834   1.885   2.726   6.530 -2.8120 -1.6203  0.0314
  175SAPI   C1419835   2.101   2.637   6.379 -0.3654  0.4179  0.3629
  175SAPI    H419836   2.119   2.615   6.487  2.0126 -4.3451 -0.7730
  175SAPI    O419837   2.042   2.517   6.323 -0.3417 -0.0377  0.6045
  175SAPI   HO419838   1.975   2.475   6.378 -0.6735 -2.2849 -1.3359
  175SAPI   C1519839   2.242   2.675   6.326 -0.0342  0.5073 -0.2665
  175SAPI    H519840   2.233   2.714   6.222 -0.8029 -1.0330 -0.8095
  175SAPI    O519841   2.322   2.563   6.334 -0.6226  0.1108 -0.8307
  175SAPI   HO519842   2.318   2.517   6.419 -2.0278  0.5442 -0.6367
  175SAPI   C1619843   2.305   2.796   6.401 -0.0594 -0.5091  0.2599
  175SAPI    H619844   2.317   2.769   6.508 -2.2757  3.0461  1.5948
  175SAPI    O619845   2.434   2.832   6.351  0.3827  0.2827  0.1572
  175SAPI   HO619846   2.483   2.874   6.422  1.6287 -0.9455  0.0892
  175SAPI   C1119847   2.215   2.913   6.387 -0.1327 -0.6269  0.2054
  175SAPI    H119848   2.205   2.935   6.279  1.2764  0.7890  0.3273
  175SAPI     P19849   2.203   3.184   6.412 -0.0258  0.5219 -0.1398
  175SAPI   O1319850   2.129   3.184   6.285  0.5588  0.1814  0.3518
  175SAPI   O1419851   2.309   3.288   6.422 -0.1272  0.2765 -0.5907
  175SAPI   O1219852   2.266   3.034   6.448  0.5232 -0.0972  0.4588
  175SAPI   O1119853   2.092   3.199   6.523 -0.1179  0.2390  0.2307
  175SAPI    C119854   2.084   3.300   6.623 -0.0260  0.0602  0.4981
  175SAPI    HA19855   2.170   3.370   6.617 -1.0806  1.2440 -2.1453
  175SAPI    HB19856   1.987   3.354   6.618 -0.9917 -1.6268 -0.1484
  175SAPI    C219857   2.099   3.232   6.758  0.3809 -0.5201 -0.0438
  175SAPI    HS19858   2.120   3.301   6.842 -1.2037  1.7858 -1.4335
  175SAPI   O2119859   2.199   3.128   6.751 -0.1690  0.2634  0.3020
  175SAPI   C2119860   2.317   3.178   6.782 -0.9063  0.1785 -0.2425
  175SAPI   O2219861   2.344   3.297   6.797 -0.2787 -0.6062  0.1283
  175SAPI   C2219862   2.418   3.064   6.794  0.3921 -0.0923  0.6658
  175SAPI   H2R19863   2.449   3.041   6.690 -1.9539 -2.5784  0.4143
  175SAPI   H2S19864   2.504   3.108   6.849  0.9612  2.2584 -1.8575
  175SAPI    C319865   1.971   3.150   6.804  0.1521  0.1441 -0.0477
  175SAPI    HX19866   1.935   3.080   6.725 -1.5346  0.5502  0.3179
  175SAPI    HY19867   1.882   3.215   6.819  0.0263 -0.2609  1.1322
  175SAPI   O3119868   2.002   3.075   6.930  0.3337  0.3383 -0.1633
  175SAPI   C3119869   1.953   2.946   6.929  0.0127  0.7365  0.0089
  175SAPI   O3219870   1.893   2.895   6.839 -0.0636  0.4187  0.3207
  175SAPI   C3219871   1.987   2.872   7.062  0.6442 -0.6423  0.1547
  175SAPI   H2X19872   2.028   2.946   7.133  0.4961  0.3660 -0.7695
  175SAPI   H2Y19873   2.060   2.791   7.039  2.5535  0.4197  2.1209
  175SAPI   C2319874   2.366   2.931   6.855 -0.2885 -0.4384  0.4074
  175SAPI   H3R19875   2.451   2.859   6.856  0.2004  0.1295  2.0686
  175SAPI   H3S19876   2.283   2.887   6.795  1.8837 -2.5574 -1.1971
  175SAPI   C2419877   2.323   2.939   7.008  0.6132  0.2145 -0.3381
  175SAPI   H4R19878   2.290   2.837   7.038  0.9743  0.1025 -0.3184
  175SAPI   H4S19879   2.227   2.995   7.020 -0.1526 -0.2275 -3.4585
  175SAPI   C2519880   2.436   2.973   7.102  0.2090  0.4289 -0.2545
  175SAPI   H5R19881   2.528   2.912   7.101  1.0628  1.6891 -0.5923
  175SAPI   C2619882   2.431   3.071   7.192 -0.1461 -0.0890 -0.3660
  175SAPI   H6R19883   2.510   3.086   7.267 -2.4071  0.0896  2.1364
  175SAPI   C2719884   2.312   3.162   7.208  0.6010  0.2776  0.5906
  175SAPI   H7R19885   2.223   3.095   7.214  0.7161  0.0767  0.1147
  175SAPI   H7S19886   2.296   3.215   7.111  2.1823 -2.2539 -1.1641
  175SAPI   C2819887   2.315   3.259   7.323 -0.5558 -0.4825  0.4540
  175SAPI   H8R19888   2.371   3.348   7.291 -0.1302 -0.8372  0.1890
  175SAPI   C2919889   2.269   3.257   7.450 -0.1823  0.7517  0.8367
  175SAPI   H9R19890   2.289   3.351   7.504 -0.0048  2.4858 -2.0049
  175SAPI  C21019891   2.194   3.150   7.522  0.6584  0.5441 -0.1061
  175SAPI  H10R19892   2.176   3.073   7.445 -2.3215  2.2035 -1.2104
  175SAPI  H10S19893   2.088   3.177   7.535  0.3512 -0.6706  0.0281
  175SAPI  C21119894   2.243   3.086   7.650  0.0796  0.4016 -0.0498
  175SAPI  H11R19895   2.298   2.992   7.636 -1.0655 -0.0747 -1.7410
  175SAPI  C21219896   2.224   3.147   7.766  0.3898 -0.6565  0.2329
  175SAPI  H12R19897   2.264   3.103   7.859 -2.7944  0.4151  2.2679
  175SAPI  C21319898   2.151   3.282   7.797 -0.7764  0.0286  0.4775
  175SAPI  H13R19899   2.143   3.351   7.709  2.4369  0.3603  0.3347
  175SAPI  H13S19900   2.207   3.349   7.866  0.6816  1.4357 -1.9115
  175SAPI  C21419901   2.015   3.256   7.831  0.7840 -0.2697  0.7321
  175SAPI  H14R19902   1.955   3.219   7.747 -0.4915 -0.1187  1.5382
  175SAPI  C21519903   1.958   3.272   7.955 -0.1184 -0.2283  0.6130
  175SAPI  H15R19904   1.850   3.258   7.969 -0.1633  0.1277  0.6204
  175SAPI  C21619905   2.028   3.311   8.084 -0.1451 -0.0911 -0.3550
  175SAPI  H16R19906   1.952   3.348   8.156 -0.2180  0.9985 -0.9773
  175SAPI  H16S19907   2.092   3.400   8.063 -0.6388  0.9182  2.1462
  175SAPI  C21719908   2.121   3.193   8.144  0.1312 -0.5844  0.6188
  175SAPI  H17R19909   2.177   3.142   8.063  0.2892  1.4413 -0.6308
  175SAPI  H17S19910   2.051   3.119   8.188  0.7139 -0.0052  2.6338
  175SAPI  C21819911   2.221   3.251   8.248 -0.0963 -0.1173 -0.6215
  175SAPI  H18R19912   2.154   3.265   8.336 -1.9961 -1.0158 -1.8838
  175SAPI  H18S19913   2.244   3.349   8.201 -1.1536  0.7302  0.5471
  175SAPI  C21919914   2.338   3.151   8.275 -0.4730  0.1691  0.3591
  175SAPI  H19R19915   2.396   3.132   8.182 -0.7335 -1.4442  0.5044
  175SAPI  H19S19916   2.300   3.052   8.309  1.3192  0.0666  2.2693
  175SAPI  C22019917   2.424   3.207   8.389  0.2619  0.3134  0.3015
  175SAPI  H20R19918   2.462   3.310   8.376 -3.1162  2.0151  2.5198
  175SAPI  H20S19919   2.519   3.149   8.391 -0.3408 -0.7706 -0.8141
  175SAPI  H20T19920   2.388   3.210   8.493  1.2129  1.8066  0.6192
  175SAPI   C3319921   1.854   2.809   7.115  0.2506 -1.1415 -0.5389
  175SAPI   H3X19922   1.864   2.700   7.133 -0.1691 -0.9397  1.1137
  175SAPI   H3Y19923   1.768   2.812   7.044 -0.6498 -1.6933  0.4936
  175SAPI   C3419924   1.825   2.872   7.254 -0.0574 -0.3112 -0.0704
  175SAPI   H4X19925   1.791   2.977   7.245  0.9372  0.0782  0.5464
  175SAPI   H4Y19926   1.914   2.869   7.320  1.7963 -2.3599 -2.4241
  175SAPI   C3519927   1.716   2.799   7.334 -0.0288  0.9062  0.5480
  175SAPI   H5X19928   1.756   2.707   7.384  2.7729  2.8708  2.2108
  175SAPI   H5Y19929   1.640   2.764   7.261  0.0864  1.0220  0.3722
  175SAPI   C3619930   1.651   2.887   7.438  0.3255  0.5351 -0.1904
  175SAPI   H6X19931   1.577   2.828   7.496  0.1478  1.6987  0.8222
  175SAPI   H6Y19932   1.595   2.960   7.376 -1.3063 -0.1676  0.3989
  175SAPI   C3719933   1.750   2.972   7.514 -0.4721  0.0068  0.3301
  175SAPI   H7X19934   1.683   3.053   7.550 -0.9727 -0.6744  0.9358
  175SAPI   H7Y19935   1.830   3.028   7.460  0.0485 -1.5455 -0.5706
  175SAPI   C3819936   1.817   2.900   7.632 -0.2874  0.8341  0.3313
  175SAPI   H8X19937   1.923   2.878   7.606 -1.0420 -1.9339 -0.7787
  175SAPI   H8Y19938   1.775   2.798   7.623  0.5878  0.5797 -1.2088
  175SAPI   C3919939   1.792   2.939   7.779 -0.2431 -0.2478  0.7614
  175SAPI   H9X19940   1.682   2.942   7.796 -0.0487  1.4300  2.0197
  175SAPI   H9Y19941   1.823   3.044   7.797  0.0018  0.3751 -2.7281
  175SAPI  C31019942   1.886   2.861   7.881  0.4766  0.0429  0.4189
  175SAPI  H10X19943   1.989   2.868   7.840  0.9167  0.3936  1.5283
  175SAPI  H10Y19944   1.861   2.754   7.869  1.7629  0.0225 -3.1319
  175SAPI  C31119945   1.876   2.891   8.033  0.0480 -0.0115  0.2771
  175SAPI  H11X19946   1.769   2.892   8.061  0.2607 -3.1011  1.6244
  175SAPI  H11Y19947   1.914   2.991   8.061 -0.1201  0.8844 -2.4243
  175SAPI  C31219948   1.956   2.783   8.119  0.3596  0.3736  1.0220
  175SAPI  H12X19949   1.912   2.686   8.086 -2.5812  1.3464  1.7498
  175SAPI  H12Y19950   1.923   2.805   8.223 -1.0829  1.7506  0.3137
  175SAPI  C31319951   2.105   2.793   8.115  0.1814 -0.4112  0.6793
  175SAPI  H13X19952   2.134   2.899   8.131 -0.2268 -0.0011 -1.1305
  175SAPI  H13Y19953   2.140   2.759   8.016  0.1419 -0.5572  0.7149
  175SAPI  C31419954   2.180   2.715   8.216  0.3715  0.1656  0.1820
  175SAPI  H14X19955   2.175   2.777   8.309 -0.0265 -0.3524  0.5156
  175SAPI  H14Y19956   2.289   2.709   8.199  0.0837 -1.2619 -1.4270
  175SAPI  C31519957   2.119   2.579   8.261 -0.2539 -0.4724  0.7579
  175SAPI  H15X19958   2.117   2.511   8.173  1.7814 -0.7458  0.8806
  175SAPI  H15Y19959   2.015   2.584   8.301  0.9844  1.3192  4.1072
  175SAPI  C31619960   2.199   2.517   8.367 -0.2074 -0.5199 -0.0104
  175SAPI  H16X19961   2.200   2.593   8.449  0.4946  0.2662 -0.7272
  175SAPI  H16Y19962   2.302   2.496   8.332 -0.6503 -0.7302 -1.2257
  175SAPI  C31719963   2.121   2.391   8.419 -0.5964  0.0010 -0.2201
  175SAPI  H17X19964   2.096   2.318   8.339  0.3078  1.0800 -1.5404
  175SAPI  H17Y19965   2.037   2.433   8.478  1.8968  2.0030  2.2050
  175SAPI  C31819966   2.196   2.307   8.525  0.0113 -0.3666 -0.1244
  175SAPI  H18X19967   2.282   2.250   8.485 -0.2188 -1.0477  0.3314
  175SAPI  H18Y19968   2.131   2.225   8.564 -0.7296  1.2606  2.2893
  175SAPI  H18Z19969   2.237   2.385   8.592  0.4755  0.7067 -1.6137
  176SAPI   C1219970   2.594   1.420   6.534  0.5258 -0.2488  0.6352
  176SAPI    H219971   2.518   1.483   6.483 -0.8581 -1.4565  1.1329
  176SAPI    O219972   2.550   1.285   6.541  0.3524  0.8166 -0.2701
  176SAPI   HO219973   2.467   1.282   6.493  0.0956  1.3627  0.1176
  176SAPI   C1319974   2.718   1.433   6.443 -0.1638 -0.1853  0.8131
  176SAPI    H319975   2.748   1.540   6.447 -1.1529  0.1312  0.3498
  176SAPI    O319976   2.672   1.399   6.310  0.3465 -0.1982 -0.0859
  176SAPI   HO319977   2.632   1.311   6.307  1.0915 -0.5460 -0.0224
  176SAPI   C1419978   2.832   1.345   6.509  0.9812 -0.7749 -0.2697
  176SAPI    H419979   2.791   1.242   6.519  0.8544 -0.6803  0.1858
  176SAPI    O419980   2.944   1.343   6.425  0.3377  0.1760  0.5680
  176SAPI   HO419981   2.985   1.429   6.437  0.2517  0.5247 -1.3240
  176SAPI   C1519982   2.872   1.400   6.639  0.6151 -0.1417 -0.1164
  176SAPI    H519983   2.898   1.508   6.632 -0.5665  0.4946  3.3439
  176SAPI    O519984   2.978   1.329   6.702 -0.3263  0.3632  0.3509
  176SAPI   HO519985   3.037   1.295   6.634 -2.2789 -1.8508 -0.3495
  176SAPI   C1619986   2.748   1.404   6.736  0.7099 -0.1532 -0.4999
  176SAPI    H619987   2.722   1.298   6.758 -0.8691  0.0270 -1.3363
  176SAPI    O619988   2.784   1.480   6.853  0.1006 -0.0755  0.1524
  176SAPI   HO619989   2.711   1.477   6.914 -0.4749  0.9191 -0.4655
  176SAPI   C1119990   2.620   1.473   6.676 -0.8659  0.0755 -0.5702
  176SAPI    H119991   2.644   1.581   6.665 -2.4077  0.4144 -0.8868
  176SAPI     P19992   2.372   1.536   6.754  0.1128  0.0070 -0.1162
  176SAPI   O1319993   2.255   1.452   6.790 -0.1731 -0.5411  0.2479
  176SAPI   O1419994   2.363   1.612   6.628  0.9053  0.1394 -0.6436
  176SAPI   O1219995   2.508   1.447   6.770  0.6463  0.0641  0.2434
  176SAPI   O1119996   2.397   1.640   6.871 -0.2933  0.5237 -0.1684
  176SAPI    C119997   2.517   1.717   6.902 -0.0670 -0.5039 -0.6677
  176SAPI    HA19998   2.613   1.676   6.864  1.2117  1.7208 -0.0255
  176SAPI    HB19999   2.502   1.813   6.848 -1.0392  0.3329  1.0145
  176SAPI    C220000   2.533   1.762   7.051  0.3252 -0.0272 -0.1888
  176SAPI    HS20001   2.637   1.745   7.086  0.0758 -0.0243  0.5719
  176SAPI   O2120002   2.445   1.691   7.133  0.0572 -0.2717  0.6259
  176SAPI   C2120003   2.476   1.566   7.150 -0.4563 -0.0010 -0.2516
  176SAPI   O2220004   2.570   1.505   7.098 -0.1375  0.3664 -0.1496
  176SAPI   C2220005   2.372   1.500   7.241 -0.8672 -0.6001 -0.4983
  176SAPI   H2R20006   2.283   1.493   7.175 -3.5312 -0.1250  2.7470
  176SAPI   H2S20007   2.401   1.396   7.266 -1.3974 -0.9076 -1.1369
  176SAPI    C320008   2.514   1.911   7.063 -0.7790 -0.8694 -0.0499
  176SAPI    HX20009   2.406   1.929   7.040 -0.3858 -1.5687 -2.7609
  176SAPI    HY20010   2.582   1.954   6.987  0.2374 -1.6740  0.3829
  176SAPI   O3120011   2.537   1.961   7.197  0.0885 -0.0247 -0.6359
  176SAPI   C3120012   2.664   1.964   7.227 -0.4839 -0.1648  0.4749
  176SAPI   O3220013   2.761   1.950   7.153 -0.1177 -0.1136 -0.6829
  176SAPI   C3220014   2.672   1.996   7.384  0.7187 -0.3186 -0.0132
  176SAPI   H2X20015   2.609   1.919   7.435 -0.2622  0.6107  0.2240
  176SAPI   H2Y20016   2.631   2.098   7.397  1.6299 -0.1493  1.9146
  176SAPI   C2320017   2.329   1.579   7.366 -0.3382 -0.6417 -0.6573
  176SAPI   H3R20018   2.235   1.532   7.403 -0.4965 -0.1160 -0.3912
  176SAPI   H3S20019   2.290   1.676   7.330  0.4624 -0.1276 -0.1840
  176SAPI   C2420020   2.436   1.597   7.482  0.5797 -0.1109  0.3066
  176SAPI   H4R20021   2.513   1.672   7.456  1.0465 -0.4104  0.7984
  176SAPI   H4S20022   2.490   1.502   7.500  1.0115 -0.3362 -1.9658
  176SAPI   C2520023   2.358   1.634   7.605  1.0111 -0.4609 -0.5326
  176SAPI   H5R20024   2.263   1.582   7.625  1.0419  0.4622  2.4988
  176SAPI   C2620025   2.398   1.722   7.704 -0.3410  0.5079  0.2068
  176SAPI   H6R20026   2.348   1.717   7.802 -1.4625  0.2066 -0.3738
  176SAPI   C2720027   2.533   1.799   7.698 -0.2648  0.6525 -0.4261
  176SAPI   H7R20028   2.513   1.889   7.637 -2.1277  0.2941 -0.3855
  176SAPI   H7S20029   2.615   1.740   7.651  0.1542 -0.5133  1.6120
  176SAPI   C2820030   2.597   1.825   7.837  0.1676 -0.3047 -0.5025
  176SAPI   H8R20031   2.670   1.749   7.867  1.8906  1.0354 -1.1424
  176SAPI   C2920032   2.560   1.924   7.925 -0.5031 -0.7548 -0.1487
  176SAPI   H9R20033   2.611   1.930   8.022  1.2337 -3.2626 -0.7880
  176SAPI  C21020034   2.451   2.030   7.904 -0.6208  0.0895 -0.0326
  176SAPI  H10R20035   2.453   2.057   7.796  2.1670  0.2807 -0.0056
  176SAPI  H10S20036   2.478   2.125   7.953  1.6346  0.2443 -1.4231
  176SAPI  C21120037   2.309   1.986   7.936  0.6133  0.0576 -0.6586
  176SAPI  H11R20038   2.294   1.889   7.986  0.4827  0.3293 -0.1596
  176SAPI  C21220039   2.195   2.054   7.915 -0.1854 -0.0970  0.6125
  176SAPI  H12R20040   2.097   2.014   7.946 -0.8124  0.9069 -0.0113
  176SAPI  C21320041   2.189   2.184   7.845 -0.1576  0.3235  0.0666
  176SAPI  H13R20042   2.090   2.181   7.794 -1.3140 -0.7896  2.2127
  176SAPI  H13S20043   2.274   2.191   7.775 -1.1946  0.5733 -1.2061
  176SAPI  C21420044   2.170   2.309   7.926  0.2585  0.4656 -0.5850
  176SAPI  H14R20045   2.179   2.299   8.035  2.4188  0.7397 -0.6852
  176SAPI  C21520046   2.135   2.431   7.874 -0.3846 -0.1949  0.2135
  176SAPI  H15R20047   2.126   2.511   7.949  1.3811 -1.0873  1.4532
  176SAPI  C21620048   2.120   2.469   7.728 -0.0488 -0.0519  0.6809
  176SAPI  H16R20049   2.013   2.450   7.705 -0.2906  1.4164  0.4576
  176SAPI  H16S20050   2.178   2.417   7.649 -0.7332 -1.5868  1.1703
  176SAPI  C21720051   2.158   2.624   7.725 -0.2599 -0.2135  0.0892
  176SAPI  H17R20052   2.259   2.648   7.764  0.0961  1.6447 -1.7458
  176SAPI  H17S20053   2.084   2.674   7.791 -0.7869 -1.8467  0.7704
  176SAPI  C21820054   2.165   2.692   7.584 -0.0826  0.4098  0.8435
  176SAPI  H18R20055   2.175   2.803   7.592  2.4133  0.3076  0.2077
  176SAPI  H18S20056   2.071   2.679   7.527 -0.4603  2.7574  0.8342
  176SAPI  C21920057   2.277   2.629   7.500  0.0506 -0.2988  0.2103
  176SAPI  H19R20058   2.251   2.523   7.479 -1.3946  0.1070 -0.1521
  176SAPI  H19S20059   2.370   2.634   7.560 -0.2534  1.4646  0.6014
  176SAPI  C22020060   2.305   2.702   7.368 -0.3845 -0.6480 -0.0364
  176SAPI  H20R20061   2.336   2.807   7.387  0.2574  0.0088 -3.8327
  176SAPI  H20S20062   2.218   2.692   7.300  0.2696  2.6844 -1.5684
  176SAPI  H20T20063   2.392   2.653   7.320  0.5771 -0.0465  1.0365
  176SAPI   C3320064   2.820   1.985   7.437  0.2507  0.1614 -0.6064
  176SAPI   H3X20065   2.836   2.061   7.517 -1.1345 -0.8947  0.7366
  176SAPI   H3Y20066   2.892   2.022   7.361 -0.3569 -1.6048 -2.1091
  176SAPI   C3420067   2.867   1.851   7.487 -0.7240 -0.6988 -0.3600
  176SAPI   H4X20068   2.825   1.770   7.425  1.6852 -2.3515  0.0348
  176SAPI   H4Y20069   2.814   1.840   7.585  0.1218 -1.0251  0.0724
  176SAPI   C3520070   3.022   1.848   7.491  0.5611 -0.0433  0.1519
  176SAPI   H5X20071   3.051   1.893   7.394 -0.3043  0.3027  0.0420
  176SAPI   H5Y20072   3.059   1.744   7.498  1.0742  0.0651 -0.7737
  176SAPI   C3620073   3.075   1.939   7.605 -0.0860 -0.4560 -0.2313
  176SAPI   H6X20074   3.049   2.044   7.580 -0.7609 -0.4245  0.5705
  176SAPI   H6Y20075   3.185   1.925   7.608  0.0367  0.6552  1.5878
  176SAPI   C3720076   3.028   1.897   7.744 -0.8331  0.0740  0.0777
  176SAPI   H7X20077   3.040   1.788   7.761 -1.9649  0.0208  0.6477
  176SAPI   H7Y20078   2.919   1.911   7.756 -1.0545 -2.0730  1.0715
  176SAPI   C3820079   3.111   1.975   7.852  0.3396  0.3125 -0.2313
  176SAPI   H8X20080   3.039   1.988   7.936 -0.1785  2.6849 -0.9626
  176SAPI   H8Y20081   3.137   2.074   7.811  1.4726  0.5600  1.0440
  176SAPI   C3920082   3.231   1.885   7.905  0.0438  0.7261  0.1639
  176SAPI   H9X20083   3.293   1.857   7.817 -0.4988  0.9405 -0.2894
  176SAPI   H9Y20084   3.190   1.793   7.952  4.4137 -0.7536  1.6423
  176SAPI  C31020085   3.298   1.966   8.009  0.3864 -0.1403  0.2134
  176SAPI  H10X20086   3.231   2.043   8.054  0.8262 -0.9352  2.3321
  176SAPI  H10Y20087   3.379   2.019   7.954 -0.2474  1.2825  0.6053
  176SAPI  C31120088   3.367   1.892   8.121 -0.5562  0.9532  0.0151
  176SAPI  H11X20089   3.382   1.972   8.196 -1.1828  0.0252  1.1659
  176SAPI  H11Y20090   3.455   1.837   8.081 -1.9146  0.2986 -2.2117
  176SAPI  C31220091   3.282   1.785   8.191 -0.0993 -0.1307  0.4147
  176SAPI  H12X20092   3.251   1.709   8.116  0.3123 -0.8951  1.0070
  176SAPI  H12Y20093   3.182   1.826   8.219 -0.1103  1.2366 -1.4478
  176SAPI  C31320094   3.341   1.701   8.303 -0.2499 -0.6509 -0.6331
  176SAPI  H13X20095   3.387   1.759   8.385 -0.6465 -1.0812 -0.0992
  176SAPI  H13Y20096   3.423   1.638   8.264  0.6874 -1.6136  2.5721
  176SAPI  C31420097   3.235   1.602   8.356  0.0492  0.0303  0.3989
  176SAPI  H14X20098   3.166   1.565   8.278 -0.2541 -1.1218  1.1933
  176SAPI  H14Y20099   3.175   1.659   8.430 -1.1341 -1.0602  0.3254
  176SAPI  C31520100   3.282   1.490   8.444 -0.2463  0.7303  0.0849
  176SAPI  H15X20101   3.325   1.545   8.530 -2.6911  0.1262  1.7944
  176SAPI  H15Y20102   3.366   1.430   8.402 -0.3369 -0.2422  1.2346
  176SAPI  C31620103   3.163   1.405   8.496 -0.5045 -0.2298  0.0668
  176SAPI  H16X20104   3.127   1.344   8.411  1.6316  0.7579 -1.6450
  176SAPI  H16Y20105   3.084   1.481   8.516  1.7436  1.8751  1.6618
  176SAPI  C31720106   3.202   1.311   8.610  0.2038  0.2250 -0.2276
  176SAPI  H17X20107   3.222   1.378   8.697 -2.3410 -0.7850  1.2436
  176SAPI  H17Y20108   3.299   1.261   8.588 -0.1172 -1.4518  1.8133
  176SAPI  C31820109   3.095   1.208   8.645 -0.0844 -0.2796  0.0005
  176SAPI  H18X20110   3.083   1.137   8.560  0.4099 -2.0535  1.3643
  176SAPI  H18Y20111   2.996   1.254   8.668 -0.0751  0.0955 -0.6819
  176SAPI  H18Z20112   3.113   1.141   8.732  0.6980  1.3915  1.1685
  177SLPC     N20113   0.705   5.448  10.649  0.0198 -0.0610  0.1423
  177SLPC   C1320114   0.808   5.365  10.724  0.2433 -0.3520 -0.6849
  177SLPC  H13A20115   0.898   5.423  10.732 -0.4697  0.6088  1.1365
  177SLPC  H13B20116   0.774   5.328  10.820  1.5621 -0.5944 -0.2983
  177SLPC  H13C20117   0.828   5.271  10.676  1.5161  0.6174 -2.1256
  177SLPC   C1420118   0.568   5.381  10.668 -0.1995  0.0291 -0.0789
  177SLPC  H14A20119   0.550   5.376  10.774 -0.9999 -1.1290 -0.2537
  177SLPC  H14B20120   0.483   5.430  10.623 -0.5380  0.6297  1.1864
  177SLPC  H14C20121   0.570   5.278  10.635 -2.2007 -0.0459 -0.0924
  177SLPC   C1520122   0.736   5.451  10.503  0.3007  0.2382 -0.2290
  177SLPC  H15A20123   0.657   5.501  10.449 -0.3890  0.2224  0.7405
  177SLPC  H15B20124   0.830   5.500  10.485  0.5724  0.7254  2.2098
  177SLPC  H15C20125   0.748   5.351  10.463 -1.5227  1.1374 -3.4473
  177SLPC   C1220126   0.698   5.586  10.712  0.7854 -0.4310 -0.1615
  177SLPC  H12A20127   0.614   5.639  10.670 -0.1502 -1.9814 -0.3169
  177SLPC  H12B20128   0.780   5.652  10.687 -1.1442  1.4382 -1.9898
  177SLPC   C1120129   0.673   5.595  10.867 -0.0977 -0.0537  0.2949
  177SLPC  H11A20130   0.705   5.694  10.904  0.6230  0.5975 -1.8875
  177SLPC  H11B20131   0.748   5.530  10.918  0.6233  1.3722  1.0972
  177SLPC     P20132   0.424   5.663  10.894 -0.1692  0.4288 -0.1131
  177SLPC   O1320133   0.295   5.610  10.942  0.0049 -1.1324 -0.2686
  177SLPC   O1420134   0.470   5.792  10.957  0.2880  0.1915 -0.4922
  177SLPC   O1220135   0.540   5.557  10.908 -0.0855  0.1849  0.4739
  177SLPC   O1120136   0.416   5.678  10.739  0.0692  0.1859  0.8689
  177SLPC    C120137   0.334   5.766  10.664 -0.1979  0.8528 -0.5784
  177SLPC    HA20138   0.236   5.716  10.645 -0.2243  0.9495 -0.7018
  177SLPC    HB20139   0.314   5.848  10.736 -2.5924 -1.2210  1.3438
  177SLPC    C220140   0.394   5.809  10.527  0.1461 -1.0145 -0.6497
  177SLPC    HS20141   0.331   5.880  10.469  0.4267 -1.1362 -1.1091
  177SLPC   O2120142   0.421   5.691  10.446 -0.4009 -0.1171  0.0852
  177SLPC   C2120143   0.315   5.644  10.381  0.0223  0.3131  0.2821
  177SLPC   O2220144   0.204   5.697  10.374  0.6021 -0.2651 -0.0751
  177SLPC   C2220145   0.348   5.524  10.301  0.8088  0.2487  0.0399
  177SLPC   H2R20146   0.455   5.498  10.310  1.5727  2.2542 -2.3304
  177SLPC   H2S20147   0.274   5.444  10.326  0.0084  1.0224  0.1988
  177SLPC    C320148   0.537   5.880  10.551  0.8243 -0.8532  0.0440
  177SLPC    HX20149   0.598   5.803  10.602 -0.0710 -2.2342 -0.8967
  177SLPC    HY20150   0.520   5.973  10.609  1.9608  1.0812 -2.5379
  177SLPC   O3120151   0.589   5.932  10.425  0.2990  0.2958  0.2724
  177SLPC   C3120152   0.686   5.855  10.374  0.4673  0.2870 -0.4020
  177SLPC   O3220153   0.729   5.750  10.425 -0.1668 -0.3786  0.1174
  177SLPC   C3220154   0.730   5.914  10.243  0.2842  0.0666 -0.0585
  177SLPC   H2X20155   0.789   6.007  10.262  1.2174 -0.7807  1.3265
  177SLPC   H2Y20156   0.637   5.947  10.193  0.1585  4.3283  2.4168
  177SLPC   C2320157   0.314   5.555  10.153 -0.3939 -0.0906  0.1857
  177SLPC   H3R20158   0.217   5.606  10.136  1.3508  2.8273 -1.9770
  177SLPC   H3S20159   0.298   5.457  10.102  0.8650 -0.9970  1.4622
  177SLPC   C2420160   0.434   5.629  10.082  0.5751  0.1937  0.3887
  177SLPC   H4R20161   0.524   5.567  10.061  1.0018  1.1893 -0.9025
  177SLPC   H4S20162   0.465   5.705  10.158  0.4065 -0.6020  1.2698
  177SLPC   C2520163   0.382   5.720   9.961  0.5110 -0.6288 -0.6515
  177SLPC   H5R20164   0.452   5.806   9.952  0.7798 -0.9495 -1.8383
  177SLPC   H5S20165   0.280   5.758   9.984  1.0363 -0.2632  1.2951
  177SLPC   C2620166   0.391   5.648   9.826  0.0624  1.0895  0.4709
  177SLPC   H6R20167   0.316   5.566   9.832  0.5249  0.7172  1.3768
  177SLPC   H6S20168   0.487   5.594   9.809  0.5617  1.0362  3.0748
  177SLPC   C2720169   0.353   5.735   9.708  0.1754 -0.0362 -0.0202
  177SLPC   H7R20170   0.426   5.818   9.693  0.3020 -0.0145  0.6799
  177SLPC   H7S20171   0.262   5.794   9.729  0.4589  1.4225 -2.5179
  177SLPC   C2820172   0.350   5.665   9.565  0.3942 -0.1867 -0.3960
  177SLPC   H8R20173   0.451   5.631   9.536  0.7151  1.0197 -0.7849
  177SLPC   H8S20174   0.340   5.743   9.486 -3.2677  1.4890  1.4553
  177SLPC   C2920175   0.250   5.553   9.574  0.0277 -0.5790 -0.5512
  177SLPC   H9R20176   0.143   5.579   9.565  0.2145  0.0433 -1.0076
  177SLPC  C21020177   0.273   5.424   9.589  0.1025 -0.4900  0.1947
  177SLPC  H10R20178   0.183   5.363   9.601  0.0994 -1.7645 -4.4052
  177SLPC  C21120179   0.405   5.348   9.604  0.1583  0.2049  0.9143
  177SLPC  H11R20180   0.476   5.400   9.535  0.5447  0.1820  1.2940
  177SLPC  H11S20181   0.439   5.366   9.708 -1.8697 -0.4584  1.7420
  177SLPC  C21220182   0.392   5.199   9.580  0.7692  0.4300  0.0297
  177SLPC  H12R20183   0.342   5.173   9.485  0.7286 -1.6178  0.5662
  177SLPC  C21320184   0.445   5.105   9.660  0.3540  0.1525 -0.7192
  177SLPC  H13R20185   0.423   5.000   9.637  0.2524  0.1980 -0.8324
  177SLPC  C21420186   0.520   5.122   9.785  0.2106  0.2028  0.2833
  177SLPC  H14R20187   0.606   5.192   9.777  0.4969 -0.3315 -2.0010
  177SLPC  H14S20188   0.567   5.024   9.808 -1.3353 -0.5907  0.2186
  177SLPC  C21520189   0.435   5.164   9.910  0.2052  0.3405 -0.6856
  177SLPC  H15R20190   0.383   5.072   9.944 -1.1362  1.8209  1.4933
  177SLPC  H15S20191   0.364   5.248   9.896 -1.1343 -0.2034  2.0997
  177SLPC  C21620192   0.533   5.199  10.021 -0.3213  1.0393 -0.6093
  177SLPC  H16R20193   0.583   5.295   9.997 -2.4938  2.7667  1.3601
  177SLPC  H16S20194   0.612   5.121  10.028 -0.5426  0.7825 -0.9246
  177SLPC  C21720195   0.473   5.216  10.162 -0.3015 -0.3660 -0.3677
  177SLPC  H17R20196   0.413   5.122  10.162  1.6069 -1.6496 -1.6875
  177SLPC  H17S20197   0.409   5.306  10.153 -1.6831 -1.3886 -1.0798
  177SLPC  C21820198   0.574   5.230  10.277  0.1688 -0.1038 -0.6845
  177SLPC  H18R20199   0.512   5.243  10.368  1.5701  0.4165  0.2278
  177SLPC  H18S20200   0.642   5.318  10.267 -1.7332  1.7007  1.2027
  177SLPC  H18T20201   0.621   5.131  10.294  0.5906  0.6469  3.8056
  177SLPC   C3320202   0.814   5.817  10.162 -0.2735  0.4208  0.3821
  177SLPC   H3X20203   0.792   5.713  10.193 -0.3310  0.0945 -0.7166
  177SLPC   H3Y20204   0.919   5.834  10.196  0.1713  2.4043 -1.7095
  177SLPC   C3420205   0.784   5.823  10.017 -0.5875  0.0506  0.5930
  177SLPC   H4X20206   0.679   5.802   9.990 -0.1168 -0.7109 -0.7760
  177SLPC   H4Y20207   0.849   5.753   9.960 -0.5457 -0.4565  1.2499
  177SLPC   C3520208   0.816   5.954   9.961  0.2403 -0.2180 -0.3520
  177SLPC   H5X20209   0.913   5.986  10.006  1.1689  0.7356 -2.8938
  177SLPC   H5Y20210   0.738   6.031   9.981 -0.1932  0.0404 -2.7491
  177SLPC   C3620211   0.854   5.957   9.811  0.2645  0.8765  0.3450
  177SLPC   H6X20212   0.923   5.873   9.787 -1.4637 -0.2399 -1.0095
  177SLPC   H6Y20213   0.902   6.054   9.786  1.1569  0.4289  0.2689
  177SLPC   C3720214   0.731   5.944   9.725 -0.0690  0.4842  0.2933
  177SLPC   H7X20215   0.667   6.033   9.743 -0.5916 -0.4207  3.5086
  177SLPC   H7Y20216   0.667   5.859   9.758  0.8409 -0.9815 -1.5251
  177SLPC   C3820217   0.764   5.927   9.572  0.0768 -1.0262  0.6775
  177SLPC   H8X20218   0.824   5.836   9.553 -0.0218 -0.8401 -0.5989
  177SLPC   H8Y20219   0.833   6.005   9.534  1.8938 -2.7675  0.2806
  177SLPC   C3920220   0.640   5.908   9.482 -0.0195  0.4332  0.0835
  177SLPC   H9X20221   0.571   5.992   9.505 -2.9533 -1.0122 -2.6478
  177SLPC   H9Y20222   0.595   5.814   9.519  0.5378  0.9130  2.1259
  177SLPC  C31020223   0.666   5.903   9.326  0.1164  0.2580  0.5140
  177SLPC  H10X20224   0.726   5.988   9.289 -0.3496  1.5854  2.5992
  177SLPC  H10Y20225   0.565   5.897   9.279 -0.5299 -2.1306  2.0361
  177SLPC  C31120226   0.732   5.774   9.287  0.1253  0.0562 -0.2398
  177SLPC  H11X20227   0.670   5.685   9.307 -0.4384  0.8773  1.9731
  177SLPC  H11Y20228   0.832   5.761   9.334  1.4692  0.5420 -2.7632
  177SLPC  C31220229   0.751   5.755   9.132  0.0639  0.8243 -0.7357
  177SLPC  H12X20230   0.657   5.792   9.086 -1.2327 -0.7223  0.5314
  177SLPC  H12Y20231   0.761   5.647   9.106  0.1879  0.8264 -0.6993
  177SLPC  C31320232   0.878   5.823   9.073 -0.0323 -0.6286  0.2780
  177SLPC  H13X20233   0.973   5.788   9.119 -0.0747 -0.2037  0.7048
  177SLPC  H13Y20234   0.879   5.932   9.098  2.3754  0.1698 -2.6431
  177SLPC  C31420235   0.872   5.803   8.921  0.2067 -0.0654  0.0600
  177SLPC  H14X20236   0.805   5.887   8.895 -0.3768 -0.2244  0.9966
  177SLPC  H14Y20237   0.840   5.700   8.891  1.6802 -0.6994  0.5467
  177SLPC  C31520238   1.006   5.823   8.853  0.1433  0.4301  0.6120
  177SLPC  H15X20239   1.065   5.906   8.897  0.8389  0.0106  0.4880
  177SLPC  H15Y20240   0.984   5.848   8.748  1.3561 -1.0165 -0.0307
  177SLPC  C31620241   1.083   5.700   8.822 -0.1779  0.5857 -0.3420
  177SLPC  H16X20242   1.017   5.626   8.771 -0.3932  0.7713 -0.3310
  177SLPC  H16Y20243   1.113   5.634   8.906 -0.9784 -0.6240 -0.9636
  177SLPC  C31720244   1.208   5.731   8.734  0.0922 -0.0460  0.3239
  177SLPC  H17X20245   1.188   5.805   8.654  2.7309 -0.9292 -1.3024
  177SLPC  H17Y20246   1.240   5.633   8.692 -0.2533  0.0757 -0.2349
  177SLPC  C31820247   1.329   5.785   8.821 -0.0365 -0.2460  0.7148
  177SLPC  H18X20248   1.315   5.741   8.922  2.1631 -0.8543  0.8067
  177SLPC  H18Y20249   1.314   5.895   8.820 -0.0067 -0.2357  1.2881
  177SLPC  H18Z20250   1.426   5.754   8.776 -0.1817 -0.8875  0.8437
  178SLPC     N20251   4.049   2.141  11.227  0.7734  0.4261 -0.8041
  178SLPC   C1320252   4.183   2.076  11.209  0.2236  0.0252 -0.3967
  178SLPC  H13A20253   4.174   1.969  11.222 -0.9963  0.4038  2.4576
  178SLPC  H13B20254   4.229   2.095  11.113  0.5211 -0.6760 -0.4034
  178SLPC  H13C20255   4.250   2.111  11.286  2.8033 -0.2808 -2.3220
  178SLPC   C1420256   4.057   2.285  11.206  0.2301 -0.3263  0.4967
  178SLPC  H14A20257   3.959   2.327  11.192  1.2465  1.1806 -3.5434
  178SLPC  H14B20258   4.127   2.338  11.270 -0.3403 -0.2832  1.1030
  178SLPC  H14C20259   4.097   2.298  11.107  0.4674  0.2444  0.6657
  178SLPC   C1520260   4.019   2.118  11.372  0.1947  0.2016 -0.0871
  178SLPC  H15A20261   3.929   2.168  11.404 -0.0537 -1.2675  1.6790
  178SLPC  H15B20262   4.018   2.010  11.383  1.9364  0.2875  1.3163
  178SLPC  H15C20263   4.089   2.155  11.444  1.0948  0.3660 -1.0260
  178SLPC   C1220264   3.943   2.081  11.132 -0.8739  0.1279  0.3475
  178SLPC  H12A20265   3.852   2.130  11.162 -0.3514  0.6668  1.0974
  178SLPC  H12B20266   3.936   1.979  11.166 -0.2105 -0.8251 -2.1384
  178SLPC   C1120267   3.961   2.083  10.980  0.0609 -0.1119 -1.3557
  178SLPC  H11A20268   3.885   2.014  10.936  0.1856 -1.4360  0.3797
  178SLPC  H11B20269   4.054   2.026  10.957  1.6400  0.8495  2.0297
  178SLPC     P20270   3.825   2.300  10.895  0.3236  0.0182  0.0329
  178SLPC   O1320271   3.706   2.209  10.916 -0.1846  0.3625  0.0307
  178SLPC   O1420272   3.820   2.422  10.981  0.2356  0.1409  0.0158
  178SLPC   O1220273   3.954   2.215  10.923 -0.7202 -0.8543 -0.1143
  178SLPC   O1120274   3.842   2.337  10.743 -0.0351 -0.3925 -0.3840
  178SLPC    C120275   3.924   2.442  10.699 -0.2321  0.0637 -0.4107
  178SLPC    HA20276   3.903   2.533  10.760 -4.0257 -1.2066  0.4336
  178SLPC    HB20277   4.029   2.409  10.715 -0.2454 -0.7094 -1.8431
  178SLPC    C220278   3.916   2.488  10.550 -0.1316 -0.3856  0.3894
  178SLPC    HS20279   3.868   2.588  10.553  0.7755  0.3590 -3.9367
  178SLPC   O2120280   3.837   2.399  10.472 -0.5147  0.7146 -0.4024
  178SLPC   C2120281   3.753   2.451  10.385 -0.3026 -0.0563  0.3767
  178SLPC   O2220282   3.735   2.569  10.371  0.0438  0.4367 -0.7283
  178SLPC   C2220283   3.690   2.336  10.304  0.1959  0.4504 -0.1895
  178SLPC   H2R20284   3.775   2.270  10.275  1.6670  2.3733 -0.4563
  178SLPC   H2S20285   3.615   2.288  10.371 -0.4002  1.4540 -0.1250
  178SLPC    C320286   4.046   2.501  10.477 -0.1012  0.0641  0.1147
  178SLPC    HX20287   4.095   2.403  10.494  1.0171  0.6050  0.0787
  178SLPC    HY20288   4.117   2.575  10.519 -0.1599 -0.6455  1.5051
  178SLPC   O3120289   4.038   2.531  10.333  0.2952  0.2779  0.3713
  178SLPC   C3120290   4.018   2.657  10.293 -0.5936  0.3180  0.7982
  178SLPC   O3220291   4.018   2.754  10.364  0.8620  0.0607  0.8793
  178SLPC   C3220292   4.015   2.656  10.141  0.0823  0.4660 -0.5277
  178SLPC   H2X20293   3.923   2.605  10.105 -1.2577  0.8666  2.1272
  178SLPC   H2Y20294   4.106   2.599  10.113 -1.2451 -1.7108 -0.6829
  178SLPC   C2320295   3.619   2.395  10.176 -0.6754 -0.4359 -0.1707
  178SLPC   H3R20296   3.701   2.446  10.120  0.5698 -2.3720 -0.2027
  178SLPC   H3S20297   3.539   2.467  10.202 -3.0843 -2.3598 -1.7912
  178SLPC   C2420298   3.572   2.282  10.088  0.6438 -0.1194 -0.5148
  178SLPC   H4R20299   3.506   2.220  10.152  1.5351 -0.8887 -0.3166
  178SLPC   H4S20300   3.650   2.212  10.050 -1.4771 -2.3149 -1.1167
  178SLPC   C2520301   3.493   2.327   9.961  0.4224  0.0491 -0.2468
  178SLPC   H5R20302   3.559   2.388   9.895 -1.7544  2.4825 -0.3161
  178SLPC   H5S20303   3.408   2.392   9.989  0.2254 -0.2530 -0.1405
  178SLPC   C2620304   3.437   2.210   9.877  0.7122 -0.0665 -0.0733
  178SLPC   H6R20305   3.389   2.134   9.942  1.7002  0.5531  1.4661
  178SLPC   H6S20306   3.526   2.164   9.829  1.6589  0.6431  0.9450
  178SLPC   C2720307   3.333   2.246   9.770  0.7458 -0.0724 -0.6426
  178SLPC   H7R20308   3.255   2.306   9.822  1.5919  0.2553  0.2603
  178SLPC   H7S20309   3.280   2.153   9.739 -0.9022  0.3466  0.7265
  178SLPC   C2820310   3.399   2.310   9.643 -1.0110 -0.2004 -0.0544
  178SLPC   H8R20311   3.479   2.377   9.681  0.8939 -2.1637 -0.4187
  178SLPC   H8S20312   3.324   2.366   9.583 -0.6344  0.4371  0.0604
  178SLPC   C2920313   3.472   2.208   9.551  0.0594 -0.6903 -0.2660
  178SLPC   H9R20314   3.529   2.136   9.612  2.4216  1.4717  0.2428
  178SLPC  C21020315   3.459   2.187   9.421  0.2095  0.5344  0.0000
  178SLPC  H10R20316   3.519   2.109   9.373 -2.3853 -0.3918 -2.0226
  178SLPC  C21120317   3.370   2.271   9.330 -0.0448  0.1434  0.4989
  178SLPC  H11R20318   3.285   2.311   9.389 -0.5291 -1.3421  0.8677
  178SLPC  H11S20319   3.330   2.212   9.245 -1.0568  0.6595  0.6130
  178SLPC  C21220320   3.451   2.386   9.273 -0.0507  0.0648 -0.1726
  178SLPC  H12R20321   3.477   2.465   9.346  0.1274  1.5863 -1.7974
  178SLPC  C21320322   3.479   2.416   9.148  0.0179 -0.4116 -0.1214
  178SLPC  H13R20323   3.531   2.512   9.130 -1.2765  0.1923 -0.7573
  178SLPC  C21420324   3.453   2.333   9.024 -0.1406  0.1231 -0.3517
  178SLPC  H14R20325   3.455   2.226   9.054  1.3297  0.0752 -0.5449
  178SLPC  H14S20326   3.542   2.329   8.957  0.1697  2.5558 -0.1525
  178SLPC  C21520327   3.337   2.370   8.937  0.5494 -0.2874 -0.6927
  178SLPC  H15R20328   3.251   2.418   8.989 -1.1702 -2.6456 -1.1795
  178SLPC  H15S20329   3.287   2.275   8.908  0.4446 -0.7145  0.7978
  178SLPC  C21620330   3.383   2.442   8.811  0.0969 -0.5315  0.8407
  178SLPC  H16R20331   3.441   2.372   8.748 -1.3788 -0.5667 -0.5415
  178SLPC  H16S20332   3.447   2.525   8.848  1.1581 -0.6556 -0.6474
  178SLPC  C21720333   3.264   2.481   8.722 -0.5691  0.3543 -0.3056
  178SLPC  H17R20334   3.209   2.569   8.762  2.1727  0.2782  4.3963
  178SLPC  H17S20335   3.192   2.397   8.706 -1.3133  1.0098 -0.4260
  178SLPC  C21820336   3.317   2.525   8.585  0.2155 -0.1217 -0.1476
  178SLPC  H18R20337   3.383   2.615   8.590 -2.2017  1.6931  1.3414
  178SLPC  H18S20338   3.232   2.554   8.521 -0.1312  1.1529  0.8460
  178SLPC  H18T20339   3.375   2.441   8.541 -1.0590 -0.4796 -1.1967
  178SLPC   C3320340   4.013   2.795  10.069 -0.0150  0.4256  0.1516
  178SLPC   H3X20341   4.095   2.856  10.112 -0.6706  0.6243  1.1452
  178SLPC   H3Y20342   3.917   2.841  10.099 -2.1372 -0.9519 -3.7846
  178SLPC   C3420343   4.014   2.790   9.919 -0.0577  0.3828  0.6128
  178SLPC   H4X20344   3.978   2.890   9.888  1.8746  0.7434 -0.6503
  178SLPC   H4Y20345   3.954   2.710   9.871 -0.9458  2.2347 -1.5757
  178SLPC   C3520346   4.155   2.779   9.850 -0.1882  0.1162  0.3130
  178SLPC   H5X20347   4.178   2.670   9.854 -1.2624 -0.1847 -0.9668
  178SLPC   H5Y20348   4.232   2.842   9.901  1.6159  0.0919 -2.2007
  178SLPC   C3620349   4.171   2.821   9.699 -0.1479  0.1853  0.4115
  178SLPC   H6X20350   4.091   2.768   9.643 -0.8166 -1.5331  2.8003
  178SLPC   H6Y20351   4.267   2.778   9.665 -0.4185  0.7880 -1.1664
  178SLPC   C3720352   4.165   2.971   9.675 -0.0924  0.1310 -0.3091
  178SLPC   H7X20353   4.266   3.007   9.703  1.1224 -2.4086 -1.1298
  178SLPC   H7Y20354   4.098   3.015   9.752  1.1975  2.5182 -0.4873
  178SLPC   C3820355   4.128   3.004   9.528 -0.0318 -0.3073 -0.1973
  178SLPC   H8X20356   4.142   3.114   9.520 -0.2056 -0.3614 -1.3032
  178SLPC   H8Y20357   4.025   2.979   9.497 -0.0623 -0.2471 -0.1472
  178SLPC   C3920358   4.224   2.944   9.423 -0.1911  0.2563  0.1805
  178SLPC   H9X20359   4.257   2.842   9.450  0.8289  0.1556 -1.3230
  178SLPC   H9Y20360   4.311   3.014   9.424  1.1962 -1.3817 -0.7329
  178SLPC  C31020361   4.159   2.955   9.287 -0.1875  0.3538  0.9588
  178SLPC  H10X20362   4.153   3.062   9.260  0.8605  0.1625 -0.1244
  178SLPC  H10Y20363   4.060   2.906   9.282 -0.3524  0.7939 -0.5666
  178SLPC  C31120364   4.238   2.887   9.173  0.0674 -0.3995  0.6905
  178SLPC  H11X20365   4.229   2.777   9.181  2.9767 -0.8544 -1.0004
  178SLPC  H11Y20366   4.346   2.914   9.172  0.4504 -1.4661  3.4624
  178SLPC  C31220367   4.196   2.927   9.027 -0.1535 -0.2470 -0.7452
  178SLPC  H12X20368   4.202   3.037   9.027 -2.1434  0.0259  3.0145
  178SLPC  H12Y20369   4.089   2.897   9.023 -1.1344  2.5136  1.5981
  178SLPC  C31320370   4.299   2.878   8.920  0.3401 -0.1107 -0.3998
  178SLPC  H13X20371   4.296   2.767   8.915  0.0658 -0.1378  0.3195
  178SLPC  H13Y20372   4.403   2.913   8.941  0.2900  0.8686 -1.6202
  178SLPC  C31420373   4.264   2.935   8.779  0.4373 -0.7884  0.4516
  178SLPC  H14X20374   4.260   3.046   8.776 -2.4928 -0.6940  2.9071
  178SLPC  H14Y20375   4.166   2.888   8.753 -0.1879 -0.1512  1.5837
  178SLPC  C31520376   4.359   2.889   8.669  0.1191 -0.2549  0.4900
  178SLPC  H15X20377   4.319   2.932   8.575  0.1727  1.6806  1.3154
  178SLPC  H15Y20378   4.459   2.937   8.674 -0.1405  0.4052 -0.3257
  178SLPC  C31620379   4.383   2.740   8.664 -0.0191 -0.4514  0.2986
  178SLPC  H16X20380   4.292   2.683   8.690 -0.0772 -1.0565 -1.1469
  178SLPC  H16Y20381   4.470   2.720   8.731  0.8594 -1.7805 -1.1541
  178SLPC  C31720382   4.415   2.685   8.525 -0.2915 -0.0318 -0.5715
  178SLPC  H17X20383   4.486   2.600   8.536  1.1948  1.3291  0.9192
  178SLPC  H17Y20384   4.469   2.762   8.466  1.1381 -0.7357 -0.2341
  178SLPC  C31820385   4.299   2.632   8.441  0.8411  0.6709 -0.0666
  178SLPC  H18X20386   4.230   2.717   8.424  1.4905  0.7382 -2.7473
  178SLPC  H18Y20387   4.253   2.551   8.502  2.4184  0.8223  1.4113
  178SLPC  H18Z20388   4.351   2.598   8.349  1.6881  0.7522  0.3761
  179SLPC     N20389   6.267   6.124  10.782  0.1800  0.4754  0.6460
  179SLPC   C1320390   6.317   6.071  10.646 -0.2402  0.0365  0.6057
  179SLPC  H13A20391   6.424   6.073  10.634 -0.3068 -1.4402 -0.5811
  179SLPC  H13B20392   6.278   5.972  10.625 -0.1081  0.5293 -2.2317
  179SLPC  H13C20393   6.272   6.131  10.569 -0.0763  1.4302  1.5668
  179SLPC   C1420394   6.362   6.232  10.812 -0.2863 -0.1422  0.0772
  179SLPC  H14A20395   6.362   6.318  10.746  0.7450 -1.4234 -1.6972
  179SLPC  H14B20396   6.352   6.271  10.912  1.4119  0.2943  0.1201
  179SLPC  H14C20397   6.463   6.193  10.809 -0.0580  0.3046  1.6242
  179SLPC   C1520398   6.269   6.018  10.887  0.9685 -0.1043 -0.1920
  179SLPC  H15A20399   6.241   5.924  10.843  1.3005 -0.2042 -0.1987
  179SLPC  H15B20400   6.367   6.005  10.930  0.6862  2.7979  1.6208
  179SLPC  H15C20401   6.207   6.043  10.972  1.4888 -2.4606  0.9497
  179SLPC   C1220402   6.122   6.164  10.782 -0.1823  0.0714  0.2493
  179SLPC  H12A20403   6.092   6.186  10.883  0.1669 -0.8556  0.5612
  179SLPC  H12B20404   6.067   6.081  10.740 -0.0677 -0.1346  0.5041
  179SLPC   C1120405   6.087   6.292  10.700 -0.4109 -0.0843 -0.1667
  179SLPC  H11A20406   6.164   6.371  10.709  1.6792 -2.0220  0.1436
  179SLPC  H11B20407   5.986   6.323  10.734 -0.0715  1.5126 -0.5628
  179SLPC     P20408   6.109   6.340  10.443  0.4219  0.2089  0.1689
  179SLPC   O1320409   6.067   6.483  10.464 -0.2965  0.7955  0.3346
  179SLPC   O1420410   6.252   6.312  10.422 -0.4631  0.4751  0.2146
  179SLPC   O1220411   6.072   6.249  10.567  0.5120 -0.2662  0.3754
  179SLPC   O1120412   6.012   6.271  10.343 -0.1418 -0.3854  0.3910
  179SLPC    C120413   5.888   6.213  10.375  0.4719 -0.0806 -0.7631
  179SLPC    HA20414   5.882   6.162  10.473 -0.9862  1.6378  0.1164
  179SLPC    HB20415   5.807   6.289  10.367 -0.2795 -0.8415 -0.4979
  179SLPC    C220416   5.846   6.115  10.260 -0.5300  0.7526  0.2917
  179SLPC    HS20417   5.918   6.030  10.269 -0.9970  0.3607  0.3996
  179SLPC   O2120418   5.858   6.183  10.136  0.2395  0.4272 -0.1200
  179SLPC   C2120419   5.832   6.109  10.021 -0.0667  0.0000 -0.7915
  179SLPC   O2220420   5.808   5.993  10.027 -0.0121 -0.2224  0.2898
  179SLPC   C2220421   5.844   6.188   9.902  0.4255 -0.8541  0.4209
  179SLPC   H2R20422   5.758   6.258   9.903  1.5383  0.5538  0.6255
  179SLPC   H2S20423   5.934   6.253   9.906  2.0495 -2.8158 -1.4855
  179SLPC    C320424   5.708   6.046  10.289 -0.1810 -0.0321 -0.6099
  179SLPC    HX20425   5.721   5.988  10.383 -0.6067  0.5772 -0.1725
  179SLPC    HY20426   5.679   5.975  10.209 -0.7400 -1.2453  0.6159
  179SLPC   O3120427   5.607   6.138  10.329 -0.5647 -0.3606  0.1613
  179SLPC   C3120428   5.485   6.092  10.373  0.5392 -0.0239 -0.3598
  179SLPC   O3220429   5.458   5.971  10.380 -0.4893 -0.7590 -0.1246
  179SLPC   C3220430   5.393   6.204  10.401  0.1570  0.5190  0.5595
  179SLPC   H2X20431   5.429   6.265  10.486  0.0898  0.6394  0.5023
  179SLPC   H2Y20432   5.299   6.151  10.427 -0.0673  0.0064 -1.1215
  179SLPC   C2320433   5.819   6.108   9.771  0.4462  0.7706  0.8423
  179SLPC   H3R20434   5.741   6.032   9.790 -0.1806  1.7302  2.2395
  179SLPC   H3S20435   5.918   6.065   9.743 -0.3391  0.4038 -1.6405
  179SLPC   C2420436   5.780   6.189   9.645 -0.5082  0.6880 -0.8028
  179SLPC   H4R20437   5.845   6.278   9.645 -0.6346  0.7969  0.1571
  179SLPC   H4S20438   5.674   6.213   9.668 -1.4366  0.5223 -4.3404
  179SLPC   C2520439   5.788   6.109   9.520 -0.1143  0.0570  0.1310
  179SLPC   H5R20440   5.686   6.100   9.478  0.1649 -0.8879 -0.3816
  179SLPC   H5S20441   5.819   6.006   9.552 -2.5579 -1.8881 -3.1666
  179SLPC   C2620442   5.894   6.161   9.416  0.1099  0.5627 -0.6175
  179SLPC   H6R20443   5.997   6.126   9.437 -0.1612  0.2159  0.2007
  179SLPC   H6S20444   5.895   6.270   9.437  1.8794  0.6440 -0.9922
  179SLPC   C2720445   5.853   6.120   9.270  0.2135 -0.2289  0.2827
  179SLPC   H7R20446   5.764   6.184   9.247  0.1396 -1.1957 -2.5572
  179SLPC   H7S20447   5.820   6.014   9.267 -0.3547 -0.0326 -1.3851
  179SLPC   C2820448   5.961   6.136   9.162  0.9120 -0.1563 -0.5356
  179SLPC   H8R20449   5.941   6.065   9.079  1.7748 -0.0560 -0.8394
  179SLPC   H8S20450   6.053   6.109   9.217  0.4256  0.1119  0.4490
  179SLPC   C2920451   5.961   6.282   9.113  0.1032 -0.1080  0.8202
  179SLPC   H9R20452   6.001   6.353   9.187  1.2446 -0.8733  0.9670
  179SLPC  C21020453   5.909   6.330   8.994 -0.2663  0.3003 -0.4286
  179SLPC  H10R20454   5.904   6.439   8.978 -0.0824  0.1936 -1.2647
  179SLPC  C21120455   5.824   6.242   8.893  0.3705 -0.2231  0.2708
  179SLPC  H11R20456   5.741   6.295   8.841  0.8424 -1.0850 -1.4366
  179SLPC  H11S20457   5.772   6.161   8.949 -1.2891  0.8788  0.3908
  179SLPC  C21220458   5.920   6.195   8.789  0.4596 -0.7283 -0.0008
  179SLPC  H12R20459   6.006   6.260   8.766  0.1742 -1.1137 -2.4169
  179SLPC  C21320460   5.901   6.093   8.715  0.1651 -0.0023 -0.1666
  179SLPC  H13R20461   5.969   6.083   8.629 -0.1061 -1.5737 -0.2272
  179SLPC  C21420462   5.786   5.995   8.728 -0.0660  0.0497 -0.1017
  179SLPC  H14R20463   5.701   6.047   8.779 -0.1550  0.8509 -1.0363
  179SLPC  H14S20464   5.814   5.917   8.801  1.6531 -0.2969 -1.0852
  179SLPC  C21520465   5.737   5.939   8.596  0.4199 -1.1704  0.3767
  179SLPC  H15R20466   5.666   5.859   8.626 -0.0576 -0.5502  0.9266
  179SLPC  H15S20467   5.814   5.881   8.541  0.0375 -1.2856 -0.0505
  179SLPC  C21620468   5.662   6.029   8.497 -0.2654  0.0329  0.2162
  179SLPC  H16R20469   5.740   6.091   8.446 -0.6009 -0.0192 -0.3658
  179SLPC  H16S20470   5.607   6.110   8.550  0.8992  1.2331 -0.3234
  179SLPC  C21720471   5.580   5.961   8.394  0.6624  0.2344 -0.8308
  179SLPC  H17R20472   5.500   6.027   8.353  1.6887  2.1650  0.1348
  179SLPC  H17S20473   5.516   5.887   8.448  3.0435 -0.4749  1.2085
  179SLPC  C21820474   5.655   5.885   8.281  0.1972  0.1432 -0.2120
  179SLPC  H18R20475   5.583   5.837   8.212  0.0861  1.8729 -1.3665
  179SLPC  H18S20476   5.714   5.812   8.340  1.1328  2.5048  2.0060
  179SLPC  H18T20477   5.723   5.958   8.233 -1.8069  0.9652 -1.9766
  179SLPC   C3320478   5.369   6.304  10.284 -0.1634  0.4707  0.0961
  179SLPC   H3X20479   5.468   6.347  10.258 -0.3254  0.1494 -1.1025
  179SLPC   H3Y20480   5.303   6.383  10.326  0.0389  0.0584  1.2338
  179SLPC   C3420481   5.318   6.231  10.160  0.0229 -0.2757 -0.2328
  179SLPC   H4X20482   5.209   6.211  10.162 -0.0280 -0.2647 -1.7738
  179SLPC   H4Y20483   5.370   6.135  10.139 -1.8944 -1.2780 -0.5793
  179SLPC   C3520484   5.352   6.321  10.034  0.3289 -0.0422  0.1192
  179SLPC   H5X20485   5.460   6.347  10.042  0.3581 -0.0924 -0.0888
  179SLPC   H5Y20486   5.301   6.418  10.045  0.1001 -0.0843 -0.5183
  179SLPC   C3620487   5.317   6.263   9.895 -0.5519 -0.2171 -0.5617
  179SLPC   H6X20488   5.209   6.282   9.878 -1.0584 -2.5390 -0.2629
  179SLPC   H6Y20489   5.342   6.155   9.899 -0.5167 -0.2822 -2.0977
  179SLPC   C3720490   5.396   6.333   9.777 -0.1349  0.1026 -0.5690
  179SLPC   H7X20491   5.497   6.291   9.760  0.5137  0.4886  1.8801
  179SLPC   H7Y20492   5.403   6.441   9.804  1.4922 -0.0066 -0.4279
  179SLPC   C3820493   5.338   6.316   9.643  0.2821  0.4552 -0.0362
  179SLPC   H8X20494   5.231   6.345   9.637 -0.1124 -0.7855  0.5412
  179SLPC   H8Y20495   5.322   6.210   9.612 -1.0003  0.5975  0.0783
  179SLPC   C3920496   5.429   6.374   9.535  0.4558 -0.9828 -0.2164
  179SLPC   H9X20497   5.534   6.345   9.558  0.4766  1.5496  3.9308
  179SLPC   H9Y20498   5.429   6.483   9.558  0.8043 -0.9954 -0.1469
  179SLPC  C31020499   5.385   6.336   9.397  0.1396  0.2430 -0.0980
  179SLPC  H10X20500   5.303   6.403   9.364  0.6153  1.6639  1.4512
  179SLPC  H10Y20501   5.350   6.231   9.399  1.0100 -0.0426  0.8811
  179SLPC  C31120502   5.494   6.331   9.293  0.9877 -0.4361  0.0846
  179SLPC  H11X20503   5.584   6.278   9.331 -0.0058 -1.2739  1.3311
  179SLPC  H11Y20504   5.539   6.429   9.264 -0.1681  0.3486  0.8579
  179SLPC  C31220505   5.441   6.267   9.159  0.3543 -0.2768  0.5642
  179SLPC  H12X20506   5.348   6.211   9.182  0.3015 -0.9023 -1.0563
  179SLPC  H12Y20507   5.519   6.189   9.146 -1.8840 -2.3498 -1.6704
  179SLPC  C31320508   5.432   6.365   9.041 -0.1801 -0.5284 -0.0309
  179SLPC  H13X20509   5.540   6.365   9.014  0.9706 -2.1325  3.9328
  179SLPC  H13Y20510   5.392   6.460   9.083 -0.7002  0.7790 -3.1937
  179SLPC  C31420511   5.360   6.339   8.909 -0.4292 -0.0631  0.2713
  179SLPC  H14X20512   5.393   6.236   8.883  2.1151  0.4778  1.0816
  179SLPC  H14Y20513   5.382   6.413   8.830  3.1604  0.9791  2.0769
  179SLPC  C31520514   5.208   6.329   8.924 -0.4467 -0.0811 -0.2699
  179SLPC  H15X20515   5.182   6.412   8.993 -1.2837 -1.1272  0.7205
  179SLPC  H15Y20516   5.189   6.232   8.974  1.2073 -0.1627  0.2665
  179SLPC  C31620517   5.119   6.355   8.805 -0.3575 -0.0898  0.0907
  179SLPC  H16X20518   5.139   6.295   8.714  0.0100 -1.4019  1.0043
  179SLPC  H16Y20519   5.140   6.459   8.774 -0.0514 -0.5918 -1.4358
  179SLPC  C31720520   4.975   6.329   8.848 -0.4409  0.4938  0.6502
  179SLPC  H17X20521   4.950   6.393   8.935  0.5152 -1.4499  2.4650
  179SLPC  H17Y20522   4.966   6.220   8.871 -0.0520  0.4518  0.6154
  179SLPC  C31820523   4.865   6.368   8.753 -0.1663 -0.3976  0.9624
  179SLPC  H18X20524   4.880   6.315   8.656  1.1310  0.4703  0.6589
  179SLPC  H18Y20525   4.855   6.477   8.732 -1.5380 -1.1964 -3.6319
  179SLPC  H18Z20526   4.766   6.344   8.796 -0.0002  0.3849  1.8138
  180SLPC     N20527   3.487   2.584  10.986 -0.1207 -0.0932  0.6901
  180SLPC   C1320528   3.434   2.448  10.925  0.0938 -0.9335  0.0228
  180SLPC  H13A20529   3.429   2.457  10.818  0.6542 -0.8401  0.0028
  180SLPC  H13B20530   3.498   2.366  10.954  3.4062  1.1510 -0.8233
  180SLPC  H13C20531   3.335   2.424  10.963 -0.6666  0.4097 -1.0242
  180SLPC   C1420532   3.503   2.573  11.133 -0.0367 -0.4419  0.2151
  180SLPC  H14A20533   3.566   2.491  11.163  1.2763  1.1926  2.2182
  180SLPC  H14B20534   3.550   2.661  11.174 -0.8029 -0.2651  0.7533
  180SLPC  H14C20535   3.406   2.561  11.179  0.4536 -4.0842  0.5607
  180SLPC   C1520536   3.387   2.689  10.952 -0.1085  0.5578  0.4075
  180SLPC  H15A20537   3.417   2.786  10.990 -2.4164  0.3166  3.2377
  180SLPC  H15B20538   3.379   2.690  10.845 -1.3001 -1.0710  0.4452
  180SLPC  H15C20539   3.288   2.681  10.996  0.3396  3.5384  2.2526
  180SLPC   C1220540   3.617   2.623  10.917  0.0903  0.4079  0.0168
  180SLPC  H12A20541   3.700   2.564  10.953 -0.3784  0.1402  0.6928
  180SLPC  H12B20542   3.649   2.721  10.949 -0.1752  0.4971  0.0150
  180SLPC   C1120543   3.626   2.625  10.764 -0.2797 -0.3517  0.6269
  180SLPC  H11A20544   3.624   2.528  10.711  0.6351  0.6376 -1.2982
  180SLPC  H11B20545   3.729   2.659  10.740 -0.3258  1.2108  2.3371
  180SLPC     P20546   3.546   2.857  10.679  0.0940 -0.4062 -0.1422
  180SLPC   O1320547   3.425   2.936  10.693 -0.3572  0.7588 -0.2248
  180SLPC   O1420548   3.661   2.900  10.759 -0.3855 -0.3936 -0.0827
  180SLPC   O1220549   3.520   2.703  10.712 -0.9437  0.3195 -0.5464
  180SLPC   O1120550   3.584   2.857  10.528 -0.4860 -0.2084 -0.5742
  180SLPC    C120551   3.708   2.919  10.481  0.1784  0.2501  0.2849
  180SLPC    HA20552   3.740   2.999  10.552  2.0947  1.2486 -1.6062
  180SLPC    HB20553   3.795   2.850  10.485 -0.0288  0.0367  2.3830
  180SLPC    C220554   3.703   2.979  10.332 -0.1952  0.2740 -0.6773
  180SLPC    HS20555   3.624   3.057  10.328  1.8488  2.5876  0.5969
  180SLPC   O2120556   3.683   2.874  10.237 -0.1460 -0.1656 -0.3990
  180SLPC   C2120557   3.593   2.895  10.146  0.2843  0.3875 -0.7920
  180SLPC   O2220558   3.521   2.991  10.129 -0.1312  0.0127 -0.5410
  180SLPC   C2220559   3.595   2.772  10.060  0.3133  0.3502  0.4435
  180SLPC   H2R20560   3.674   2.700  10.090  0.9064  1.2107  0.9944
  180SLPC   H2S20561   3.492   2.733  10.074  0.1867 -0.1388 -1.5329
  180SLPC    C320562   3.835   3.050  10.307  0.2222 -0.2220 -0.2560
  180SLPC    HX20563   3.911   2.972  10.328  2.0686  1.7615  0.8032
  180SLPC    HY20564   3.856   3.132  10.379  0.3305  1.1251 -1.7611
  180SLPC   O3120565   3.850   3.101  10.174  1.0048  0.4357 -0.0037
  180SLPC   C3120566   3.793   3.221  10.146  0.7002 -0.0743  0.3168
  180SLPC   O3220567   3.706   3.279  10.213 -0.0510 -0.1265 -0.3497
  180SLPC   C3220568   3.856   3.287  10.022 -0.2173  0.2769  0.1047
  180SLPC   H2X20569   3.966   3.286  10.032 -0.1899 -1.1560 -0.1762
  180SLPC   H2Y20570   3.818   3.390  10.008  1.7462  0.6955 -3.3031
  180SLPC   C2320571   3.602   2.787   9.900  0.2714  0.0160 -0.0119
  180SLPC   H3R20572   3.690   2.846   9.866 -1.0130  1.8804 -0.2735
  180SLPC   H3S20573   3.515   2.844   9.862  1.4609 -0.0460 -3.1158
  180SLPC   C2420574   3.596   2.655   9.831 -0.1909 -0.0243 -0.4073
  180SLPC   H4R20575   3.498   2.604   9.846 -0.0220 -0.1489  0.2978
  180SLPC   H4S20576   3.660   2.581   9.881 -1.8723 -0.8501  0.6175
  180SLPC   C2520577   3.639   2.684   9.682  0.0617  0.2497 -0.4113
  180SLPC   H5R20578   3.678   2.589   9.638  2.0276  1.4303 -1.3423
  180SLPC   H5S20579   3.727   2.746   9.656  0.7155 -0.6140 -0.2984
  180SLPC   C2620580   3.518   2.742   9.604 -0.3425  0.4783  0.9215
  180SLPC   H6R20581   3.480   2.834   9.652 -1.8236 -0.4356  1.5747
  180SLPC   H6S20582   3.438   2.665   9.607 -0.3221  0.0551 -3.2244
  180SLPC   C2720583   3.549   2.770   9.454  0.4235 -0.0608  0.2825
  180SLPC   H7R20584   3.450   2.783   9.404 -0.0814  0.5357  1.3927
  180SLPC   H7S20585   3.603   2.687   9.403 -1.6066 -1.1791 -0.1775
  180SLPC   C2820586   3.637   2.895   9.429 -0.2538  0.2701 -0.1435
  180SLPC   H8R20587   3.746   2.882   9.447 -0.2189  0.0249 -0.5152
  180SLPC   H8S20588   3.598   2.973   9.497 -1.5849 -2.1247  1.9775
  180SLPC   C2920589   3.633   2.925   9.282  0.2394 -0.5365 -0.3223
  180SLPC   H9R20590   3.556   2.990   9.237 -0.8878 -2.0121 -0.5985
  180SLPC  C21020591   3.705   2.858   9.189  0.1874  0.0514 -0.6249
  180SLPC  H10R20592   3.686   2.885   9.084  0.7355  0.9745 -0.5041
  180SLPC  C21120593   3.805   2.747   9.216 -0.2602 -0.1694  0.1628
  180SLPC  H11R20594   3.816   2.719   9.323 -3.5466  0.1901  0.6927
  180SLPC  H11S20595   3.907   2.784   9.190  0.5357 -0.2580  2.8275
  180SLPC  C21220596   3.762   2.624   9.152 -0.8290  0.2060  0.6327
  180SLPC  H12R20597   3.701   2.556   9.215  0.6904 -2.3303 -0.4627
  180SLPC  C21320598   3.814   2.579   9.034  0.3570 -0.9621 -1.2565
  180SLPC  H13R20599   3.777   2.486   8.988 -0.6295 -0.9685 -0.4881
  180SLPC  C21420600   3.924   2.650   8.958  0.2420 -0.3620 -0.4807
  180SLPC  H14R20601   3.941   2.757   8.983  0.1102 -0.2166 -0.9965
  180SLPC  H14S20602   3.909   2.639   8.849  0.6297 -1.4183 -0.4394
  180SLPC  C21520603   4.071   2.596   8.980 -0.0143 -0.3803  0.4860
  180SLPC  H15R20604   4.122   2.629   9.073 -0.1707  0.1841  0.3755
  180SLPC  H15S20605   4.132   2.644   8.901 -0.5351 -1.3065 -0.5040
  180SLPC  C21620606   4.079   2.437   8.971 -0.2039  0.2647 -0.3476
  180SLPC  H16R20607   4.021   2.389   9.052  1.3037 -2.7844 -0.9234
  180SLPC  H16S20608   4.187   2.411   8.977 -0.3210  0.1620  1.8199
  180SLPC  C21720609   4.024   2.390   8.837 -0.5284 -0.3398  0.1542
  180SLPC  H17R20610   3.925   2.438   8.825  0.8841  2.7591  0.0530
  180SLPC  H17S20611   4.001   2.281   8.830 -2.6578  0.1802 -2.3362
  180SLPC  C21820612   4.130   2.423   8.719  0.8903 -0.0843  0.4015
  180SLPC  H18R20613   4.226   2.367   8.729  2.9256  2.8533 -1.1098
  180SLPC  H18S20614   4.146   2.532   8.725  2.2890 -0.2730  0.4339
  180SLPC  H18T20615   4.076   2.406   8.623  0.4080  0.4289  0.5808
  180SLPC   C3320616   3.843   3.203   9.895 -0.0015 -0.2539 -0.3711
  180SLPC   H3X20617   3.752   3.140   9.885  1.1609 -1.9845 -0.5213
  180SLPC   H3Y20618   3.924   3.127   9.901  1.6893  1.2620 -2.3215
  180SLPC   C3420619   3.858   3.283   9.760 -0.7328  0.5607  0.6047
  180SLPC   H4X20620   3.964   3.317   9.769 -0.4841  0.7125 -2.2357
  180SLPC   H4Y20621   3.790   3.370   9.764 -1.9981 -0.4306  1.9555
  180SLPC   C3520622   3.853   3.199   9.638 -0.0137  0.1371  0.0905
  180SLPC   H5X20623   3.747   3.169   9.620  0.4895 -0.9135 -1.2700
  180SLPC   H5Y20624   3.899   3.099   9.652 -0.7164 -0.3543 -0.9836
  180SLPC   C3620625   3.890   3.300   9.525 -0.2795  0.2328  0.4370
  180SLPC   H6X20626   3.990   3.340   9.551  0.3023  0.8663 -2.4057
  180SLPC   H6Y20627   3.824   3.390   9.529  0.9384  1.1067  1.7258
  180SLPC   C3720628   3.899   3.251   9.378  0.2270  0.5628 -0.8429
  180SLPC   H7X20629   3.799   3.215   9.347 -0.7867  1.8350  0.8170
  180SLPC   H7Y20630   3.976   3.171   9.383  0.1614  0.5654  0.9153
  180SLPC   C3820631   3.927   3.370   9.291 -0.6536  0.3621 -0.0372
  180SLPC   H8X20632   4.011   3.428   9.333  0.4107 -1.4357  0.4540
  180SLPC   H8Y20633   3.844   3.444   9.288  1.0922  2.6935  3.4429
  180SLPC   C3920634   3.967   3.322   9.148 -0.3377  0.8867  0.4147
  180SLPC   H9X20635   4.066   3.271   9.142  0.0173  1.7188 -1.8840
  180SLPC   H9Y20636   3.975   3.412   9.083 -0.6642 -1.1087 -2.5738
  180SLPC  C31020637   3.864   3.228   9.086 -0.1163  0.2974  0.2911
  180SLPC  H10X20638   3.763   3.268   9.106 -0.7983 -1.2608  0.1097
  180SLPC  H10Y20639   3.879   3.124   9.123 -0.1930  0.4449  0.7415
  180SLPC  C31120640   3.875   3.224   8.934  0.1748 -0.6278 -0.0887
  180SLPC  H11X20641   3.983   3.219   8.910  0.2333 -2.0456  0.4201
  180SLPC  H11Y20642   3.843   3.328   8.908  3.1229  0.9461  2.0341
  180SLPC  C31220643   3.805   3.112   8.865 -0.4675  0.5164 -1.1321
  180SLPC  H12X20644   3.850   3.015   8.894 -2.4814 -0.0691  0.2675
  180SLPC  H12Y20645   3.825   3.136   8.759  2.0180  2.5058 -0.3133
  180SLPC  C31320646   3.656   3.125   8.881  0.7571  0.0476 -0.2192
  180SLPC  H13X20647   3.623   3.216   8.825 -2.3951 -0.6192  0.3722
  180SLPC  H13Y20648   3.624   3.145   8.986 -0.2400  0.1477 -0.5299
  180SLPC  C31420649   3.568   3.010   8.821 -0.3322  0.1197 -0.1630
  180SLPC  H14X20650   3.464   3.046   8.811  0.2595  1.6850 -1.1243
  180SLPC  H14Y20651   3.546   2.922   8.885  1.4767  0.9585  1.7612
  180SLPC  C31520652   3.623   2.963   8.694  0.2884  0.1255 -0.0310
  180SLPC  H15X20653   3.729   2.937   8.715  0.0923 -0.9128 -0.2730
  180SLPC  H15Y20654   3.622   3.046   8.620 -0.8948 -0.2343 -0.4297
  180SLPC  C31620655   3.546   2.851   8.620 -0.3510  0.8823  0.1280
  180SLPC  H16X20656   3.440   2.883   8.610 -0.4099  0.4340 -0.8106
  180SLPC  H16Y20657   3.544   2.757   8.679  3.5340 -0.3077 -1.3434
  180SLPC  C31720658   3.607   2.820   8.482 -0.2907 -0.0550  0.0382
  180SLPC  H17X20659   3.640   2.906   8.421  0.8694 -0.4013  0.1614
  180SLPC  H17Y20660   3.529   2.760   8.429 -0.4554 -0.2779  0.5172
  180SLPC  C31820661   3.743   2.749   8.495  0.1968  0.6209  0.0494
  180SLPC  H18X20662   3.776   2.720   8.393  1.7032 -0.3145  0.7656
  180SLPC  H18Y20663   3.729   2.656   8.555  0.4254  0.6783  0.1913
  180SLPC  H18Z20664   3.815   2.814   8.549 -1.0151  1.0802  1.1635
  181SLPC     N20665   2.057   1.676  11.217  0.2175  0.0669 -0.3153
  181SLPC   C1320666   2.124   1.812  11.226 -0.1368 -0.8096 -0.4985
  181SLPC  H13A20667   2.174   1.817  11.322 -2.7719  0.1425  0.9419
  181SLPC  H13B20668   2.189   1.823  11.141  1.6402 -1.1725  0.7456
  181SLPC  H13C20669   2.053   1.893  11.216 -3.6832 -3.5251  0.9138
  181SLPC   C1420670   1.952   1.659  11.324  0.0287 -0.3912 -0.6816
  181SLPC  H14A20671   1.896   1.569  11.306 -1.0023 -0.3205  1.8205
  181SLPC  H14B20672   1.984   1.645  11.426 -2.6284 -1.8150  0.0261
  181SLPC  H14C20673   1.886   1.744  11.326 -2.0972 -1.9817  0.8727
  181SLPC   C1520674   2.155   1.567  11.220 -1.0843 -0.1950 -0.5877
  181SLPC  H15A20675   2.225   1.563  11.138 -0.3058  2.0973 -0.1054
  181SLPC  H15B20676   2.212   1.574  11.312 -0.3900 -0.6718 -0.9771
  181SLPC  H15C20677   2.096   1.477  11.212  0.2551 -1.0922 -0.5651
  181SLPC   C1220678   1.984   1.668  11.083  0.1220  0.4138  0.2346
  181SLPC  H12A20679   2.044   1.680  10.994 -0.8382 -0.0014 -0.4905
  181SLPC  H12B20680   1.917   1.753  11.090 -0.0174  0.1534  3.7703
  181SLPC   C1120681   1.889   1.552  11.040  0.3822  0.4826  0.1929
  181SLPC  H11A20682   1.946   1.457  11.053  2.0169  1.6843  2.7096
  181SLPC  H11B20683   1.855   1.561  10.935 -1.7164  1.8628  0.9227
  181SLPC     P20684   1.670   1.668  11.120  0.3943  0.0982  0.6091
  181SLPC   O1320685   1.542   1.616  11.179  0.3334 -0.2404  0.3800
  181SLPC   O1420686   1.724   1.795  11.173 -0.4945 -0.3728  0.4944
  181SLPC   O1220687   1.772   1.548  11.126  0.0549 -0.0467  0.0049
  181SLPC   O1120688   1.654   1.700  10.965  0.3438 -0.0956  0.1063
  181SLPC    C120689   1.522   1.668  10.909  0.2557 -0.1633  0.1348
  181SLPC    HA20690   1.435   1.668  10.979 -0.3566  0.0278 -0.6178
  181SLPC    HB20691   1.502   1.751  10.838 -1.7662  1.1985  2.1443
  181SLPC    C220692   1.524   1.542  10.821 -0.2362 -0.4443 -0.6319
  181SLPC    HS20693   1.560   1.458  10.885  3.2518  0.3703 -1.3449
  181SLPC   O2120694   1.610   1.578  10.714 -0.7305  0.4476  0.1130
  181SLPC   C2120695   1.683   1.479  10.678 -0.0974 -0.6015  0.7419
  181SLPC   O2220696   1.664   1.362  10.717  0.3622 -0.0206 -0.4931
  181SLPC   C2220697   1.789   1.532  10.587 -0.7839  0.0068  0.0640
  181SLPC   H2R20698   1.742   1.612  10.527  0.2262  1.1001  0.7010
  181SLPC   H2S20699   1.862   1.580  10.655 -1.6312  0.5416  0.6163
  181SLPC    C320700   1.379   1.520  10.764 -0.2962 -0.3182 -0.0955
  181SLPC    HX20701   1.371   1.603  10.691  2.5205 -1.3296 -1.6962
  181SLPC    HY20702   1.304   1.521  10.846  2.6535  0.4648  2.7783
  181SLPC   O3120703   1.374   1.396  10.701 -0.1508  0.0298 -0.2216
  181SLPC   C3120704   1.373   1.291  10.765 -0.5402  0.1482 -1.0364
  181SLPC   O3220705   1.341   1.286  10.887 -0.0615 -0.6472  0.3230
  181SLPC   C3220706   1.422   1.168  10.684  0.5776  0.8028  0.1092
  181SLPC   H2X20707   1.523   1.145  10.722  0.1509  0.4272  1.0313
  181SLPC   H2Y20708   1.426   1.203  10.578  0.3153 -0.4957 -0.3517
  181SLPC   C2320709   1.855   1.433  10.492  0.2797  0.5358 -0.2103
  181SLPC   H3R20710   1.785   1.367  10.437  0.5560 -0.2726  0.3949
  181SLPC   H3S20711   1.913   1.357  10.548 -0.0571 -0.6958 -1.5089
  181SLPC   C2420712   1.959   1.500  10.397 -0.9569 -0.0494  0.1490
  181SLPC   H4R20713   2.027   1.539  10.476 -1.7291 -0.5307  1.0689
  181SLPC   H4S20714   1.925   1.592  10.345  0.5976  0.8929  0.7346
  181SLPC   C2520715   2.024   1.400  10.298 -0.0867  0.0548  0.0645
  181SLPC   H5R20716   2.038   1.309  10.361  0.4196  0.2330  0.2119
  181SLPC   H5S20717   2.126   1.428  10.264 -0.5226 -0.6897 -2.0074
  181SLPC   C2620718   1.943   1.367  10.170 -0.0338  0.6878  0.3949
  181SLPC   H6R20719   1.910   1.459  10.117 -0.8993 -0.4555 -1.1407
  181SLPC   H6S20720   1.851   1.314  10.202  0.1046 -0.9344 -1.6770
  181SLPC   C2720721   2.023   1.280  10.075 -0.1333 -1.0135 -0.0060
  181SLPC   H7R20722   2.082   1.204  10.131 -0.8871 -1.5627  0.0500
  181SLPC   H7S20723   2.099   1.350  10.032  0.2889 -1.0662  0.6481
  181SLPC   C2820724   1.935   1.227   9.959  0.4251 -0.4709 -0.0639
  181SLPC   H8R20725   1.856   1.305   9.948 -2.6853 -3.3143  0.4698
  181SLPC   H8S20726   1.870   1.146   9.999 -2.0085  0.9937 -0.8401
  181SLPC   C2920727   2.009   1.186   9.830  0.0125  0.2128  0.1182
  181SLPC   H9R20728   2.043   1.278   9.779  1.1993  0.2386  0.9232
  181SLPC  C21020729   2.030   1.060   9.790 -0.1430  0.9721  0.8493
  181SLPC  H10R20730   2.086   1.044   9.696 -0.9554 -2.0133  0.7647
  181SLPC  C21120731   1.976   0.936   9.853  0.0607 -0.6337  0.0293
  181SLPC  H11R20732   1.865   0.934   9.854  0.0111 -4.4023 -0.0481
  181SLPC  H11S20733   2.009   0.926   9.958  1.6314 -0.1151 -0.3814
  181SLPC  C21220734   2.050   0.827   9.773 -0.8264 -0.5094 -0.0809
  181SLPC  H12R20735   2.158   0.815   9.786 -0.3187  2.8041 -0.3580
  181SLPC  C21320736   1.985   0.735   9.699 -0.4132 -0.8484  0.8301
  181SLPC  H13R20737   2.047   0.675   9.630 -0.5278 -0.0513  0.0133
  181SLPC  C21420738   1.836   0.726   9.682 -0.0592 -0.2447 -0.1757
  181SLPC  H14R20739   1.794   0.798   9.609  0.0160  1.0557  1.0175
  181SLPC  H14S20740   1.788   0.737   9.782  0.3394  2.0290 -0.1761
  181SLPC  C21520741   1.818   0.583   9.630  0.4305  0.5139 -0.7607
  181SLPC  H15R20742   1.880   0.516   9.692 -2.0072  1.1797  2.6864
  181SLPC  H15S20743   1.851   0.586   9.524 -0.7014  1.2407 -1.1265
  181SLPC  C21620744   1.676   0.520   9.652 -0.3746 -0.6761  0.7096
  181SLPC  H16R20745   1.651   0.503   9.759  0.0605  0.3628  0.9862
  181SLPC  H16S20746   1.676   0.424   9.596 -1.4964 -0.9060  1.0647
  181SLPC  C21720747   1.560   0.600   9.583  0.7421  0.0279 -0.1727
  181SLPC  H17R20748   1.547   0.704   9.620 -0.0618 -0.5903  1.3901
  181SLPC  H17S20749   1.463   0.556   9.616 -0.2029  1.3575 -1.0546
  181SLPC  C21820750   1.565   0.604   9.434 -0.1568 -0.1268  0.6398
  181SLPC  H18R20751   1.468   0.642   9.395 -0.2769 -1.2800 -0.2647
  181SLPC  H18S20752   1.577   0.506   9.383 -1.7556 -0.0954  0.1522
  181SLPC  H18T20753   1.648   0.670   9.401 -2.0535  1.0379 -2.1381
  181SLPC   C3320754   1.340   1.035  10.715 -0.2756  0.9393 -0.2405
  181SLPC   H3X20755   1.234   1.055  10.742  0.0074  2.0539  0.1138
  181SLPC   H3Y20756   1.390   0.979  10.796 -0.8158 -1.1063 -1.2638
  181SLPC   C3420757   1.328   0.951  10.588 -0.0654 -0.0541 -0.4556
  181SLPC   H4X20758   1.430   0.923  10.551  0.5313  0.5935  0.6420
  181SLPC   H4Y20759   1.267   1.003  10.511  0.9887  2.0733  0.0604
  181SLPC   C3520760   1.266   0.813  10.612  0.3007 -0.0264  0.1203
  181SLPC   H5X20761   1.157   0.832  10.609  0.0369 -1.2734  1.2735
  181SLPC   H5Y20762   1.294   0.767  10.709 -0.3532 -0.2930  0.1871
  181SLPC   C3620763   1.293   0.707  10.505  0.4068 -0.1934  0.1099
  181SLPC   H6X20764   1.404   0.694  10.509  0.3551 -0.4647  0.7845
  181SLPC   H6Y20765   1.269   0.748  10.405  1.7859 -1.7786 -0.9311
  181SLPC   C3720766   1.214   0.577  10.545 -0.4398 -0.1772  0.4757
  181SLPC   H7X20767   1.104   0.590  10.561 -0.4745  2.2352 -1.2385
  181SLPC   H7Y20768   1.261   0.534  10.636 -0.8072  0.9521  1.2238
  181SLPC   C3820769   1.233   0.472  10.434 -0.4107 -0.3079  0.0104
  181SLPC   H8X20770   1.339   0.440  10.421  0.2685  1.7178  0.1588
  181SLPC   H8Y20771   1.220   0.524  10.336  2.1447  1.8664  0.6983
  181SLPC   C3920772   1.152   0.350  10.440  0.8797  0.0089 -0.1938
  181SLPC   H9X20773   1.047   0.362  10.403 -0.2157 -1.7853  2.0502
  181SLPC   H9Y20774   1.142   0.312  10.543 -1.1333 -0.1115 -0.3895
  181SLPC  C31020775   1.213   0.236  10.355 -0.3227 -0.5609 -0.4297
  181SLPC  H10X20776   1.133   0.164  10.328 -0.5874 -0.9752  1.3073
  181SLPC  H10Y20777   1.287   0.182  10.418 -1.5094 -1.8750 -0.1056
  181SLPC  C31120778   1.277   0.277  10.224 -0.5991  0.5179 -0.1274
  181SLPC  H11X20779   1.363   0.341  10.252  0.9469 -1.1587 -0.8496
  181SLPC  H11Y20780   1.210   0.326  10.150  0.4932  1.4120 -0.5576
  181SLPC  C31220781   1.332   0.153  10.148  0.7591 -0.2529 -0.9062
  181SLPC  H12X20782   1.244   0.085  10.143  0.7292 -0.1413 -2.3760
  181SLPC  H12Y20783   1.406   0.104  10.213 -1.3629 -0.5335  1.4606
  181SLPC  C31320784   1.364   0.188  10.005 -0.0528 -0.1576  0.3120
  181SLPC  H13X20785   1.429   0.278  10.011  1.6138 -1.1497 -1.5996
  181SLPC  H13Y20786   1.274   0.226   9.952 -0.6178 -0.8982  0.7177
  181SLPC  C31420787   1.426   0.071   9.932  0.7621 -0.5248  0.1752
  181SLPC  H14X20788   1.352  -0.011   9.924 -0.6380  0.6462  0.6524
  181SLPC  H14Y20789   1.506   0.024   9.993 -0.7146 -1.8588  1.1647
  181SLPC  C31520790   1.485   0.118   9.795  0.5736 -0.6204 -0.1865
  181SLPC  H15X20791   1.540   0.214   9.801 -2.1337  1.0000  0.3763
  181SLPC  H15Y20792   1.402   0.146   9.726  0.2629  0.7678  0.6951
  181SLPC  C31620793   1.569   0.008   9.725 -0.1765  1.4460 -0.0273
  181SLPC  H16X20794   1.516  -0.084   9.758 -2.6296  2.4601 -0.8702
  181SLPC  H16Y20795   1.670   0.003   9.771 -0.8739 -0.1374  1.4325
  181SLPC  C31720796   1.558  -0.014   9.570 -0.4112 -0.0095 -0.2460
  181SLPC  H17X20797   1.452  -0.042   9.551 -0.7767  1.9845 -1.4098
  181SLPC  H17Y20798   1.629  -0.093   9.540 -1.8002 -0.6574 -2.0202
  181SLPC  C31820799   1.589   0.113   9.487  0.0294  0.4392  0.0435
  181SLPC  H18X20800   1.693   0.146   9.507 -0.2401  1.0052  0.5410
  181SLPC  H18Y20801   1.520   0.197   9.511 -0.8049 -0.8026  2.2404
  181SLPC  H18Z20802   1.588   0.084   9.380 -0.8187 -0.4575  0.2766
  182SLPC     N20803   5.973   2.952  11.266 -0.2661 -0.0123 -0.4741
  182SLPC   C1320804   5.866   2.921  11.365 -0.1622  0.2464 -0.1936
  182SLPC  H13A20805   5.901   2.852  11.441 -0.9851 -0.4426 -0.4122
  182SLPC  H13B20806   5.835   3.013  11.411  0.5004  0.0392  0.7111
  182SLPC  H13C20807   5.779   2.885  11.312 -1.3350  1.9764  0.4916
  182SLPC   C1420808   6.086   3.022  11.335  0.2964  0.8686 -0.4297
  182SLPC  H14A20809   6.180   3.019  11.284  0.6165 -0.1269  0.1893
  182SLPC  H14B20810   6.061   3.127  11.336 -1.5246  0.4744  0.8679
  182SLPC  H14C20811   6.092   3.008  11.442 -0.8316 -0.9160 -0.5620
  182SLPC   C1520812   5.909   3.042  11.169  0.1334 -0.3070 -0.0183
  182SLPC  H15A20813   5.808   3.017  11.138 -0.6052  1.8709  0.4534
  182SLPC  H15B20814   5.896   3.141  11.211 -0.4592 -0.5956  0.4997
  182SLPC  H15C20815   5.972   3.039  11.082  0.5336  1.3353  0.1720
  182SLPC   C1220816   6.021   2.820  11.209 -0.4385 -0.3161 -0.6057
  182SLPC  H12A20817   5.946   2.766  11.153  0.3740  0.0156 -2.0428
  182SLPC  H12B20818   6.050   2.762  11.295 -3.0008 -0.5992  0.1667
  182SLPC   C1120819   6.136   2.813  11.104  0.5672  0.0864 -0.3516
  182SLPC  H11A20820   6.166   2.709  11.077  0.1805 -0.3194  0.7458
  182SLPC  H11B20821   6.222   2.861  11.155  1.0044 -0.1276 -0.8619
  182SLPC     P20822   5.993   2.790  10.880 -0.3058  0.2773  0.0864
  182SLPC   O1320823   6.040   2.653  10.875  0.5606 -0.0971  0.5033
  182SLPC   O1420824   5.849   2.803  10.910 -0.3401 -0.1614 -0.4331
  182SLPC   O1220825   6.079   2.876  10.984  0.4478  0.2730 -0.3650
  182SLPC   O1120826   6.023   2.856  10.744 -0.0175  0.4119  0.2901
  182SLPC    C120827   6.159   2.889  10.697 -0.1327  0.0467  0.4874
  182SLPC    HA20828   6.169   2.997  10.673 -0.6522 -0.2250 -1.0560
  182SLPC    HB20829   6.232   2.852  10.772  0.0336  0.5406  0.5722
  182SLPC    C220830   6.204   2.810  10.578  0.0092 -0.1677 -0.1789
  182SLPC    HS20831   6.312   2.825  10.555  0.0310  2.0199  1.0413
  182SLPC   O2120832   6.125   2.850  10.459 -0.9235  0.6927 -0.3794
  182SLPC   C2120833   6.158   2.958  10.393 -0.5676 -0.5801 -0.0052
  182SLPC   O2220834   6.240   3.040  10.428 -0.0505 -0.6161 -0.6670
  182SLPC   C2220835   6.067   2.971  10.269 -0.5073 -0.1474  0.0853
  182SLPC   H2R20836   6.016   3.067  10.292 -0.5729 -0.7893  3.0085
  182SLPC   H2S20837   6.141   2.976  10.186 -1.6583 -1.4203 -1.0688
  182SLPC    C320838   6.169   2.654  10.594  0.3327  0.1547  0.0844
  182SLPC    HX20839   6.059   2.657  10.611  0.3265  0.8743 -0.0445
  182SLPC    HY20840   6.211   2.611  10.688  1.0980  0.1196 -0.2622
  182SLPC   O3120841   6.225   2.577  10.477 -0.7335  0.3687  0.8396
  182SLPC   C3120842   6.131   2.530  10.389  0.0632 -0.2109  0.2218
  182SLPC   O3220843   6.010   2.549  10.408 -0.0719 -0.4679 -0.2062
  182SLPC   C3220844   6.184   2.437  10.285 -0.4448  0.0395  0.1404
  182SLPC   H2X20845   6.192   2.337  10.333 -1.7553 -0.5144 -0.7537
  182SLPC   H2Y20846   6.278   2.483  10.248 -0.5435 -1.6487 -2.4545
  182SLPC   C2320847   5.972   2.852  10.242 -0.0932 -0.0112 -1.1487
  182SLPC   H3R20848   5.895   2.865  10.321  0.6698  1.9807 -0.6670
  182SLPC   H3S20849   6.010   2.748  10.250  1.3953  0.5720 -0.2259
  182SLPC   C2420850   5.898   2.878  10.116 -0.1525  0.6289  0.0656
  182SLPC   H4R20851   5.866   2.985  10.108 -3.0153 -0.2046 -0.9944
  182SLPC   H4S20852   5.799   2.828  10.124  1.1941 -2.2171 -0.0563
  182SLPC   C2520853   5.970   2.825   9.993 -0.1069 -0.2431  0.1814
  182SLPC   H5R20854   5.996   2.719  10.012 -0.1781 -0.5347 -1.2655
  182SLPC   H5S20855   6.057   2.888   9.964  0.2768  0.1198  1.9933
  182SLPC   C2620856   5.880   2.813   9.873  0.1476  0.1471 -0.0452
  182SLPC   H6R20857   5.832   2.913   9.863  0.1975  0.3004  1.1184
  182SLPC   H6S20858   5.802   2.737   9.893  0.9705 -0.5754  0.4679
  182SLPC   C2720859   5.965   2.774   9.748 -0.0974 -0.5259  0.1518
  182SLPC   H7R20860   6.031   2.690   9.779  1.5802  0.8410  0.4100
  182SLPC   H7S20861   6.033   2.857   9.718  0.0299 -1.1454 -1.3394
  182SLPC   C2820862   5.891   2.732   9.620  0.0328 -0.1241 -0.5255
  182SLPC   H8R20863   5.850   2.632   9.645  0.5072 -0.4613 -1.0776
  182SLPC   H8S20864   5.960   2.713   9.535 -1.3555 -1.0952 -1.4750
  182SLPC   C2920865   5.790   2.824   9.567  0.2175  0.0513  0.5356
  182SLPC   H9R20866   5.757   2.901   9.639  0.4896  0.6505  0.0309
  182SLPC  C21020867   5.740   2.814   9.442 -0.0631  0.6883 -0.9183
  182SLPC  H10R20868   5.671   2.891   9.403  1.0921  2.4680  0.3742
  182SLPC  C21120869   5.771   2.711   9.332  0.0919 -0.2571 -0.0903
  182SLPC  H11R20870   5.836   2.628   9.367 -1.4471 -2.7687 -2.7892
  182SLPC  H11S20871   5.835   2.762   9.257 -1.8356 -0.8885 -2.2668
  182SLPC  C21220872   5.653   2.649   9.259  0.2169  0.6410  0.3421
  182SLPC  H12R20873   5.619   2.703   9.170  0.1398 -1.9135 -1.2810
  182SLPC  C21320874   5.570   2.549   9.317  0.0121 -0.2779  1.3067
  182SLPC  H13R20875   5.480   2.518   9.263  0.1740 -0.4313  1.1223
  182SLPC  C21420876   5.589   2.484   9.449  0.6830  0.6342 -0.3103
  182SLPC  H14R20877   5.638   2.547   9.526  0.9907  1.1386 -0.9132
  182SLPC  H14S20878   5.649   2.392   9.433 -1.5137 -0.6693 -1.6136
  182SLPC  C21520879   5.456   2.439   9.524  0.9255 -0.0668 -0.2288
  182SLPC  H15R20880   5.396   2.375   9.455  0.8859 -2.5177  1.9239
  182SLPC  H15S20881   5.400   2.528   9.558 -2.7935 -0.5060 -4.3226
  182SLPC  C21620882   5.484   2.347   9.638  0.1451  0.0040 -0.0797
  182SLPC  H16R20883   5.560   2.400   9.700  0.9690  0.2676 -1.2961
  182SLPC  H16S20884   5.531   2.254   9.601 -1.6648 -0.2672 -1.8769
  182SLPC  C21720885   5.359   2.294   9.716 -1.0907  0.1908  0.0229
  182SLPC  H17R20886   5.305   2.242   9.635 -0.3569  2.2993 -1.9168
  182SLPC  H17S20887   5.295   2.378   9.751 -1.4038 -0.4121  0.9442
  182SLPC  C21820888   5.387   2.187   9.822 -0.7416  0.3553 -0.8254
  182SLPC  H18R20889   5.292   2.152   9.869  1.6240 -2.4694  2.3318
  182SLPC  H18S20890   5.445   2.226   9.908 -0.1119 -0.2084 -0.9921
  182SLPC  H18T20891   5.452   2.101   9.798  0.2589  1.3228 -1.6997
  182SLPC   C3320892   6.085   2.427  10.164 -0.0440  0.4514 -0.3131
  182SLPC   H3X20893   6.045   2.529  10.146 -2.2465 -0.0411  1.3651
  182SLPC   H3Y20894   6.000   2.368  10.204  1.3694  0.3968  2.9346
  182SLPC   C3420895   6.148   2.368  10.043  0.5052 -0.0053  0.4332
  182SLPC   H4X20896   6.177   2.264  10.066  1.3243  0.6240  2.4847
  182SLPC   H4Y20897   6.238   2.430  10.022 -0.5320  0.8964 -1.5565
  182SLPC   C3520898   6.046   2.378   9.927 -0.0907 -0.6372  0.6077
  182SLPC   H5X20899   6.046   2.485   9.895 -3.0366 -0.8296 -0.3449
  182SLPC   H5Y20900   5.945   2.338   9.950  0.4112 -1.4809  1.3850
  182SLPC   C3620901   6.098   2.306   9.801  0.1248  0.1248  0.1755
  182SLPC   H6X20902   6.105   2.197   9.824  4.0055 -0.1966 -1.6861
  182SLPC   H6Y20903   6.202   2.337   9.776 -0.2364  2.7140  1.5376
  182SLPC   C3720904   6.006   2.337   9.673 -0.4751 -0.2790 -1.2337
  182SLPC   H7X20905   6.012   2.447   9.662  1.7984 -0.1012  0.8469
  182SLPC   H7Y20906   5.902   2.306   9.697  0.2625 -1.4549  0.6976
  182SLPC   C3820907   6.064   2.257   9.557  0.5061 -0.6474  0.4385
  182SLPC   H8X20908   6.072   2.153   9.596  0.2912 -0.7016  0.3385
  182SLPC   H8Y20909   6.166   2.291   9.528  0.1526 -0.5359 -0.7164
  182SLPC   C3920910   5.969   2.243   9.434 -0.8160 -0.2200 -0.0915
  182SLPC   H9X20911   5.873   2.192   9.454  0.0446 -2.2793 -0.9613
  182SLPC   H9Y20912   6.027   2.163   9.383  2.3472  0.9946  1.3303
  182SLPC  C31020913   5.975   2.360   9.328 -0.4694 -0.0103  0.0897
  182SLPC  H10X20914   6.082   2.387   9.313 -0.3365 -0.4849  0.1603
  182SLPC  H10Y20915   5.934   2.446   9.384  0.0802  0.0311  0.4387
  182SLPC  C31120916   5.905   2.342   9.197  0.5064  0.2542  0.0177
  182SLPC  H11X20917   5.800   2.357   9.232  0.3690 -1.3658  0.3751
  182SLPC  H11Y20918   5.906   2.238   9.157 -1.0469 -0.4223  1.6033
  182SLPC  C31220919   5.953   2.452   9.096  0.6326  0.1632  0.1474
  182SLPC  H12X20920   6.064   2.439   9.098  0.6332  0.2062  0.3448
  182SLPC  H12Y20921   5.926   2.553   9.134 -0.3939 -0.1330  0.2402
  182SLPC  C31320922   5.904   2.423   8.952 -0.4289 -0.1961 -0.0616
  182SLPC  H13X20923   5.794   2.414   8.955 -0.2667 -3.5404 -0.7929
  182SLPC  H13Y20924   5.948   2.325   8.923  1.9211  1.1191 -1.2172
  182SLPC  C31420925   5.953   2.536   8.856  0.2100  0.4823  0.2732
  182SLPC  H14X20926   6.063   2.550   8.867  0.0795  1.3102  0.5908
  182SLPC  H14Y20927   5.904   2.635   8.868 -0.8170 -0.1561  1.5874
  182SLPC  C31520928   5.918   2.496   8.709 -0.4859  0.4718  0.4708
  182SLPC  H15X20929   5.936   2.584   8.643  0.4373 -0.2537 -0.2727
  182SLPC  H15Y20930   5.811   2.469   8.706  0.2380 -2.8108 -0.0955
  182SLPC  C31620931   6.006   2.377   8.654 -0.9691 -0.7079  0.1097
  182SLPC  H16X20932   5.993   2.287   8.718 -1.9433 -0.4390  0.3106
  182SLPC  H16Y20933   6.109   2.414   8.672  0.3900 -3.2202 -1.7513
  182SLPC  C31720934   6.004   2.337   8.504  0.0929 -0.9859 -0.1434
  182SLPC  H17X20935   6.039   2.426   8.448  2.3049  0.5565  3.3067
  182SLPC  H17Y20936   5.899   2.325   8.472  0.2508 -0.3046 -0.9294
  182SLPC  C31820937   6.089   2.219   8.456  0.1962 -0.5730 -0.6089
  182SLPC  H18X20938   6.033   2.124   8.447  1.4928 -1.2752 -1.4242
  182SLPC  H18Y20939   6.173   2.206   8.527  0.5288 -1.4913 -1.1645
  182SLPC  H18Z20940   6.127   2.239   8.354 -0.3846 -0.0913 -0.7415
  183SLPC     N20941   0.663   2.376  11.239 -0.4638  0.1760  0.1891
  183SLPC   C1320942   0.661   2.521  11.208  0.2240  0.1529 -0.0078
  183SLPC  H13A20943   0.581   2.537  11.138 -1.0741  0.9501  1.6003
  183SLPC  H13B20944   0.630   2.581  11.291 -0.7949  0.7212 -0.7786
  183SLPC  H13C20945   0.757   2.551  11.168  1.0439 -1.0176  0.9888
  183SLPC   C1420946   0.538   2.330  11.312  0.0530  0.0114  0.2679
  183SLPC  H14A20947   0.514   2.385  11.401 -2.7366  0.4600 -0.6768
  183SLPC  H14B20948   0.450   2.334  11.250 -2.5562  1.0388  3.7584
  183SLPC  H14C20949   0.543   2.226  11.340  2.5736  0.1168  0.4464
  183SLPC   C1520950   0.777   2.343  11.334  0.7807 -0.2243 -0.3160
  183SLPC  H15A20951   0.754   2.386  11.430  0.4233  0.2905 -0.6230
  183SLPC  H15B20952   0.779   2.236  11.345  1.0036 -0.0882  1.1143
  183SLPC  H15C20953   0.872   2.385  11.306  1.2123 -0.8341  0.2165
  183SLPC   C1220954   0.679   2.300  11.104 -0.5438 -0.1818 -0.0542
  183SLPC  H12A20955   0.701   2.198  11.129  2.0179 -0.0451 -1.4787
  183SLPC  H12B20956   0.771   2.337  11.060 -0.0713  1.6684  2.2459
  183SLPC   C1120957   0.571   2.307  10.998  0.2128  0.0541 -0.3246
  183SLPC  H11A20958   0.476   2.286  11.051  0.9365 -0.1692  0.9133
  183SLPC  H11B20959   0.586   2.238  10.912 -0.8324 -1.5124  0.6925
  183SLPC     P20960   0.640   2.501  10.833 -0.0674 -0.5094  0.4053
  183SLPC   O1320961   0.578   2.631  10.804  0.0386 -0.1165  0.3469
  183SLPC   O1420962   0.777   2.501  10.862 -0.7185 -0.7747 -0.2658
  183SLPC   O1220963   0.553   2.441  10.952  0.2783  0.3376  0.4567
  183SLPC   O1120964   0.610   2.397  10.719 -0.7621  0.5939  0.3154
  183SLPC    C120965   0.472   2.383  10.689  0.0219 -0.5912  0.6152
  183SLPC    HA20966   0.409   2.357  10.777 -0.9053  0.9928  0.4669
  183SLPC    HB20967   0.433   2.479  10.646 -1.2213 -0.8675  1.0907
  183SLPC    C220968   0.443   2.280  10.581  0.3564 -0.2785 -0.0647
  183SLPC    HS20969   0.461   2.178  10.620  1.6717 -0.3440 -0.7904
  183SLPC   O2120970   0.530   2.292  10.462  0.2455  0.0020 -0.0691
  183SLPC   C2120971   0.537   2.404  10.387  0.4799 -0.3651 -0.8158
  183SLPC   O2220972   0.514   2.516  10.423  0.3484 -0.2172  0.1475
  183SLPC   C2220973   0.596   2.370  10.247  0.3480 -0.0453 -0.2096
  183SLPC   H2R20974   0.701   2.404  10.263  0.4419 -1.5622  3.2461
  183SLPC   H2S20975   0.571   2.264  10.224 -1.4738  0.0308  1.2826
  183SLPC    C320976   0.297   2.284  10.531 -0.2629 -0.2123 -0.3491
  183SLPC    HX20977   0.275   2.393  10.518 -0.9139 -0.1029  1.4019
  183SLPC    HY20978   0.237   2.243  10.615 -0.9977  0.7883 -0.3632
  183SLPC   O3120979   0.274   2.220  10.401 -0.2284 -0.1249 -0.1899
  183SLPC   C3120980   0.228   2.089  10.408 -0.2197 -0.7603 -0.2049
  183SLPC   O3220981   0.217   2.029  10.513  0.7404  0.3397  0.1955
  183SLPC   C3220982   0.161   2.039  10.283  0.0811 -0.2121 -0.3896
  183SLPC   H2X20983   0.054   2.022  10.308 -0.2887  2.5506  0.2969
  183SLPC   H2Y20984   0.199   1.945  10.238 -0.1628 -0.4503 -0.1051
  183SLPC   C2320985   0.524   2.455  10.139 -0.6411  0.1774  0.5447
  183SLPC   H3R20986   0.544   2.563  10.155  1.0502 -0.1039  0.4804
  183SLPC   H3S20987   0.419   2.419  10.127  0.3185 -2.4892 -0.6759
  183SLPC   C2420988   0.577   2.425   9.995 -0.0029 -0.3590 -0.0381
  183SLPC   H4R20989   0.597   2.316   9.991 -1.7930 -0.6844 -3.1337
  183SLPC   H4S20990   0.672   2.482   9.984 -1.5680  2.1943 -1.2625
  183SLPC   C2520991   0.475   2.467   9.889 -0.6828  0.2168  0.2626
  183SLPC   H5R20992   0.454   2.576   9.902 -3.8056  0.2033 -2.8742
  183SLPC   H5S20993   0.376   2.416   9.887 -0.0011 -1.1684  0.6948
  183SLPC   C2620994   0.534   2.457   9.749  0.7697 -0.4484 -0.0918
  183SLPC   H6R20995   0.577   2.355   9.744  0.9524 -0.4252  0.8246
  183SLPC   H6S20996   0.620   2.527   9.748  1.0326 -0.6450  2.4026
  183SLPC   C2720997   0.433   2.496   9.636 -0.4898 -0.6195  0.3251
  183SLPC   H7R20998   0.377   2.591   9.654 -1.3479 -1.1491  0.4987
  183SLPC   H7S20999   0.358   2.414   9.639  1.1041 -2.0889  1.4781
  183SLPC   C2821000   0.491   2.482   9.490 -0.3505 -0.4109 -0.5173
  183SLPC   H8R21001   0.412   2.506   9.416  0.3007 -0.1908 -1.1454
  183SLPC   H8S21002   0.531   2.379   9.480  1.0073  0.3133 -3.5473
  183SLPC   C2921003   0.621   2.566   9.472 -0.0737  0.4414 -0.5444
  183SLPC   H9R21004   0.606   2.672   9.446 -0.8607  0.5565  0.3249
  183SLPC  C21021005   0.746   2.516   9.468  0.2211 -0.1913 -0.5395
  183SLPC  H10R21006   0.827   2.582   9.433 -0.8535  2.2263  1.2363
  183SLPC  C21121007   0.781   2.369   9.486 -0.4918 -0.4666 -0.6245
  183SLPC  H11R21008   0.726   2.310   9.410 -0.2355 -1.4063 -0.0944
  183SLPC  H11S21009   0.750   2.336   9.587 -0.7682 -2.4161 -1.3115
  183SLPC  C21221010   0.929   2.349   9.487 -0.2637 -0.8138 -0.1883
  183SLPC  H12R21011   0.982   2.437   9.524 -0.9913  0.3714 -1.8218
  183SLPC  C21321012   0.999   2.247   9.443  0.3999  0.1096 -0.0830
  183SLPC  H13R21013   1.106   2.271   9.453  0.1600  0.9929  0.4461
  183SLPC  C21421014   0.954   2.114   9.389 -0.3088 -0.0795  0.0708
  183SLPC  H14R21015   0.844   2.106   9.393 -0.3850  0.9872  0.7394
  183SLPC  H14S21016   0.979   2.037   9.465  0.2723 -0.8984 -0.9243
  183SLPC  C21521017   1.004   2.079   9.249 -0.0829 -0.4211  0.6154
  183SLPC  H15R21018   0.979   1.972   9.234 -0.5847 -0.3101  0.6094
  183SLPC  H15S21019   1.114   2.092   9.241  0.0588 -1.5347  0.7073
  183SLPC  C21621020   0.928   2.169   9.156  0.5328  0.3052  0.4196
  183SLPC  H16R21021   0.906   2.272   9.193  0.2896  1.0165 -1.5758
  183SLPC  H16S21022   0.826   2.129   9.138  1.2491 -0.8784 -1.3219
  183SLPC  C21721023   0.993   2.197   9.017  0.1422 -0.1796 -0.8274
  183SLPC  H17R21024   1.083   2.260   9.028 -0.7221  1.2585 -1.6824
  183SLPC  H17S21025   0.914   2.251   8.961  0.7587  1.8775  0.2021
  183SLPC  C21821026   1.032   2.068   8.938 -0.0244 -0.5734  0.2686
  183SLPC  H18R21027   1.113   2.010   8.988 -0.1079 -1.1274 -0.2418
  183SLPC  H18S21028   1.084   2.102   8.846 -1.5993 -1.8944 -1.1595
  183SLPC  H18T21029   0.945   2.005   8.912  0.1993 -0.4691 -0.7600
  183SLPC   C3321030   0.169   2.138  10.175  0.3186  0.1873 -0.1668
  183SLPC   H3X21031   0.271   2.178  10.160  0.0949  1.2097  0.9188
  183SLPC   H3Y21032   0.100   2.223  10.194 -2.5613 -2.0313 -0.0531
  183SLPC   C3421033   0.130   2.074  10.042 -0.7492 -0.7157 -1.2157
  183SLPC   H4X21034   0.024   2.042  10.028 -0.8337 -0.4345 -1.2104
  183SLPC   H4Y21035   0.194   1.986  10.021  0.7451 -0.1029  0.4811
  183SLPC   C3521036   0.150   2.177   9.933  0.0405 -0.2920 -0.8104
  183SLPC   H5X21037   0.236   2.240   9.964 -2.0041  0.5958  3.9374
  183SLPC   H5Y21038   0.067   2.252   9.935  2.3179  2.3748  0.2888
  183SLPC   C3621039   0.163   2.120   9.790  0.3760 -0.5699  0.5100
  183SLPC   H6X21040   0.250   2.052   9.798 -0.2344 -1.1590  3.6845
  183SLPC   H6Y21041   0.177   2.201   9.715 -1.3818 -0.7263 -0.0446
  183SLPC   C3721042   0.050   2.030   9.745  0.1195 -0.4152 -0.0768
  183SLPC   H7X21043  -0.051   2.073   9.763  0.2254  0.0613 -0.5914
  183SLPC   H7Y21044   0.058   1.929   9.790 -1.5578 -0.9963 -0.9998
  183SLPC   C3821045   0.063   2.003   9.595  0.5825 -0.2642 -0.5163
  183SLPC   H8X21046   0.158   1.946   9.584  2.3700  1.2927  4.0895
  183SLPC   H8Y21047   0.076   2.103   9.548 -0.4371  0.1257  0.0034
  183SLPC   C3921048  -0.060   1.942   9.530 -0.4278 -0.9255  0.5142
  183SLPC   H9X21049  -0.151   1.999   9.559 -0.3097 -1.0569  1.1675
  183SLPC   H9Y21050  -0.077   1.845   9.583 -2.2001 -0.6763  0.4612
  183SLPC  C31021051  -0.040   1.934   9.378  0.0767  0.4215  0.4171
  183SLPC  H10X21052   0.062   1.894   9.362 -0.0154 -0.6642  2.2162
  183SLPC  H10Y21053  -0.064   2.033   9.333 -2.8651 -0.1285  0.5282
  183SLPC  C31121054  -0.145   1.835   9.326 -0.1550  0.0971  0.3084
  183SLPC  H11X21055  -0.235   1.872   9.379  1.7182  2.7342  1.9017
  183SLPC  H11Y21056  -0.111   1.738   9.370  2.3241  0.5280 -0.5205
  183SLPC  C31221057  -0.156   1.832   9.173 -0.0925  0.0357 -0.3773
  183SLPC  H12X21058  -0.152   1.936   9.132 -0.4614  0.8180  1.4547
  183SLPC  H12Y21059  -0.261   1.803   9.155 -0.7299  2.9271 -2.0659
  183SLPC  C31321060  -0.051   1.739   9.098  0.3561  0.1771  0.0752
  183SLPC  H13X21061   0.043   1.738   9.157  1.3151  2.3148 -1.3048
  183SLPC  H13Y21062  -0.038   1.769   8.992 -0.5943  0.2364 -0.0287
  183SLPC  C31421063  -0.118   1.597   9.103 -0.4985  0.1993 -0.1424
  183SLPC  H14X21064  -0.224   1.615   9.076  0.2470  1.5977 -2.4833
  183SLPC  H14Y21065  -0.126   1.562   9.208  1.8882  5.5896  2.2073
  183SLPC  C31521066  -0.067   1.490   9.008 -0.2592  0.1158  0.3552
  183SLPC  H15X21067   0.037   1.468   9.042  0.0799  1.4305  0.2123
  183SLPC  H15Y21068  -0.061   1.525   8.903  1.7327  0.0142  0.3946
  183SLPC  C31621069  -0.142   1.367   9.013  0.0804  1.1455 -0.3105
  183SLPC  H16X21070  -0.251   1.384   9.000  0.0097  1.8871  1.0621
  183SLPC  H16Y21071  -0.134   1.328   9.117 -1.7803 -1.8694 -1.1548
  183SLPC  C31721072  -0.100   1.263   8.909 -0.2878  0.5563  0.0162
  183SLPC  H17X21073   0.010   1.250   8.917 -0.5037 -1.4450  0.0374
  183SLPC  H17Y21074  -0.117   1.305   8.807 -2.1537  0.3689  0.2134
  183SLPC  C31821075  -0.163   1.125   8.930  0.9013  0.7424  0.0437
  183SLPC  H18X21076  -0.273   1.135   8.917  0.9437 -0.1523 -1.1097
  183SLPC  H18Y21077  -0.132   1.095   9.033 -0.5736  1.4080  0.7133
  183SLPC  H18Z21078  -0.128   1.049   8.858 -0.0105  0.6682 -0.3339
  184SLPC     N21079   6.405   5.312  10.570 -0.1067 -0.1603 -0.3287
  184SLPC   C1321080   6.340   5.335  10.706 -0.0439 -0.0084 -0.0407
  184SLPC  H13A21081   6.290   5.246  10.743 -1.3289  0.8634  0.4099
  184SLPC  H13B21082   6.410   5.363  10.784  1.6877 -0.6013 -1.3209
  184SLPC  H13C21083   6.268   5.414  10.695  1.0801  1.0505  0.0258
  184SLPC   C1421084   6.521   5.221  10.594 -0.2034 -0.0449  0.4175
  184SLPC  H14A21085   6.490   5.118  10.611  1.9145 -0.6337  1.0666
  184SLPC  H14B21086   6.589   5.214  10.510 -0.5329  1.0427  0.0515
  184SLPC  H14C21087   6.579   5.254  10.679  1.3356  2.4548 -1.4700
  184SLPC   C1521088   6.462   5.440  10.511 -0.5659  0.0242 -0.0162
  184SLPC  H15A21089   6.561   5.463  10.548 -1.3473  1.0387  1.5742
  184SLPC  H15B21090   6.476   5.429  10.405 -0.4631 -0.6189  0.0605
  184SLPC  H15C21091   6.400   5.526  10.531  0.9549  0.9193  1.2139
  184SLPC   C1221092   6.315   5.250  10.471  0.3745 -0.0939  0.5151
  184SLPC  H12A21093   6.313   5.144  10.490  1.9619 -0.4685 -1.1339
  184SLPC  H12B21094   6.369   5.250  10.377 -0.2266 -3.3229  0.0510
  184SLPC   C1121095   6.174   5.303  10.445  0.4903 -1.1469  0.0772
  184SLPC  H11A21096   6.150   5.308  10.337  3.9383  0.0062 -0.7600
  184SLPC  H11B21097   6.173   5.412  10.466 -1.0119 -1.5219  2.4360
  184SLPC     P21098   5.936   5.273  10.535 -0.4007  0.0990  0.5669
  184SLPC   O1321099   5.851   5.158  10.575 -0.5899 -0.1016 -0.4456
  184SLPC   O1421100   5.919   5.404  10.597 -0.3618  0.9896  0.1542
  184SLPC   O1221101   6.086   5.232  10.539 -0.1897 -0.1947 -0.5727
  184SLPC   O1121102   5.910   5.282  10.371  0.2549 -1.0717  0.0528
  184SLPC    C121103   5.824   5.385  10.329  0.0417  0.2997  0.1473
  184SLPC    HA21104   5.730   5.404  10.385  0.0958  0.8330  0.0607
  184SLPC    HB21105   5.887   5.475  10.347 -0.7190  0.4283  2.5900
  184SLPC    C221106   5.788   5.377  10.179 -0.0122  0.2436 -0.1048
  184SLPC    HS21107   5.739   5.476  10.163 -0.6174 -0.1056 -0.5036
  184SLPC   O2121108   5.705   5.257  10.162  0.2740 -0.2846  0.7196
  184SLPC   C2121109   5.584   5.268  10.208 -0.1715 -0.0319 -0.0501
  184SLPC   O2221110   5.539   5.365  10.263  0.1471 -0.6249  0.0108
  184SLPC   C2221111   5.498   5.152  10.182  0.8185  0.2535 -0.5781
  184SLPC   H2R21112   5.567   5.069  10.156  0.4026 -0.5398  0.7206
  184SLPC   H2S21113   5.444   5.124  10.276  2.3716  0.1117  0.3147
  184SLPC    C321114   5.917   5.367  10.079  0.8654  0.1011 -0.5894
  184SLPC    HX21115   5.975   5.278  10.112  0.5051 -0.1535 -0.6389
  184SLPC    HY21116   5.979   5.459  10.088  0.1634  0.5773 -0.5138
  184SLPC   O3121117   5.885   5.342   9.936 -0.7254 -0.2300  0.2071
  184SLPC   C3121118   5.832   5.448   9.867  0.2149  0.8133  0.2342
  184SLPC   O3221119   5.788   5.547   9.921 -0.2743  0.2375 -0.1629
  184SLPC   C3221120   5.837   5.423   9.718 -0.4008  0.0616  0.6020
  184SLPC   H2X21121   5.789   5.330   9.680  0.2026  0.8825 -2.4750
  184SLPC   H2Y21122   5.946   5.425   9.698 -0.7651 -0.5985 -1.7919
  184SLPC   C2321123   5.404   5.188  10.071  0.8523 -0.5752 -0.1128
  184SLPC   H3R21124   5.325   5.262  10.097 -0.4758 -2.1575  0.5271
  184SLPC   H3S21125   5.355   5.091  10.045 -3.1240  1.2247 -0.0493
  184SLPC   C2421126   5.471   5.243   9.941 -0.0726  0.0215 -0.1424
  184SLPC   H4R21127   5.549   5.169   9.911  1.8864  1.8637  0.1303
  184SLPC   H4S21128   5.508   5.342   9.975 -1.4273  0.9406 -1.2532
  184SLPC   C2521129   5.358   5.275   9.835  0.1024  0.4555 -0.6478
  184SLPC   H5R21130   5.296   5.363   9.865  1.4241  0.9340  0.7769
  184SLPC   H5S21131   5.300   5.182   9.817  1.2727 -0.3454 -0.4127
  184SLPC   C2621132   5.424   5.309   9.706  0.3096  0.8735  0.2948
  184SLPC   H6R21133   5.464   5.215   9.663 -0.9638 -0.3100  1.6261
  184SLPC   H6S21134   5.511   5.378   9.712  1.3817 -0.4862  0.8825
  184SLPC   C2721135   5.323   5.376   9.600  0.0492 -0.2067  0.3703
  184SLPC   H7R21136   5.298   5.480   9.630 -0.6862  0.0863 -1.1959
  184SLPC   H7S21137   5.231   5.314   9.609 -0.0519 -0.4527 -1.7965
  184SLPC   C2821138   5.369   5.383   9.451  0.3394  0.2868 -0.1712
  184SLPC   H8R21139   5.477   5.407   9.459  0.6092 -1.1511  1.0566
  184SLPC   H8S21140   5.317   5.468   9.403 -1.7061 -1.6858 -1.6539
  184SLPC   C2921141   5.340   5.253   9.377 -0.2174 -0.1901 -0.3440
  184SLPC   H9R21142   5.376   5.163   9.429 -0.2339  1.1842  2.1904
  184SLPC  C21021143   5.306   5.242   9.245 -0.3466  0.1482  0.1295
  184SLPC  H10R21144   5.288   5.141   9.204  1.6548 -1.1601  2.2227
  184SLPC  C21121145   5.287   5.353   9.143 -0.7915  0.1321 -0.5708
  184SLPC  H11R21146   5.347   5.326   9.054  2.2360  1.3978  0.9330
  184SLPC  H11S21147   5.330   5.442   9.195  2.0298 -1.5876  0.2769
  184SLPC  C21221148   5.145   5.376   9.107  0.2806 -0.1752 -0.1096
  184SLPC  H12R21149   5.077   5.372   9.193 -0.2678  1.4345 -0.4429
  184SLPC  C21321150   5.102   5.397   8.986  0.4083 -0.2832  0.1358
  184SLPC  H13R21151   4.993   5.403   8.968  0.3598  1.1982  0.7406
  184SLPC  C21421152   5.180   5.398   8.859  1.0576 -0.6524 -0.2514
  184SLPC  H14R21153   5.290   5.410   8.870  0.8456 -0.3891  2.3891
  184SLPC  H14S21154   5.142   5.488   8.808  2.1026  0.1586  0.3648
  184SLPC  C21521155   5.150   5.269   8.783  0.0886  0.0801 -0.1447
  184SLPC  H15R21156   5.140   5.183   8.852  0.5161 -0.5661 -0.8772
  184SLPC  H15S21157   5.233   5.256   8.710  1.2041  0.7779  0.9589
  184SLPC  C21621158   5.016   5.282   8.705 -0.0043  0.3576  0.6981
  184SLPC  H16R21159   5.032   5.364   8.631  1.8277 -0.8933 -0.3763
  184SLPC  H16S21160   4.933   5.320   8.767 -1.2530  2.2250 -1.9208
  184SLPC  C21721161   4.977   5.160   8.624 -0.5199 -0.1367 -0.4624
  184SLPC  H17R21162   4.965   5.064   8.679  5.1332 -1.3681 -0.7430
  184SLPC  H17S21163   5.064   5.139   8.559 -0.5434 -0.9414 -0.2454
  184SLPC  C21821164   4.852   5.182   8.539 -0.6600  0.2247  0.8399
  184SLPC  H18R21165   4.776   5.225   8.608 -1.1744  0.1428  0.3335
  184SLPC  H18S21166   4.818   5.087   8.493 -1.5797  0.1320  1.6586
  184SLPC  H18T21167   4.872   5.254   8.457  2.5701 -2.1199 -0.6608
  184SLPC   C3321168   5.769   5.541   9.651 -0.6943  0.6459  0.3446
  184SLPC   H3X21169   5.807   5.639   9.687 -3.0238  0.4343  3.8360
  184SLPC   H3Y21170   5.662   5.555   9.680 -0.9292  0.6570 -0.5037
  184SLPC   C3421171   5.782   5.522   9.497  0.4304 -0.2824 -0.1663
  184SLPC   H4X21172   5.740   5.424   9.465  1.4843 -1.2524  1.2891
  184SLPC   H4Y21173   5.889   5.531   9.471  0.5694  0.2974  0.5505
  184SLPC   C3521174   5.690   5.630   9.425  0.1618 -0.3624 -0.5146
  184SLPC   H5X21175   5.713   5.732   9.462 -1.8735  1.0172 -2.7127
  184SLPC   H5Y21176   5.584   5.607   9.450 -0.1200  2.0490  0.8033
  184SLPC   C3621177   5.699   5.654   9.272  0.1403  0.6615 -0.3399
  184SLPC   H6X21178   5.809   5.653   9.254  0.3557 -0.4016  0.8953
  184SLPC   H6Y21179   5.674   5.757   9.238  0.0825  0.9971  0.6900
  184SLPC   C3721180   5.651   5.537   9.187 -0.5691 -1.0079  0.0627
  184SLPC   H7X21181   5.540   5.524   9.194 -1.0739  2.5745  0.5738
  184SLPC   H7Y21182   5.689   5.439   9.224  1.3664 -0.6217 -0.8093
  184SLPC   C3821183   5.675   5.547   9.034  0.9379 -0.0218  0.8471
  184SLPC   H8X21184   5.629   5.642   9.001  1.4655 -0.3708 -0.9988
  184SLPC   H8Y21185   5.620   5.470   8.976  0.7681  0.3098  0.5665
  184SLPC   C3921186   5.816   5.554   8.985 -0.2226 -0.8497 -0.4851
  184SLPC   H9X21187   5.872   5.475   9.040 -1.3840 -0.1138  1.9113
  184SLPC   H9Y21188   5.864   5.642   9.035  2.5791 -2.9318  0.8185
  184SLPC  C31021189   5.832   5.577   8.834  0.2645  0.9316  0.4090
  184SLPC  H10X21190   5.760   5.654   8.799 -0.5453  0.0684  0.1224
  184SLPC  H10Y21191   5.787   5.487   8.785 -1.0733  2.3426 -1.0738
  184SLPC  C31121192   5.980   5.601   8.788 -0.6664 -0.4919 -0.1976
  184SLPC  H11X21193   6.035   5.512   8.825 -1.7371 -0.4335  1.6503
  184SLPC  H11Y21194   6.019   5.694   8.834 -0.8487 -0.0047 -1.0048
  184SLPC  C31221195   6.001   5.610   8.638  0.8019  0.4643 -0.9300
  184SLPC  H12X21196   5.968   5.711   8.605  0.9017  1.7384  2.4337
  184SLPC  H12Y21197   5.951   5.520   8.597  1.0061 -0.2782  0.3901
  184SLPC  C31321198   6.149   5.602   8.598 -0.9583 -0.2077 -0.2689
  184SLPC  H13X21199   6.189   5.499   8.587  1.1409  0.4454  0.6920
  184SLPC  H13Y21200   6.213   5.655   8.672  0.1005  1.0073 -1.9833
  184SLPC  C31421201   6.175   5.668   8.453 -0.1266  0.1769 -0.6893
  184SLPC  H14X21202   6.280   5.650   8.424  0.4463  2.0897  0.0149
  184SLPC  H14Y21203   6.157   5.778   8.460  3.5875  1.0668 -2.6305
  184SLPC  C31521204   6.085   5.600   8.351  0.4058  0.6452 -0.6136
  184SLPC  H15X21205   5.985   5.646   8.362  0.6471  1.2728 -0.9927
  184SLPC  H15Y21206   6.082   5.491   8.376 -0.9384  1.1766  1.8511
  184SLPC  C31621207   6.145   5.630   8.212  0.6014  0.6864  0.6851
  184SLPC  H16X21208   6.247   5.586   8.217  1.2618  1.9133 -1.1124
  184SLPC  H16Y21209   6.174   5.737   8.206 -1.4652  1.3129  1.1395
  184SLPC  C31721210   6.065   5.586   8.089  0.2479  0.7547 -0.3692
  184SLPC  H17X21211   6.038   5.478   8.096  1.8363  0.2535 -1.3346
  184SLPC  H17Y21212   6.139   5.585   8.005  1.4911 -0.6285  0.6843
  184SLPC  C31821213   5.946   5.666   8.043 -0.1078 -0.1210 -0.4798
  184SLPC  H18X21214   5.903   5.626   7.949  1.2716 -0.6146 -0.9257
  184SLPC  H18Y21215   5.986   5.768   8.023  0.2512 -0.4221 -1.3349
  184SLPC  H18Z21216   5.876   5.683   8.127 -0.2731  2.3406 -1.0187
  185SLPC     N21217   3.257   0.173   6.368  0.1981 -0.3127  0.9495
  185SLPC   C1321218   3.188   0.045   6.394 -0.0057  0.4831  0.0741
  185SLPC  H13A21219   3.188   0.017   6.499 -3.4748  0.2015  0.0919
  185SLPC  H13B21220   3.086   0.047   6.359 -0.2087  0.1440  0.6330
  185SLPC  H13C21221   3.237  -0.032   6.336 -0.0298  0.5604 -0.0464
  185SLPC   C1421222   3.215   0.271   6.475 -0.5421  0.0085  0.0365
  185SLPC  H14A21223   3.110   0.292   6.459  0.0472  0.7518 -3.7353
  185SLPC  H14B21224   3.242   0.233   6.572  1.0509 -0.7650 -0.6593
  185SLPC  H14C21225   3.275   0.360   6.467  1.2017 -1.2573 -2.2637
  185SLPC   C1521226   3.204   0.227   6.233  0.1937 -0.4837 -0.4417
  185SLPC  H15A21227   3.226   0.161   6.150 -2.7996 -1.7534 -0.3687
  185SLPC  H15B21228   3.097   0.240   6.238  0.3162  1.0415 -1.2760
  185SLPC  H15C21229   3.246   0.325   6.216 -0.5683 -0.3310 -1.5264
  185SLPC   C1221230   3.405   0.160   6.370 -0.2271  0.3796  0.2735
  185SLPC  H12A21231   3.427   0.073   6.310 -1.3284 -1.7814  2.7848
  185SLPC  H12B21232   3.443   0.136   6.468  3.4027 -4.2285 -1.8706
  185SLPC   C1121233   3.489   0.282   6.331  0.7311  0.4486 -0.2265
  185SLPC  H11A21234   3.459   0.358   6.407 -0.3834 -0.1003 -0.1040
  185SLPC  H11B21235   3.468   0.332   6.234  0.9164 -1.1725 -1.1358
  185SLPC     P21236   3.693   0.208   6.469 -0.0503  0.1435  0.1250
  185SLPC   O1321237   3.643   0.080   6.520 -0.3151 -0.3078 -0.1506
  185SLPC   O1421238   3.835   0.216   6.450  0.1210  0.3678  0.2683
  185SLPC   O1221239   3.625   0.257   6.331  0.0680  0.6167 -0.1018
  185SLPC   O1121240   3.648   0.317   6.570 -0.0023  0.7150 -0.3576
  185SLPC    C121241   3.706   0.443   6.580  0.5682 -0.2368 -0.5322
  185SLPC    HA21242   3.805   0.446   6.530 -0.3434  3.3810 -2.4809
  185SLPC    HB21243   3.655   0.525   6.525  1.7107  0.2755 -0.8485
  185SLPC    C221244   3.704   0.477   6.728  0.0817 -0.4501 -0.2387
  185SLPC    HS21245   3.763   0.571   6.737 -0.7649  0.2078 -1.2268
  185SLPC   O2121246   3.766   0.365   6.806  0.1767  0.1679  0.4736
  185SLPC   C2121247   3.894   0.356   6.789  0.2404  0.4517  0.3496
  185SLPC   O2221248   3.966   0.435   6.726  0.0658  0.1495  0.3590
  185SLPC   C2221249   3.937   0.238   6.875 -0.5914  0.4424 -0.2068
  185SLPC   H2R21250   3.883   0.152   6.832  0.2285 -0.4590  0.5182
  185SLPC   H2S21251   4.045   0.216   6.858 -0.8539 -1.3868  0.3401
  185SLPC    C321252   3.561   0.514   6.782  0.0432  0.6364 -0.7596
  185SLPC    HX21253   3.484   0.445   6.741  0.7336 -1.0992  0.7034
  185SLPC    HY21254   3.530   0.616   6.753 -1.5336  0.0553 -1.2385
  185SLPC   O3121255   3.566   0.520   6.928  0.4552 -0.1245 -0.2788
  185SLPC   C3121256   3.479   0.432   6.994 -0.7851  0.5876  0.2584
  185SLPC   O3221257   3.422   0.340   6.935 -0.2663  0.3789  0.4566
  185SLPC   C3221258   3.491   0.453   7.149  0.3368  0.3636  0.3447
  185SLPC   H2X21259   3.564   0.535   7.162 -0.2046  1.1833 -1.5064
  185SLPC   H2Y21260   3.540   0.367   7.200 -0.2073  0.5883  1.2555
  185SLPC   C2321261   3.915   0.263   7.029  0.6855  0.5979  0.3864
  185SLPC   H3R21262   3.889   0.368   7.054 -1.8302 -0.1564  1.2682
  185SLPC   H3S21263   4.014   0.245   7.076  0.1296 -1.4964  0.8719
  185SLPC   C2421264   3.813   0.159   7.091 -0.7765 -0.1296 -0.3596
  185SLPC   H4R21265   3.821   0.070   7.026 -1.1611  0.5134 -1.3012
  185SLPC   H4S21266   3.710   0.198   7.096 -1.1357 -1.0948  0.0631
  185SLPC   C2521267   3.852   0.126   7.234 -0.4903  0.0600 -1.1177
  185SLPC   H5R21268   3.960   0.097   7.233 -0.3472  0.4880 -0.0764
  185SLPC   H5S21269   3.804   0.032   7.270  1.1661 -1.3014 -2.2709
  185SLPC   C2621270   3.834   0.235   7.339 -0.0789  0.2538 -0.1150
  185SLPC   H6R21271   3.725   0.251   7.353  0.2037 -0.2529  3.5119
  185SLPC   H6S21272   3.890   0.324   7.303 -0.2834 -0.5968 -2.7397
  185SLPC   C2721273   3.900   0.191   7.474 -0.9615  0.3177 -0.6786
  185SLPC   H7R21274   4.011   0.181   7.473 -0.8714  1.1662 -1.4201
  185SLPC   H7S21275   3.863   0.091   7.504  0.1418 -0.2590 -1.1790
  185SLPC   C2821276   3.867   0.291   7.592  0.3801 -0.2704 -0.4044
  185SLPC   H8R21277   3.877   0.241   7.691 -1.0406 -0.2158 -0.2071
  185SLPC   H8S21278   3.760   0.316   7.575  0.4625  0.2621 -0.1659
  185SLPC   C2921279   3.938   0.423   7.584  0.1387 -0.3377 -0.6154
  185SLPC   H9R21280   3.909   0.480   7.495 -0.5133  0.2006 -0.0706
  185SLPC  C21021281   4.014   0.486   7.676 -0.8963  0.3129 -0.0604
  185SLPC  H10R21282   4.045   0.590   7.661  0.1411  0.1374  0.7510
  185SLPC  C21121283   4.045   0.434   7.812 -0.8407  1.0933 -0.4088
  185SLPC  H11R21284   4.069   0.325   7.807 -0.8484  0.8385  2.8336
  185SLPC  H11S21285   3.957   0.442   7.880 -0.3584 -0.6434  0.4788
  185SLPC  C21221286   4.159   0.493   7.892 -0.6663  0.2050 -0.1037
  185SLPC  H12R21287   4.200   0.584   7.844  0.4915 -0.1444  0.1854
  185SLPC  C21321288   4.190   0.462   8.018  0.5424  0.2334  0.5845
  185SLPC  H13R21289   4.273   0.514   8.068 -0.6059  2.6568  0.0864
  185SLPC  C21421290   4.118   0.356   8.100  0.8431  0.0941 -0.5546
  185SLPC  H14R21291   4.196   0.285   8.135  0.4775  0.9419  2.2566
  185SLPC  H14S21292   4.035   0.301   8.050  1.2864 -0.5162 -0.6400
  185SLPC  C21521293   4.065   0.417   8.230 -0.6029 -0.3155 -0.0264
  185SLPC  H15R21294   4.140   0.470   8.293  0.0966  1.8002 -2.5029
  185SLPC  H15S21295   3.999   0.344   8.283 -0.5617  1.1376  2.1636
  185SLPC  C21621296   3.967   0.533   8.205  0.8072  0.0537  0.1690
  185SLPC  H16R21297   3.914   0.525   8.107 -0.4789  4.6446  0.2607
  185SLPC  H16S21298   4.024   0.626   8.184 -0.3553  0.5858 -0.8213
  185SLPC  C21721299   3.861   0.549   8.317  0.6339 -0.1882  0.1233
  185SLPC  H17R21300   3.932   0.574   8.398  1.1156  0.4476 -0.4862
  185SLPC  H17S21301   3.807   0.451   8.326 -3.2869  1.5895 -1.4490
  185SLPC  C21821302   3.762   0.664   8.287 -0.5373  0.0097  0.5830
  185SLPC  H18R21303   3.692   0.637   8.205 -2.1391 -0.4794  2.0315
  185SLPC  H18S21304   3.813   0.758   8.256 -3.3744  1.3254 -0.4606
  185SLPC  H18T21305   3.712   0.698   8.380  1.0931 -2.1543  2.3795
  185SLPC   C3321306   3.353   0.479   7.210 -0.4649  0.7208 -0.7316
  185SLPC   H3X21307   3.300   0.381   7.212  3.2121 -1.4108  0.8365
  185SLPC   H3Y21308   3.303   0.548   7.137 -1.4027 -0.0741 -0.8638
  185SLPC   C3421309   3.358   0.548   7.347  0.4562 -0.4759  0.3731
  185SLPC   H4X21310   3.343   0.657   7.333 -0.7013 -0.6965 -0.1862
  185SLPC   H4Y21311   3.456   0.535   7.398 -0.2783  2.1194  2.7127
  185SLPC   C3521312   3.248   0.500   7.447 -0.1825 -0.2350  0.2807
  185SLPC   H5X21313   3.274   0.395   7.475 -1.1267 -0.4213  0.5064
  185SLPC   H5Y21314   3.154   0.493   7.388 -0.1368  2.6040 -0.2587
  185SLPC   C3621315   3.246   0.568   7.580  0.2011  0.7478  0.3688
  185SLPC   H6X21316   3.180   0.657   7.576 -0.1137  0.4736 -2.2440
  185SLPC   H6Y21317   3.354   0.584   7.599  0.7647 -2.2183  0.2106
  185SLPC   C3721318   3.202   0.476   7.701  0.4666  0.6852  0.5253
  185SLPC   H7X21319   3.266   0.385   7.701  0.5956  0.7353 -1.2417
  185SLPC   H7Y21320   3.100   0.433   7.686  1.0793 -0.7048  0.1903
  185SLPC   C3821321   3.221   0.551   7.840 -0.7237 -0.5304 -0.2257
  185SLPC   H8X21322   3.132   0.617   7.848 -0.5769 -0.2977 -0.5050
  185SLPC   H8Y21323   3.319   0.602   7.835 -0.7725 -0.3834  0.2264
  185SLPC   C3921324   3.214   0.459   7.964  0.9082  0.2230  0.2220
  185SLPC   H9X21325   3.246   0.358   7.933 -1.7076 -0.6034 -0.0665
  185SLPC   H9Y21326   3.106   0.457   7.992  1.4559  0.3260  2.5110
  185SLPC  C31021327   3.288   0.522   8.080 -0.5327 -0.0731 -0.6068
  185SLPC  H10X21328   3.314   0.627   8.054  1.9727 -0.5164 -0.1555
  185SLPC  H10Y21329   3.381   0.464   8.099 -1.4501 -1.3474  0.1866
  185SLPC  C31121330   3.205   0.536   8.211 -0.7251  0.1281 -0.4354
  185SLPC  H11X21331   3.154   0.439   8.232 -1.2761 -0.0378 -2.3555
  185SLPC  H11Y21332   3.129   0.611   8.180 -0.8109  1.5003  2.7378
  185SLPC  C31221333   3.284   0.594   8.327  0.5057  0.3012 -0.3110
  185SLPC  H12X21334   3.380   0.539   8.342  1.5314  2.2347  0.6095
  185SLPC  H12Y21335   3.231   0.574   8.422  2.2432  2.7855  1.2734
  185SLPC  C31321336   3.321   0.737   8.310 -0.2549  0.5783 -0.0962
  185SLPC  H13X21337   3.238   0.805   8.281  1.0986  1.8971 -1.0001
  185SLPC  H13Y21338   3.399   0.746   8.232 -0.9148  1.7724 -0.6518
  185SLPC  C31421339   3.394   0.800   8.432  0.4345 -0.3713 -0.8306
  185SLPC  H14X21340   3.484   0.735   8.441 -1.4093 -2.8785  0.6539
  185SLPC  H14Y21341   3.335   0.800   8.526  0.9536  1.7668 -0.4518
  185SLPC  C31521342   3.437   0.943   8.409 -0.7151 -0.2379 -0.2894
  185SLPC  H15X21343   3.352   1.010   8.384 -0.0761  0.3486 -0.9535
  185SLPC  H15Y21344   3.508   0.942   8.323 -0.0630 -3.0912  0.1807
  185SLPC  C31621345   3.510   1.004   8.531  0.3559  0.1534 -0.3552
  185SLPC  H16X21346   3.588   0.925   8.541 -0.7727 -0.7175  2.6854
  185SLPC  H16Y21347   3.449   1.011   8.623 -3.0989  2.1231 -2.5882
  185SLPC  C31721348   3.589   1.132   8.506  0.4135  1.0021  0.1873
  185SLPC  H17X21349   3.643   1.152   8.601 -0.0406  0.5175  0.5506
  185SLPC  H17Y21350   3.515   1.212   8.484 -0.5316  0.4287  1.1753
  185SLPC  C31821351   3.686   1.126   8.394  0.1734  0.8756 -0.5790
  185SLPC  H18X21352   3.632   1.143   8.298 -2.0448  0.9064  0.5879
  185SLPC  H18Y21353   3.742   1.030   8.396 -1.3313 -0.0348  0.4344
  185SLPC  H18Z21354   3.756   1.211   8.400 -0.9989  1.8092  0.4444
  186SLPC     N21355   3.908   4.171   5.922 -0.5678  0.3476  0.4016
  186SLPC   C1321356   4.041   4.202   5.858  0.1910  0.3970  0.0785
  186SLPC  H13A21357   4.030   4.223   5.753 -2.0414  0.0335  0.1805
  186SLPC  H13B21358   4.094   4.292   5.885 -0.2387  1.5019 -2.4844
  186SLPC  H13C21359   4.110   4.121   5.876  1.5967  1.5075 -0.1169
  186SLPC   C1421360   3.851   4.044   5.862 -0.4159 -0.4980  0.3829
  186SLPC  H14A21361   3.745   4.034   5.881 -0.6047  0.3015 -0.2240
  186SLPC  H14B21362   3.867   4.041   5.755 -1.8743 -1.0235  0.1627
  186SLPC  H14C21363   3.897   3.958   5.909 -0.0734  0.0964  1.1457
  186SLPC   C1521364   3.823   4.281   5.891  0.6958  0.1408  0.6569
  186SLPC  H15A21365   3.832   4.317   5.789  1.0046  1.3515  1.0932
  186SLPC  H15B21366   3.721   4.265   5.922  0.7889  1.1849  1.5734
  186SLPC  H15C21367   3.848   4.364   5.955  0.1256 -0.0337  1.1094
  186SLPC   C1221368   3.921   4.160   6.075  0.1479  0.5714 -0.2863
  186SLPC  H12A21369   3.981   4.244   6.105 -0.1426  0.6766  0.0026
  186SLPC  H12B21370   3.972   4.067   6.096  0.8370  1.0230  0.0479
  186SLPC   C1121371   3.787   4.164   6.154 -0.0712  1.2321  0.5692
  186SLPC  H11A21372   3.740   4.261   6.127  2.8258  2.1346 -1.6953
  186SLPC  H11B21373   3.805   4.171   6.263  0.7860 -0.9657  0.6046
  186SLPC     P21374   3.678   3.927   6.196 -0.2268 -0.0849  0.3164
  186SLPC   O1321375   3.604   3.831   6.117  0.2379  0.7871  0.2854
  186SLPC   O1421376   3.801   3.882   6.254  0.4603 -0.0996 -0.4820
  186SLPC   O1221377   3.701   4.062   6.115 -0.5308 -0.0020 -0.1552
  186SLPC   O1121378   3.593   3.984   6.312 -0.8233 -0.2493 -0.5485
  186SLPC    C121379   3.521   3.898   6.401  0.0417  0.1044 -0.3870
  186SLPC    HA21380   3.411   3.915   6.406 -0.1257 -0.4270 -1.8502
  186SLPC    HB21381   3.528   3.791   6.374 -2.2529 -0.2783  0.3528
  186SLPC    C221382   3.561   3.916   6.553 -0.0869 -0.3973  0.1882
  186SLPC    HS21383   3.540   3.819   6.602  1.9829 -0.9755  0.0082
  186SLPC   O2121384   3.483   4.028   6.601  0.6563 -0.2219 -0.0906
  186SLPC   C2121385   3.427   4.017   6.718 -0.1094  0.8487 -0.6168
  186SLPC   O2221386   3.431   3.922   6.799 -0.7994  0.4913 -0.0930
  186SLPC   C2221387   3.341   4.142   6.740  0.3774 -1.1962  0.6565
  186SLPC   H2R21388   3.372   4.199   6.831  0.6416  0.4446 -0.4192
  186SLPC   H2S21389   3.363   4.209   6.655 -1.4352 -1.5254 -0.1162
  186SLPC    C321390   3.713   3.939   6.571  0.7307 -0.3082 -0.4435
  186SLPC    HX21391   3.732   4.045   6.544  0.4505 -0.0918  0.1778
  186SLPC    HY21392   3.773   3.883   6.497  0.7912 -0.3573 -0.3570
  186SLPC   O3121393   3.754   3.909   6.705 -0.1700 -0.1347 -0.1347
  186SLPC   C3121394   3.886   3.902   6.730 -1.2495  0.1383  0.1966
  186SLPC   O3221395   3.970   3.919   6.643 -0.5078  0.1574  0.5180
  186SLPC   C3221396   3.921   3.881   6.873  1.2692  0.5906 -0.1468
  186SLPC   H2X21397   3.826   3.853   6.924  1.2677  1.2909  0.2427
  186SLPC   H2Y21398   3.948   3.979   6.919  2.6668 -0.0484  0.4634
  186SLPC   C2321399   3.190   4.125   6.746  0.3620  0.2256 -0.3880
  186SLPC   H3R21400   3.157   4.060   6.662 -2.7059  0.2005  0.7165
  186SLPC   H3S21401   3.136   4.219   6.719 -2.0970 -1.1706 -0.5947
  186SLPC   C2421402   3.159   4.072   6.884  0.2687  0.1066 -0.1428
  186SLPC   H4R21403   3.225   3.984   6.898  0.4614  0.4659  1.3628
  186SLPC   H4S21404   3.052   4.041   6.892  0.2385  0.6783  2.5572
  186SLPC   C2521405   3.178   4.170   7.000  0.8751 -0.2326 -0.1643
  186SLPC   H5R21406   3.133   4.267   6.970 -0.6263 -0.6340  0.6936
  186SLPC   H5S21407   3.286   4.181   7.021  0.4379  1.6837  1.3856
  186SLPC   C2621408   3.116   4.110   7.123 -0.0019 -0.0072 -0.8998
  186SLPC   H6R21409   3.026   4.054   7.091  0.4675 -1.5098  0.3235
  186SLPC   H6S21410   3.092   4.190   7.196  1.1866  0.6454 -1.2069
  186SLPC   C2721411   3.218   4.014   7.187 -0.1474  0.3108 -0.7973
  186SLPC   H7R21412   3.292   4.079   7.238 -0.8828 -0.0863  0.8572
  186SLPC   H7S21413   3.268   3.958   7.105 -1.6019 -0.5402 -1.1488
  186SLPC   C2821414   3.145   3.927   7.296  0.7355  0.5522  0.1067
  186SLPC   H8R21415   3.059   3.878   7.245  0.4076 -1.4666  2.4279
  186SLPC   H8S21416   3.095   3.994   7.370 -0.1162 -0.9957  0.9761
  186SLPC   C2921417   3.236   3.834   7.370 -0.1068 -0.5385  0.6186
  186SLPC   H9R21418   3.286   3.767   7.299  1.5892  0.8816  0.3909
  186SLPC  C21021419   3.258   3.826   7.501  0.5946 -0.4063 -0.7670
  186SLPC  H10R21420   3.340   3.768   7.547 -0.4383  0.7594  2.8988
  186SLPC  C21121421   3.200   3.919   7.607 -0.8577 -0.1442  0.5643
  186SLPC  H11R21422   3.096   3.894   7.634 -0.1823 -1.2087  2.3222
  186SLPC  H11S21423   3.185   4.019   7.560  0.5346  0.6871  1.8064
  186SLPC  C21221424   3.282   3.926   7.734 -0.1275 -0.7785 -0.8047
  186SLPC  H12R21425   3.349   4.013   7.745  1.2341 -2.0080  1.4681
  186SLPC  C21321426   3.290   3.830   7.826 -0.2216 -0.5766  0.2938
  186SLPC  H13R21427   3.367   3.830   7.904  0.9470  2.6988 -0.6980
  186SLPC  C21421428   3.207   3.705   7.829 -0.9165 -0.0493  0.4721
  186SLPC  H14R21429   3.272   3.616   7.843 -0.3273  0.1457 -0.8362
  186SLPC  H14S21430   3.150   3.679   7.737  0.0802  0.1108 -0.2051
  186SLPC  C21521431   3.094   3.718   7.934  0.3046  0.2748  0.4893
  186SLPC  H15R21432   3.020   3.637   7.918  1.1078 -0.1412 -1.4092
  186SLPC  H15S21433   3.039   3.815   7.933  0.1729  0.2234 -1.5580
  186SLPC  C21621434   3.152   3.711   8.082 -0.4131 -0.1498  0.0731
  186SLPC  H16R21435   3.065   3.704   8.152 -0.1850 -1.0552  0.2852
  186SLPC  H16S21436   3.214   3.803   8.089  0.2618 -0.5226 -0.9336
  186SLPC  C21721437   3.251   3.601   8.104 -0.4903 -0.1062 -0.5393
  186SLPC  H17R21438   3.290   3.604   8.208 -2.7966 -1.8413  0.4552
  186SLPC  H17S21439   3.339   3.621   8.039  0.0403 -0.1708  0.1454
  186SLPC  C21821440   3.224   3.458   8.073 -0.8470  1.7233 -0.2683
  186SLPC  H18R21441   3.309   3.390   8.095 -3.2482 -1.1968  0.8204
  186SLPC  H18S21442   3.190   3.457   7.967 -3.0136 -0.7980  0.3215
  186SLPC  H18T21443   3.132   3.416   8.119  0.2620  1.0874  1.4373
  186SLPC   C3321444   4.042   3.773   6.878 -0.0631 -0.2949  0.1735
  186SLPC   H3X21445   4.127   3.835   6.842 -1.9935  1.9779 -0.7477
  186SLPC   H3Y21446   4.009   3.690   6.813 -0.2042  0.2570 -0.4744
  186SLPC   C3421447   4.066   3.725   7.023 -0.3337 -0.3242 -0.7683
  186SLPC   H4X21448   4.133   3.638   7.013 -0.4333 -0.6552  1.0721
  186SLPC   H4Y21449   3.971   3.687   7.065 -0.4895 -1.2018 -1.8721
  186SLPC   C3521450   4.113   3.839   7.118  0.5730  0.1682 -0.1586
  186SLPC   H5X21451   4.039   3.921   7.108  0.7802  0.3668 -0.0628
  186SLPC   H5Y21452   4.212   3.880   7.088  0.8392 -0.0091  0.4592
  186SLPC   C3621453   4.121   3.795   7.263  0.2415  0.7551  0.4156
  186SLPC   H6X21454   4.021   3.760   7.297  1.2083 -0.6913  1.9459
  186SLPC   H6Y21455   4.155   3.877   7.330  2.6160 -1.1734  1.7238
  186SLPC   C3721456   4.206   3.680   7.294 -0.0802 -0.6025 -1.7335
  186SLPC   H7X21457   4.315   3.702   7.302 -0.6599  2.4341 -1.1010
  186SLPC   H7Y21458   4.193   3.600   7.219 -0.8900 -1.4186 -0.7556
  186SLPC   C3821459   4.176   3.608   7.436 -0.3349 -0.4214  0.6546
  186SLPC   H8X21460   4.257   3.532   7.437  0.7073  0.6687  0.8941
  186SLPC   H8Y21461   4.086   3.544   7.433  0.6096 -1.7689  0.2116
  186SLPC   C3921462   4.179   3.700   7.556 -0.4431  0.2785 -0.6347
  186SLPC   H9X21463   4.087   3.763   7.557 -0.0160  0.9096 -0.5735
  186SLPC   H9Y21464   4.260   3.775   7.562 -1.1932  1.0430  0.3306
  186SLPC  C31021465   4.183   3.614   7.686  0.3104  0.4102 -0.8126
  186SLPC  H10X21466   4.278   3.557   7.677  0.2407 -0.4883  2.8663
  186SLPC  H10Y21467   4.101   3.541   7.674  0.1398  0.8065 -2.3743
  186SLPC  C31121468   4.176   3.696   7.816 -0.1603  0.1677  0.4614
  186SLPC  H11X21469   4.085   3.760   7.826 -0.0473  0.4679 -0.3652
  186SLPC  H11Y21470   4.270   3.755   7.824 -0.3598  0.9358 -1.9900
  186SLPC  C31221471   4.199   3.609   7.942  0.6639  0.1158  0.0154
  186SLPC  H12X21472   4.282   3.543   7.907 -0.3427  0.1185 -2.6463
  186SLPC  H12Y21473   4.117   3.537   7.962  0.4530  0.4111  0.2121
  186SLPC  C31321474   4.239   3.681   8.076 -0.5360  0.6010  0.5193
  186SLPC  H13X21475   4.303   3.770   8.061 -0.7101  0.8910  1.4799
  186SLPC  H13Y21476   4.293   3.598   8.127 -1.3575 -1.1094 -1.2300
  186SLPC  C31421477   4.122   3.703   8.164  0.0515 -0.2291  0.1013
  186SLPC  H14X21478   4.154   3.724   8.268  1.6953 -1.9976  0.0235
  186SLPC  H14Y21479   4.066   3.608   8.174  1.1201 -0.8864  0.0583
  186SLPC  C31521480   4.041   3.820   8.122  0.8936 -0.4560  0.3716
  186SLPC  H15X21481   4.001   3.801   8.020 -1.2571 -0.4139  1.1502
  186SLPC  H15Y21482   4.117   3.901   8.119  1.4263 -0.9758 -0.9206
  186SLPC  C31621483   3.925   3.851   8.219  0.4673 -0.5599 -0.3445
  186SLPC  H16X21484   3.982   3.866   8.313  1.7025  1.6120 -1.3533
  186SLPC  H16Y21485   3.859   3.764   8.243 -4.3166  2.7257 -0.0717
  186SLPC  C31721486   3.845   3.973   8.171  0.2014  0.4066  0.3244
  186SLPC  H17X21487   3.915   4.048   8.129 -0.0933 -0.1036 -1.1350
  186SLPC  H17Y21488   3.776   4.011   8.250 -1.5629  0.0780 -0.9849
  186SLPC  C31821489   3.747   3.940   8.054 -0.0738 -0.4297  0.5620
  186SLPC  H18X21490   3.782   3.872   7.974 -3.4826  0.0140 -1.4915
  186SLPC  H18Y21491   3.716   4.036   8.007 -1.8491 -0.5950  1.3335
  186SLPC  H18Z21492   3.654   3.892   8.090  0.2027 -0.5089  1.1960
  187SLPC     N21493   4.396   6.812   6.156  0.2339  0.8573 -0.0504
  187SLPC   C1321494   4.425   6.740   6.031  0.0088  0.0080 -0.7418
  187SLPC  H13A21495   4.529   6.716   6.013 -0.2619  0.2442 -2.8653
  187SLPC  H13B21496   4.360   6.654   6.021 -1.2909  0.9827 -0.8972
  187SLPC  H13C21497   4.403   6.808   5.951 -1.0502 -0.4278 -0.8463
  187SLPC   C1421498   4.400   6.714   6.273  0.2200  0.4782 -0.0504
  187SLPC  H14A21499   4.366   6.765   6.362 -0.8129  0.1046 -0.2161
  187SLPC  H14B21500   4.326   6.640   6.250 -1.1080  1.8811 -0.4341
  187SLPC  H14C21501   4.497   6.666   6.283 -0.0717  0.1540  1.5234
  187SLPC   C1521502   4.260   6.871   6.142  0.1310 -0.3888 -0.6019
  187SLPC  H15A21503   4.245   6.953   6.211 -0.2144  0.1432 -1.3026
  187SLPC  H15B21504   4.237   6.905   6.042  0.0791  1.3890 -0.0272
  187SLPC  H15C21505   4.195   6.788   6.166 -0.4491  0.3650  0.5221
  187SLPC   C1221506   4.507   6.912   6.159  0.9485 -0.6199 -0.4893
  187SLPC  H12A21507   4.508   6.968   6.067  1.7222  2.7385  1.3944
  187SLPC  H12B21508   4.605   6.866   6.166  2.0756  1.8353  1.7700
  187SLPC   C1121509   4.508   7.008   6.278 -0.2740 -0.0261  0.5124
  187SLPC  H11A21510   4.598   7.070   6.257  0.9202 -1.7495  0.3951
  187SLPC  H11B21511   4.531   6.950   6.370 -1.6602 -0.9668  0.2927
  187SLPC     P21512   4.373   7.186   6.417  0.0278 -0.1706  0.1582
  187SLPC   O1321513   4.464   7.304   6.403 -0.3871  0.0406 -0.0686
  187SLPC   O1421514   4.227   7.220   6.425 -0.7303  0.3838  0.1006
  187SLPC   O1221515   4.398   7.092   6.293 -0.3533  0.4135 -0.3911
  187SLPC   O1121516   4.425   7.097   6.538  0.2897 -0.0785 -0.5226
  187SLPC    C121517   4.478   7.175   6.646  0.3407  0.1203 -0.4824
  187SLPC    HA21518   4.589   7.170   6.643  0.3361 -3.5365  0.2446
  187SLPC    HB21519   4.448   7.282   6.642  0.1177  0.0770 -0.0835
  187SLPC    C221520   4.451   7.120   6.787 -0.4890  0.2855  0.3070
  187SLPC    HS21521   4.516   7.177   6.857 -0.2865  2.0419 -1.2444
  187SLPC   O2121522   4.458   6.980   6.806  0.5205  0.5326  0.0809
  187SLPC   C2121523   4.583   6.938   6.797 -0.1815 -0.8685 -0.0087
  187SLPC   O2221524   4.681   7.009   6.787  0.0726 -0.0391  0.0243
  187SLPC   C2221525   4.588   6.788   6.808 -0.3814 -0.2634  0.0251
  187SLPC   H2R21526   4.502   6.767   6.875 -0.9865  2.4783  0.2353
  187SLPC   H2S21527   4.560   6.747   6.708 -2.9042  2.8841 -0.7277
  187SLPC    C321528   4.309   7.168   6.838  0.0281 -0.2066  0.7748
  187SLPC    HX21529   4.236   7.128   6.764 -1.2608 -0.3090  2.0498
  187SLPC    HY21530   4.302   7.279   6.848 -1.3119 -0.1024 -0.8155
  187SLPC   O3121531   4.266   7.110   6.965 -0.3882 -0.5450  0.1486
  187SLPC   C3121532   4.314   7.181   7.068  0.4049 -0.5763  0.1610
  187SLPC   O3221533   4.387   7.280   7.058 -0.1136 -0.1541 -0.5056
  187SLPC   C3221534   4.267   7.125   7.203 -0.3354  0.8024 -0.2975
  187SLPC   H2X21535   4.212   7.031   7.184  0.8162 -0.1600  0.9860
  187SLPC   H2Y21536   4.196   7.199   7.246 -1.1597 -0.2693  0.2321
  187SLPC   C2321537   4.717   6.728   6.865 -0.4127 -0.6030 -0.2149
  187SLPC   H3R21538   4.801   6.781   6.816 -0.2908  0.0973  0.7215
  187SLPC   H3S21539   4.715   6.622   6.833  0.1977 -0.0058 -2.3932
  187SLPC   C2421540   4.718   6.734   7.016  0.3770 -0.5650  0.0042
  187SLPC   H4R21541   4.708   6.843   7.036 -0.4741 -0.2730 -1.7811
  187SLPC   H4S21542   4.813   6.697   7.058  1.0123  0.1222 -0.7927
  187SLPC   C2521543   4.608   6.663   7.091 -0.8599  0.0473 -0.4341
  187SLPC   H5R21544   4.599   6.562   7.046  0.0632 -1.5190  2.6619
  187SLPC   H5S21545   4.509   6.714   7.095 -1.0096 -0.2564 -0.2743
  187SLPC   C2621546   4.639   6.631   7.238  0.3528  0.2837  0.0364
  187SLPC   H6R21547   4.726   6.562   7.249  0.3358  0.4563  1.4603
  187SLPC   H6S21548   4.554   6.570   7.275  1.1423 -0.4182  0.7233
  187SLPC   C2721549   4.677   6.747   7.337  0.2531  0.0915  0.5343
  187SLPC   H7R21550   4.644   6.839   7.283  0.4844 -1.8653 -3.2615
  187SLPC   H7S21551   4.787   6.741   7.353  0.1829  1.3111  1.5770
  187SLPC   C2821552   4.609   6.735   7.472  0.1187  0.1714  0.0977
  187SLPC   H8R21553   4.500   6.741   7.452  0.2929 -1.8824 -1.8278
  187SLPC   H8S21554   4.644   6.821   7.533  1.1867 -1.0934  1.3449
  187SLPC   C2921555   4.641   6.602   7.541  0.3480  0.5480 -0.2165
  187SLPC   H9R21556   4.685   6.530   7.472  0.1463  1.0887 -0.9189
  187SLPC  C21021557   4.636   6.580   7.676  0.1034 -0.0866  0.5276
  187SLPC  H10R21558   4.647   6.480   7.720  0.6122 -0.0646  0.4556
  187SLPC  C21121559   4.579   6.687   7.771  0.2332 -0.0253  0.4980
  187SLPC  H11R21560   4.524   6.767   7.717  3.3042  0.5446 -2.1038
  187SLPC  H11S21561   4.667   6.735   7.819 -0.4905  2.0011 -0.1182
  187SLPC  C21221562   4.482   6.638   7.877  0.1698  0.5647 -0.2751
  187SLPC  H12R21563   4.387   6.693   7.890  0.4858  0.7329  1.6757
  187SLPC  C21321564   4.500   6.539   7.971 -0.3772  0.0616 -0.1721
  187SLPC  H13R21565   4.424   6.531   8.051 -1.4964 -0.8927 -1.2910
  187SLPC  C21421566   4.628   6.463   8.002 -0.6430 -0.1453  0.3388
  187SLPC  H14R21567   4.691   6.447   7.912 -0.0336  0.0622  0.7274
  187SLPC  H14S21568   4.607   6.363   8.048 -0.7625  1.3099  3.7819
  187SLPC  C21521569   4.722   6.548   8.090 -0.0007  1.1624 -0.4095
  187SLPC  H15R21570   4.717   6.649   8.044 -2.0087  1.5602  0.6147
  187SLPC  H15S21571   4.822   6.500   8.077 -0.8386 -0.5103 -1.0215
  187SLPC  C21621572   4.689   6.568   8.241 -0.1923  0.1536  0.0141
  187SLPC  H16R21573   4.671   6.472   8.294 -3.2188  0.8945  0.5181
  187SLPC  H16S21574   4.596   6.627   8.253  0.2381  0.4946  1.9376
  187SLPC  C21721575   4.815   6.634   8.299 -0.1080  0.8266 -0.3648
  187SLPC  H17R21576   4.837   6.724   8.239  0.5995  1.1522  0.3636
  187SLPC  H17S21577   4.897   6.563   8.275 -2.0067 -0.7974 -2.5585
  187SLPC  C21821578   4.791   6.671   8.442  0.2781  0.1342  0.3077
  187SLPC  H18R21579   4.778   6.584   8.510 -1.4212  0.9285  1.0623
  187SLPC  H18S21580   4.697   6.729   8.448 -0.0192 -0.3039 -0.0846
  187SLPC  H18T21581   4.879   6.733   8.470  0.4527  0.2203 -0.4174
  187SLPC   C3321582   4.377   7.110   7.306 -0.7164  0.0101  0.0963
  187SLPC   H3X21583   4.440   7.201   7.322  0.2692 -0.3151 -1.7337
  187SLPC   H3Y21584   4.438   7.019   7.288  0.7484  0.3268  2.7868
  187SLPC   C3421585   4.314   7.093   7.447  0.0569  0.3626 -0.0424
  187SLPC   H4X21586   4.238   7.012   7.450 -0.2050  0.6031 -0.1435
  187SLPC   H4Y21587   4.244   7.179   7.446  0.9273  1.1973 -3.1829
  187SLPC   C3521588   4.421   7.091   7.556  0.1056  0.6929  0.4356
  187SLPC   H5X21589   4.518   7.121   7.511 -0.3474 -1.5069 -2.2968
  187SLPC   H5Y21590   4.421   6.986   7.592  0.4045 -0.2187 -2.0404
  187SLPC   C3621591   4.382   7.169   7.674 -0.0370 -0.7313  0.0110
  187SLPC   H6X21592   4.273   7.152   7.687 -1.1035  4.1210 -0.5041
  187SLPC   H6Y21593   4.379   7.278   7.653 -1.4777 -0.4675  1.3607
  187SLPC   C3721594   4.471   7.149   7.792 -0.8734  0.3881  0.2977
  187SLPC   H7X21595   4.572   7.140   7.746 -0.9731 -0.8777  0.3067
  187SLPC   H7Y21596   4.466   7.234   7.864 -1.7117  0.2213  0.4470
  187SLPC   C3821597   4.431   7.021   7.867  0.3610  0.7029 -0.3919
  187SLPC   H8X21598   4.429   6.935   7.797  1.2480 -0.6487  1.1780
  187SLPC   H8Y21599   4.328   7.031   7.908  0.8108 -0.8725  1.2298
  187SLPC   C3921600   4.517   6.989   7.986 -0.4167  0.4529 -0.0305
  187SLPC   H9X21601   4.614   6.939   7.965 -1.8710 -1.8107 -1.7673
  187SLPC   H9Y21602   4.468   6.914   8.052  1.5780 -0.9116  0.0034
  187SLPC  C31021603   4.535   7.106   8.082 -0.2474 -0.6431  0.4049
  187SLPC  H10X21604   4.444   7.164   8.108  0.5800  1.5951 -1.3072
  187SLPC  H10Y21605   4.597   7.182   8.029 -1.9234 -0.0737 -0.8074
  187SLPC  C31121606   4.612   7.070   8.208  0.6387  0.4527 -0.6212
  187SLPC  H11X21607   4.664   7.155   8.256  1.1204  0.8022 -1.7390
  187SLPC  H11Y21608   4.696   6.999   8.192  2.1362  1.6461  1.4410
  187SLPC  C31221609   4.507   7.016   8.319  0.2139  0.2759 -0.2066
  187SLPC  H12X21610   4.553   6.931   8.375 -0.3549 -0.5573 -0.9615
  187SLPC  H12Y21611   4.419   6.975   8.265  0.6490  0.0533 -0.7617
  187SLPC  C31321612   4.458   7.130   8.410 -0.3970 -0.4420 -0.0579
  187SLPC  H13X21613   4.430   7.217   8.346 -2.6470 -0.8041  0.3246
  187SLPC  H13Y21614   4.542   7.158   8.477 -0.6252 -0.0813  0.0804
  187SLPC  C31421615   4.338   7.101   8.495  0.7645 -0.0398 -0.1575
  187SLPC  H14X21616   4.378   7.011   8.546 -0.4407 -0.4413  0.1007
  187SLPC  H14Y21617   4.247   7.066   8.442 -0.5794 -2.2036  3.2323
  187SLPC  C31521618   4.298   7.205   8.593  0.8427 -0.1255 -0.3798
  187SLPC  H15X21619   4.285   7.296   8.531  1.7130 -0.2706 -0.7950
  187SLPC  H15Y21620   4.367   7.230   8.677  0.5173  0.9998 -0.4386
  187SLPC  C31621621   4.160   7.169   8.660 -0.2401  0.3115  1.1825
  187SLPC  H16X21622   4.163   7.063   8.694 -1.4599 -1.4799 -3.5018
  187SLPC  H16Y21623   4.085   7.155   8.579 -0.5767 -0.2919  1.5869
  187SLPC  C31721624   4.121   7.273   8.770  1.4067  0.0905  0.5866
  187SLPC  H17X21625   4.129   7.368   8.713  3.1650 -1.2585 -1.5542
  187SLPC  H17Y21626   4.197   7.276   8.851 -1.4725  0.0030  3.5363
  187SLPC  C31821627   3.977   7.257   8.818 -0.6621 -0.2974  0.6026
  187SLPC  H18X21628   3.932   7.343   8.872 -1.5962 -2.3400  3.3171
  187SLPC  H18Y21629   3.974   7.166   8.883 -0.3779 -1.5730 -1.0953
  187SLPC  H18Z21630   3.902   7.239   8.738 -1.1327  1.0024  0.7342
  188SLPC     N21631   4.670   1.247   6.794  0.1245  0.4670  1.2029
  188SLPC   C1321632   4.523   1.235   6.803  0.3484 -0.5084 -0.2729
  188SLPC  H13A21633   4.475   1.302   6.734 -0.4421 -0.4768  0.2934
  188SLPC  H13B21634   4.496   1.134   6.775 -1.4284  0.3796 -2.0208
  188SLPC  H13C21635   4.474   1.255   6.897  0.9935 -0.5526  0.0798
  188SLPC   C1421636   4.707   1.210   6.651  0.7605 -0.4294  0.2217
  188SLPC  H14A21637   4.645   1.275   6.591 -1.5953 -0.2975  2.6190
  188SLPC  H14B21638   4.810   1.235   6.627  0.7728 -1.3970 -0.8261
  188SLPC  H14C21639   4.684   1.106   6.631  1.0088 -0.7452  1.4669
  188SLPC   C1521640   4.730   1.139   6.887 -1.0021  0.2246  0.2207
  188SLPC  H15A21641   4.664   1.054   6.896  0.2082 -0.7733 -0.0282
  188SLPC  H15B21642   4.826   1.107   6.850 -1.9000 -0.6132 -1.4917
  188SLPC  H15C21643   4.749   1.174   6.988  0.3623 -1.8339  0.7379
  188SLPC   C1221644   4.712   1.381   6.831 -0.4055 -0.6431 -0.5834
  188SLPC  H12A21645   4.654   1.418   6.913  1.5875 -1.0174  1.0916
  188SLPC  H12B21646   4.702   1.447   6.746  2.0816 -0.2125 -0.6235
  188SLPC   C1121647   4.864   1.401   6.866  0.0586  0.1851  0.2678
  188SLPC  H11A21648   4.896   1.328   6.943 -0.3246  1.1958  1.4319
  188SLPC  H11B21649   4.879   1.498   6.918 -0.1943 -0.7390  2.1324
  188SLPC     P21650   4.988   1.500   6.663 -0.4434 -0.3242 -0.1730
  188SLPC   O1321651   5.016   1.434   6.533  0.2905 -0.0110 -0.2976
  188SLPC   O1421652   4.877   1.596   6.671  0.4990  0.0831  0.2363
  188SLPC   O1221653   4.948   1.380   6.752  0.1103 -0.2164  0.0715
  188SLPC   O1121654   5.127   1.557   6.728 -0.3269 -0.2209  0.3440
  188SLPC    C121655   5.235   1.475   6.770  0.3580  0.4411 -0.2006
  188SLPC    HA21656   5.242   1.379   6.714  0.4145  0.0269  0.5121
  188SLPC    HB21657   5.335   1.523   6.772  0.6593 -0.2184  1.0831
  188SLPC    C221658   5.233   1.434   6.921  0.5503 -0.3668  0.0730
  188SLPC    HS21659   5.149   1.361   6.931 -1.0744  1.1847 -1.5692
  188SLPC   O2121660   5.208   1.552   6.996 -0.8051  0.1474  0.4799
  188SLPC   C2121661   5.132   1.537   7.103  0.3880 -0.5081  0.2480
  188SLPC   O2221662   5.083   1.431   7.137  0.1859  0.2227 -0.3512
  188SLPC   C2221663   5.092   1.678   7.147 -0.5435 -0.1471  0.2309
  188SLPC   H2R21664   5.165   1.757   7.121 -1.2724 -0.1185 -1.9226
  188SLPC   H2S21665   4.994   1.699   7.099  0.1103 -1.3224 -1.7556
  188SLPC    C321666   5.363   1.367   6.981 -0.2547  0.3352  0.2681
  188SLPC    HX21667   5.430   1.451   7.011  0.1440 -0.3104  1.2395
  188SLPC    HY21668   5.422   1.313   6.904 -2.0384  0.5513 -1.3149
  188SLPC   O3121669   5.355   1.287   7.101  0.4174  0.6732 -0.1159
  188SLPC   C3121670   5.301   1.172   7.072  0.0798 -0.0921 -0.3187
  188SLPC   O3221671   5.273   1.125   6.963 -0.2445  0.6279 -0.4421
  188SLPC   C3221672   5.276   1.099   7.203 -0.1669 -0.4703  0.0943
  188SLPC   H2X21673   5.373   1.055   7.235  0.0891  0.2794  0.3638
  188SLPC   H2Y21674   5.226   1.004   7.173 -0.1191 -0.4618 -0.0090
  188SLPC   C2321675   5.072   1.689   7.300  0.4596  0.2239  0.1174
  188SLPC   H3R21676   4.998   1.612   7.331 -0.2464  1.7137  2.3647
  188SLPC   H3S21677   5.037   1.791   7.325  1.0729  0.6528 -0.7238
  188SLPC   C2421678   5.205   1.658   7.386 -0.6957  0.0720  0.7129
  188SLPC   H4R21679   5.244   1.758   7.416 -0.2302  0.1185  0.0016
  188SLPC   H4S21680   5.273   1.599   7.321 -1.9139 -0.2900 -0.2873
  188SLPC   C2521681   5.162   1.573   7.509  0.0430 -0.6152  0.2726
  188SLPC   H5R21682   5.253   1.552   7.569 -1.1754 -0.2111  2.3606
  188SLPC   H5S21683   5.113   1.482   7.470  0.5276  0.0750 -2.1413
  188SLPC   C2621684   5.054   1.641   7.598 -0.0793  0.5354  0.0241
  188SLPC   H6R21685   4.965   1.657   7.534  2.1978 -1.0876 -3.8911
  188SLPC   H6S21686   5.083   1.734   7.651 -0.8532  0.3978  0.7153
  188SLPC   C2721687   5.001   1.559   7.716 -0.2487  0.0911 -0.0586
  188SLPC   H7R21688   4.975   1.461   7.670  1.3516 -0.8373  0.9219
  188SLPC   H7S21689   4.911   1.611   7.756 -1.4553 -0.6140 -1.7346
  188SLPC   C2821690   5.105   1.539   7.832 -0.2431 -0.0473 -0.4628
  188SLPC   H8R21691   5.186   1.484   7.781  1.4240  1.0085  0.9403
  188SLPC   H8S21692   5.069   1.475   7.916  0.7851 -0.1548 -0.0943
  188SLPC   C2921693   5.152   1.670   7.892 -0.4757  0.4808  0.3070
  188SLPC   H9R21694   5.253   1.699   7.859 -0.4258 -0.3590 -0.3163
  188SLPC  C21021695   5.095   1.741   7.989  0.4458 -0.3250  0.3754
  188SLPC  H10R21696   5.126   1.843   8.016 -0.6231  0.0771  0.1558
  188SLPC  C21121697   4.959   1.705   8.050  0.0098 -0.4994 -1.1307
  188SLPC  H11R21698   4.919   1.601   8.048 -0.7136 -0.2801  0.3195
  188SLPC  H11S21699   4.874   1.750   7.994 -0.6289 -1.5431 -1.0303
  188SLPC  C21221700   4.944   1.752   8.191 -0.6773 -0.4143  0.8033
  188SLPC  H12R21701   4.884   1.844   8.197 -0.2485  0.1798 -2.3969
  188SLPC  C21321702   5.000   1.701   8.301  0.5404  0.5365 -0.4240
  188SLPC  H13R21703   4.985   1.755   8.395  0.6993  0.8902 -0.6016
  188SLPC  C21421704   5.086   1.579   8.307 -0.0285  0.5429 -0.7073
  188SLPC  H14R21705   5.047   1.494   8.247 -1.0223  0.5014 -0.0119
  188SLPC  H14S21706   5.061   1.545   8.409 -0.7189  2.2819 -0.2742
  188SLPC  C21521707   5.236   1.598   8.296 -0.0840 -0.0548  0.5598
  188SLPC  H15R21708   5.274   1.688   8.349  3.1896  0.3218 -2.1103
  188SLPC  H15S21709   5.262   1.618   8.190 -0.1853  0.0505  0.5545
  188SLPC  C21621710   5.317   1.486   8.354 -0.6517 -0.7577 -0.1323
  188SLPC  H16R21711   5.426   1.506   8.344 -1.0832  0.9379 -2.0802
  188SLPC  H16S21712   5.299   1.400   8.287 -1.1629 -0.3984 -0.4556
  188SLPC  C21721713   5.288   1.443   8.495  0.1932  0.1027 -0.7556
  188SLPC  H17R21714   5.183   1.411   8.505 -1.4644  4.2024 -2.5168
  188SLPC  H17S21715   5.304   1.529   8.564 -1.9249 -0.1512  0.1370
  188SLPC  C21821716   5.380   1.331   8.562  0.2493 -0.3825  0.4372
  188SLPC  H18R21717   5.485   1.362   8.544  0.4345 -0.3233  1.5544
  188SLPC  H18S21718   5.359   1.238   8.504 -1.2415  0.0426  0.2479
  188SLPC  H18T21719   5.361   1.303   8.668 -0.4846 -1.6072  0.0092
  188SLPC   C3321720   5.210   1.183   7.311 -0.4152 -0.1590  0.4064
  188SLPC   H3X21721   5.108   1.219   7.285  0.2800  0.8642 -1.0429
  188SLPC   H3Y21722   5.283   1.261   7.341  0.0398  0.1477 -1.4084
  188SLPC   C3421723   5.185   1.106   7.436 -0.7646 -0.3166  0.3404
  188SLPC   H4X21724   5.280   1.067   7.477  0.8246  1.6071 -1.3318
  188SLPC   H4Y21725   5.120   1.021   7.404  0.3649 -1.2173  0.3794
  188SLPC   C3521726   5.101   1.172   7.540  0.3036  0.6380 -0.7434
  188SLPC   H5X21727   5.012   1.207   7.482  0.5672  0.6567 -1.1394
  188SLPC   H5Y21728   5.159   1.254   7.588 -0.5110  0.4777  0.5720
  188SLPC   C3621729   5.052   1.082   7.656 -0.5221 -0.0385 -0.2043
  188SLPC   H6X21730   5.001   1.001   7.599  0.0973 -0.4959 -0.1222
  188SLPC   H6Y21731   4.971   1.124   7.719  0.4865  2.2250 -0.3413
  188SLPC   C3721732   5.159   1.025   7.748 -0.0601  0.1683 -0.1359
  188SLPC   H7X21733   5.201   1.103   7.815  0.4442  0.9779 -1.3624
  188SLPC   H7Y21734   5.249   0.985   7.697 -1.0294 -0.7476 -1.1767
  188SLPC   C3821735   5.094   0.920   7.837  0.2113  0.2991 -0.4750
  188SLPC   H8X21736   5.027   0.851   7.782 -1.4271  1.0852  0.4502
  188SLPC   H8Y21737   5.032   0.971   7.914  2.6466 -1.4479  2.9579
  188SLPC   C3921738   5.202   0.848   7.923  0.3580  0.9157 -0.0575
  188SLPC   H9X21739   5.269   0.923   7.970  1.2272 -0.4865  1.0352
  188SLPC   H9Y21740   5.262   0.781   7.858  1.3489  1.1496  0.5834
  188SLPC  C31021741   5.138   0.778   8.043  0.2503  0.6649 -0.4738
  188SLPC  H10X21742   5.053   0.710   8.022 -0.8987  1.9925 -0.3408
  188SLPC  H10Y21743   5.087   0.855   8.106 -2.2137 -1.7911  0.7155
  188SLPC  C31121744   5.247   0.704   8.120 -0.8948  0.5356 -0.3939
  188SLPC  H11X21745   5.331   0.770   8.151 -0.7905  0.8799 -1.3649
  188SLPC  H11Y21746   5.288   0.623   8.057 -0.6272 -1.4603  2.2001
  188SLPC  C31221747   5.190   0.620   8.248  0.3981  0.1057  0.0616
  188SLPC  H12X21748   5.271   0.552   8.282 -1.2576 -1.4638  1.0587
  188SLPC  H12Y21749   5.102   0.567   8.204  1.4483 -1.5554 -0.1097
  188SLPC  C31321750   5.156   0.709   8.364 -0.4910  0.0141 -0.2648
  188SLPC  H13X21751   5.110   0.647   8.444 -2.7846  1.2937 -0.5105
  188SLPC  H13Y21752   5.081   0.789   8.344  0.0055  0.8473  1.0317
  188SLPC  C31421753   5.286   0.772   8.428 -0.7215  0.7829  0.0338
  188SLPC  H14X21754   5.330   0.854   8.367  0.4015 -0.3936 -0.7861
  188SLPC  H14Y21755   5.369   0.702   8.450  1.8361  2.9765 -2.0922
  188SLPC  C31521756   5.244   0.835   8.564 -0.5355  1.1919  1.1217
  188SLPC  H15X21757   5.186   0.750   8.606 -2.4218  1.2815 -1.1142
  188SLPC  H15Y21758   5.170   0.916   8.543 -0.9053  0.3912 -0.8383
  188SLPC  C31621759   5.351   0.889   8.661  0.6114 -0.7410 -0.2559
  188SLPC  H16X21760   5.292   0.922   8.750 -1.7142 -2.5601 -1.0066
  188SLPC  H16Y21761   5.400   0.978   8.617 -0.4714  0.5690  1.0618
  188SLPC  C31721762   5.450   0.793   8.726  0.2484 -0.5793  0.3254
  188SLPC  H17X21763   5.521   0.768   8.644 -1.0654  2.0127 -1.7857
  188SLPC  H17Y21764   5.410   0.694   8.757 -0.3773 -0.2689  0.5316
  188SLPC  C31821765   5.525   0.851   8.841  0.4492 -0.2156  0.5074
  188SLPC  H18X21766   5.448   0.900   8.905 -0.2281  0.9281 -1.1314
  188SLPC  H18Y21767   5.602   0.924   8.809  2.1055 -1.6755  1.0055
  188SLPC  H18Z21768   5.573   0.772   8.903 -1.3944  0.2970  2.7317
  189SLPC     N21769   5.348   3.423   5.961  0.5738 -0.5190 -0.8399
  189SLPC   C1321770   5.224   3.416   6.047  0.3120  0.3235  0.2512
  189SLPC  H13A21771   5.245   3.403   6.152 -1.3400 -2.3830  0.3455
  189SLPC  H13B21772   5.157   3.499   6.031  0.1827  0.0049 -1.0175
  189SLPC  H13C21773   5.178   3.320   6.028 -0.6677  0.4479  1.7944
  189SLPC   C1421774   5.408   3.556   5.988 -0.3749 -0.7886  0.4404
  189SLPC  H14A21775   5.446   3.564   6.089 -0.9388  0.5984  0.5677
  189SLPC  H14B21776   5.488   3.570   5.917 -0.6277 -1.3138  0.0438
  189SLPC  H14C21777   5.342   3.639   5.969  1.4467  0.9433  1.3235
  189SLPC   C1521778   5.298   3.414   5.822  0.1967  0.0593 -0.5233
  189SLPC  H15A21779   5.250   3.320   5.800  0.0226  0.1284 -0.4480
  189SLPC  H15B21780   5.219   3.484   5.800 -1.7243 -1.4588  1.1149
  189SLPC  H15C21781   5.372   3.429   5.745 -0.0607  2.7296 -0.3491
  189SLPC   C1221782   5.448   3.319   5.998 -0.1002  0.6498 -0.2437
  189SLPC  H12A21783   5.543   3.342   5.951  0.6626 -2.5588 -0.4717
  189SLPC  H12B21784   5.420   3.222   5.960  1.7276 -0.7960  1.8364
  189SLPC   C1121785   5.490   3.307   6.152 -0.0153 -0.3700  0.4410
  189SLPC  H11A21786   5.565   3.228   6.174  0.0278 -0.0039  1.7087
  189SLPC  H11B21787   5.397   3.277   6.205  0.2251 -0.5702  0.7548
  189SLPC     P21788   5.572   3.456   6.344 -0.4792  0.3309  0.0978
  189SLPC   O1321789   5.668   3.355   6.393 -0.4344  0.2088 -0.4819
  189SLPC   O1421790   5.619   3.593   6.358  0.1514  0.1303  0.0756
  189SLPC   O1221791   5.541   3.438   6.194  0.6505  1.0063 -0.3201
  189SLPC   O1121792   5.439   3.442   6.418 -0.1715 -0.3010  0.2587
  189SLPC    C121793   5.339   3.536   6.455  0.7650 -0.6327  0.3376
  189SLPC    HA21794   5.301   3.591   6.367  1.2422 -0.0751  0.4705
  189SLPC    HB21795   5.252   3.482   6.499 -1.4091 -0.3014 -3.1739
  189SLPC    C221796   5.393   3.633   6.566 -0.2427  0.3382 -0.3405
  189SLPC    HS21797   5.487   3.680   6.529  1.6814 -2.9022  0.0031
  189SLPC   O2121798   5.414   3.545   6.684  0.9235  0.3666 -0.0682
  189SLPC   C2121799   5.517   3.578   6.754  0.1667  0.2383  0.4166
  189SLPC   O2221800   5.596   3.668   6.735 -0.1918  0.2313  0.5976
  189SLPC   C2221801   5.521   3.490   6.884 -0.4335  0.0453  0.0632
  189SLPC   H2R21802   5.439   3.416   6.878  0.5064 -1.1127  1.0604
  189SLPC   H2S21803   5.616   3.435   6.871  0.0964  0.5175  1.6971
  189SLPC    C321804   5.292   3.743   6.604  1.0282  0.8447  0.5880
  189SLPC    HX21805   5.202   3.684   6.628  1.9270 -0.9962 -0.3537
  189SLPC    HY21806   5.263   3.796   6.510  0.2102 -1.4611 -0.5262
  189SLPC   O3121807   5.328   3.821   6.716  0.0530 -0.1727  0.0781
  189SLPC   C3121808   5.427   3.905   6.690  0.3454  0.3733 -0.0566
  189SLPC   O3221809   5.469   3.912   6.576 -0.1656 -0.1992 -0.0671
  189SLPC   C3221810   5.451   3.993   6.812  0.3198 -0.4420 -0.6649
  189SLPC   H2X21811   5.354   4.037   6.842  1.0159  0.4797  0.3231
  189SLPC   H2Y21812   5.503   4.088   6.788  2.3334 -1.3599 -0.1889
  189SLPC   C2321813   5.505   3.559   7.016 -0.2560  0.1737 -0.3453
  189SLPC   H3R21814   5.404   3.605   7.022 -0.8679 -1.2679  2.0005
  189SLPC   H3S21815   5.569   3.649   7.034  0.3082  0.0507 -1.6506
  189SLPC   C2421816   5.521   3.456   7.125  0.3309 -0.4489 -0.2394
  189SLPC   H4R21817   5.628   3.441   7.152  0.5219 -0.3231 -0.9119
  189SLPC   H4S21818   5.496   3.357   7.082 -0.8413 -0.2904  0.0576
  189SLPC   C2521819   5.440   3.485   7.257 -0.5030  0.1082  0.8851
  189SLPC   H5R21820   5.329   3.478   7.252 -0.5947  1.2508  0.9271
  189SLPC   H5S21821   5.453   3.594   7.277 -1.3597  0.3166  0.3527
  189SLPC   C2621822   5.482   3.399   7.379  0.4631 -0.0714  0.7886
  189SLPC   H6R21823   5.591   3.418   7.394  0.6259 -0.9137  0.7041
  189SLPC   H6S21824   5.477   3.294   7.343 -0.9518  0.0067  0.6905
  189SLPC   C2721825   5.402   3.436   7.496  0.4010  0.0721 -0.6017
  189SLPC   H7R21826   5.304   3.385   7.489  0.1928  0.3243  0.2756
  189SLPC   H7S21827   5.383   3.546   7.500  2.5935  0.5310 -1.1639
  189SLPC   C2821828   5.470   3.384   7.624 -0.3997 -0.7195 -0.0923
  189SLPC   H8R21829   5.492   3.276   7.623 -0.8197 -0.8322  1.2240
  189SLPC   H8S21830   5.386   3.387   7.696  0.8420 -0.6063  1.4232
  189SLPC   C2921831   5.586   3.461   7.676 -0.3584 -0.2571  0.6495
  189SLPC   H9R21832   5.660   3.499   7.603 -0.0900 -0.5900  0.7461
  189SLPC  C21021833   5.621   3.480   7.802  0.1844  0.1090 -0.1697
  189SLPC  H10R21834   5.704   3.549   7.819 -1.3104  2.6925 -2.5597
  189SLPC  C21121835   5.534   3.430   7.919 -1.1223 -0.2725 -0.2094
  189SLPC  H11R21836   5.431   3.468   7.903 -0.0710  3.3536  0.8285
  189SLPC  H11S21837   5.570   3.481   8.011  0.4373 -2.0553  0.2392
  189SLPC  C21221838   5.548   3.279   7.936 -0.4980 -0.3558 -0.7942
  189SLPC  H12R21839   5.615   3.219   7.872 -1.0163 -1.5062 -0.2994
  189SLPC  C21321840   5.479   3.217   8.025  0.1490 -0.1367  0.1988
  189SLPC  H13R21841   5.489   3.108   8.026  1.6015 -0.0321 -0.1935
  189SLPC  C21421842   5.380   3.273   8.121 -0.0479  0.0856  0.0283
  189SLPC  H14R21843   5.304   3.192   8.118  0.4069 -0.3406 -2.1001
  189SLPC  H14S21844   5.339   3.365   8.074  0.6147 -0.2603 -1.2766
  189SLPC  C21521845   5.429   3.297   8.257  0.7638 -0.3133  0.0439
  189SLPC  H15R21846   5.514   3.368   8.259  1.2900 -0.9627  1.7219
  189SLPC  H15S21847   5.471   3.210   8.312 -0.5053 -0.8571  0.2022
  189SLPC  C21621848   5.313   3.363   8.343  1.0229 -0.1318 -1.0458
  189SLPC  H16R21849   5.234   3.286   8.354  2.0038 -1.2659 -1.7274
  189SLPC  H16S21850   5.279   3.452   8.285 -0.9684 -0.3041 -0.2387
  189SLPC  C21721851   5.356   3.400   8.481 -0.1840 -0.3788 -0.1935
  189SLPC  H17R21852   5.269   3.443   8.536 -0.1464 -0.3743 -0.1378
  189SLPC  H17S21853   5.436   3.476   8.487  0.3896 -0.7876 -1.9807
  189SLPC  C21821854   5.410   3.274   8.563 -0.1540  0.3487  0.6215
  189SLPC  H18R21855   5.515   3.250   8.534 -0.6087 -1.0332  0.0488
  189SLPC  H18S21856   5.343   3.187   8.546 -1.6064  1.8885 -2.2843
  189SLPC  H18T21857   5.412   3.287   8.673  2.5516 -0.9619  0.8205
  189SLPC   C3321858   5.497   3.926   6.944  0.0006  0.1801  0.5258
  189SLPC   H3X21859   5.607   3.909   6.936 -0.1071 -1.3949  1.7369
  189SLPC   H3Y21860   5.457   3.823   6.941  1.4037 -0.3669 -0.2318
  189SLPC   C3421861   5.461   3.992   7.075  0.0159  0.8702  0.0529
  189SLPC   H4X21862   5.350   3.997   7.081 -0.0133 -0.9573  2.7655
  189SLPC   H4Y21863   5.507   4.093   7.089 -1.7009  1.6450  0.3840
  189SLPC   C3521864   5.502   3.900   7.184  0.2341  0.8217 -0.6776
  189SLPC   H5X21865   5.606   3.864   7.166 -0.5962 -1.2402 -1.6751
  189SLPC   H5Y21866   5.437   3.810   7.184  0.6382  0.5102 -2.2106
  189SLPC   C3621867   5.511   3.964   7.330 -0.0739 -0.3709  0.4035
  189SLPC   H6X21868   5.423   4.028   7.351 -0.3134 -0.5652 -0.0166
  189SLPC   H6Y21869   5.599   4.031   7.321 -0.6681  0.2388 -1.0266
  189SLPC   C3721870   5.512   3.859   7.439  0.7023 -0.0369 -0.3788
  189SLPC   H7X21871   5.602   3.795   7.447  0.1633 -0.9214 -1.2278
  189SLPC   H7Y21872   5.423   3.796   7.419 -1.2487  2.7907 -1.1526
  189SLPC   C3821873   5.498   3.929   7.568 -0.1972  0.3865 -1.2770
  189SLPC   H8X21874   5.400   3.981   7.573 -0.3981 -0.0963  1.5282
  189SLPC   H8Y21875   5.573   4.007   7.595 -0.8867  0.2347  1.3664
  189SLPC   C3921876   5.499   3.823   7.684  0.8441 -0.5694 -0.4128
  189SLPC   H9X21877   5.590   3.759   7.682  0.5120 -1.1968  1.7298
  189SLPC   H9Y21878   5.420   3.748   7.663  0.1047  0.6257 -2.1075
  189SLPC  C31021879   5.470   3.880   7.820 -0.0375  0.4072  0.2149
  189SLPC  H10X21880   5.380   3.945   7.820  0.1780  0.7077  0.0195
  189SLPC  H10Y21881   5.559   3.938   7.855  0.7180  0.2867 -1.4126
  189SLPC  C31121882   5.444   3.773   7.929  1.1675  0.2511 -0.1470
  189SLPC  H11X21883   5.534   3.724   7.972 -0.7220 -0.3701  3.5372
  189SLPC  H11Y21884   5.370   3.698   7.894 -0.9022  0.8955  2.5103
  189SLPC  C31221885   5.381   3.845   8.044  0.3037 -0.0135  0.1008
  189SLPC  H12X21886   5.292   3.899   8.003  1.1718  0.6985 -0.9029
  189SLPC  H12Y21887   5.443   3.932   8.075  1.7486  0.3324 -3.2751
  189SLPC  C31321888   5.342   3.761   8.162 -0.0511 -0.3605  0.0796
  189SLPC  H13X21889   5.295   3.669   8.122  1.2233 -0.6370 -0.8418
  189SLPC  H13Y21890   5.275   3.815   8.232  0.1547 -0.6951  0.5408
  189SLPC  C31421891   5.473   3.718   8.235  0.1168  0.2268 -0.0076
  189SLPC  H14X21892   5.538   3.665   8.163 -1.6310 -1.4936 -0.4063
  189SLPC  H14Y21893   5.455   3.635   8.307  2.9084 -0.5768 -0.1183
  189SLPC  C31521894   5.561   3.826   8.305  0.1717 -0.2785 -0.3900
  189SLPC  H15X21895   5.510   3.839   8.403  0.7157  0.3066 -0.1824
  189SLPC  H15Y21896   5.566   3.928   8.262 -0.0668 -0.6085 -1.2274
  189SLPC  C31621897   5.703   3.780   8.337 -0.2434 -0.2556  0.2823
  189SLPC  H16X21898   5.691   3.680   8.384  0.4593 -1.5749 -2.1434
  189SLPC  H16Y21899   5.754   3.853   8.403 -0.1663 -0.5093  0.5061
  189SLPC  C31721900   5.784   3.773   8.216 -0.4776 -0.0270  0.5477
  189SLPC  H17X21901   5.786   3.874   8.168  0.5418 -0.3901 -0.2003
  189SLPC  H17Y21902   5.752   3.699   8.140 -0.1117  0.1422  0.2257
  189SLPC  C31821903   5.931   3.733   8.251 -0.7223  0.0237 -1.1107
  189SLPC  H18X21904   5.961   3.801   8.333 -0.0848 -2.1277  0.5587
  189SLPC  H18Y21905   5.998   3.745   8.164  1.7548 -1.5153  0.4722
  189SLPC  H18Z21906   5.938   3.626   8.282  0.1799  0.2266 -0.5989
  190SLPC     N21907   6.469   5.701   5.980 -0.6541 -0.2444 -0.2994
  190SLPC   C1321908   6.409   5.724   5.849  0.3850  0.3075 -0.5214
  190SLPC  H13A21909   6.327   5.655   5.834 -1.3362  1.5203  2.3993
  190SLPC  H13B21910   6.374   5.826   5.845  0.6250  0.4244  0.2055
  190SLPC  H13C21911   6.481   5.712   5.770  1.4811  3.6488 -0.1781
  190SLPC   C1421912   6.545   5.572   5.963  0.3442  1.1706  0.1948
  190SLPC  H14A21913   6.610   5.550   6.046 -0.8655 -0.5325  0.7460
  190SLPC  H14B21914   6.482   5.484   5.963  1.2395  0.5005 -1.0654
  190SLPC  H14C21915   6.607   5.558   5.876  2.0549 -1.7191  1.7317
  190SLPC   C1521916   6.368   5.683   6.090 -0.4643 -0.4187 -1.1140
  190SLPC  H15A21917   6.417   5.633   6.171 -0.3710 -1.6809 -1.9259
  190SLPC  H15B21918   6.326   5.780   6.114  1.7171 -0.0921  1.8998
  190SLPC  H15C21919   6.290   5.614   6.063 -1.7210 -0.3010  1.8601
  190SLPC   C1221920   6.567   5.810   6.017  0.1899  0.3112 -0.6733
  190SLPC  H12A21921   6.635   5.815   5.933 -0.5856  1.9315 -1.2523
  190SLPC  H12B21922   6.626   5.794   6.106 -0.6880 -0.4786 -0.2202
  190SLPC   C1121923   6.494   5.949   6.032  0.0470  0.1046 -0.8978
  190SLPC  H11A21924   6.431   5.975   5.945  0.7580 -0.0933 -1.4891
  190SLPC  H11B21925   6.579   6.019   6.017  0.1796  0.3698  0.9280
  190SLPC     P21926   6.525   6.011   6.280  0.5417  0.1685 -0.4517
  190SLPC   O1321927   6.577   6.149   6.247 -0.6024  0.0453  0.3018
  190SLPC   O1421928   6.443   5.998   6.399 -0.0683 -0.1583 -0.4170
  190SLPC   O1221929   6.432   5.973   6.156  0.1409  0.5440 -0.0615
  190SLPC   O1121930   6.650   5.903   6.283  0.4557  0.2391 -0.1078
  190SLPC    C121931   6.777   5.960   6.320 -0.0339 -0.0961  0.1416
  190SLPC    HA21932   6.819   6.022   6.239 -2.4841  0.5660 -0.6971
  190SLPC    HB21933   6.766   6.027   6.408 -1.8203 -1.4305  1.0065
  190SLPC    C221934   6.878   5.853   6.367  0.0952 -0.1984  0.4423
  190SLPC    HS21935   6.904   5.795   6.276  1.0941 -0.3111  0.7802
  190SLPC   O2121936   6.815   5.765   6.459  0.0759 -0.5618  0.1006
  190SLPC   C2121937   6.874   5.650   6.484 -0.0614 -0.0805 -0.1442
  190SLPC   O2221938   6.986   5.620   6.439  0.3857  0.0163  0.5703
  190SLPC   C2221939   6.795   5.564   6.589  0.3562 -0.4165 -0.3287
  190SLPC   H2R21940   6.695   5.541   6.547  0.1461 -0.9904  0.4739
  190SLPC   H2S21941   6.852   5.469   6.588  1.7709  0.3234 -3.3414
  190SLPC    C321942   7.001   5.925   6.425  0.0664 -0.6229 -0.2449
  190SLPC    HX21943   7.020   6.001   6.345  0.9622  0.2653  0.7746
  190SLPC    HY21944   7.080   5.847   6.425  1.1114  0.4074 -0.4676
  190SLPC   O3121945   6.971   5.999   6.540  0.2476  0.0392 -0.5020
  190SLPC   C3121946   6.999   5.948   6.659 -0.1027 -0.1907 -0.3728
  190SLPC   O3221947   7.033   5.835   6.690  0.2515 -0.1438  0.1573
  190SLPC   C3221948   6.991   6.064   6.762 -0.3938  0.4028  0.0126
  190SLPC   H2X21949   7.016   6.154   6.702 -2.4418 -0.1950 -1.8572
  190SLPC   H2Y21950   7.069   6.044   6.839  1.8376  2.2642 -1.6331
  190SLPC   C2321951   6.793   5.626   6.728  0.4602  0.3034  0.2493
  190SLPC   H3R21952   6.751   5.728   6.712  0.0507 -0.0243 -0.9119
  190SLPC   H3S21953   6.893   5.624   6.775  0.4737 -0.8774  0.1989
  190SLPC   C2421954   6.683   5.561   6.816  0.4117  0.1595 -0.2060
  190SLPC   H4R21955   6.707   5.452   6.811  0.9833  0.0648  2.7834
  190SLPC   H4S21956   6.588   5.583   6.763  1.1558  1.8978 -0.8816
  190SLPC   C2521957   6.683   5.602   6.962 -0.9402  0.4886  0.3822
  190SLPC   H5R21958   6.786   5.587   7.000 -1.2406 -0.4927  0.8348
  190SLPC   H5S21959   6.625   5.513   6.996  0.0734 -0.4599 -0.2635
  190SLPC   C2621960   6.624   5.737   6.981 -0.1423 -0.1333  0.0965
  190SLPC   H6R21961   6.518   5.738   6.947 -1.4041  0.2902  3.6238
  190SLPC   H6S21962   6.679   5.816   6.927 -0.0549 -0.3511 -0.1333
  190SLPC   C2721963   6.628   5.779   7.131  0.6776  0.1236 -0.4195
  190SLPC   H7R21964   6.635   5.889   7.122 -0.8435  0.3639  1.0025
  190SLPC   H7S21965   6.727   5.761   7.179 -0.4772  1.6208  2.8348
  190SLPC   C2821966   6.513   5.735   7.219  0.4120 -0.5752  0.3985
  190SLPC   H8R21967   6.518   5.624   7.226  1.4214 -0.4838  1.5100
  190SLPC   H8S21968   6.419   5.757   7.164  1.7006  3.2830 -0.5563
  190SLPC   C2921969   6.512   5.779   7.360  0.5746 -0.1908 -0.4602
  190SLPC   H9R21970   6.464   5.874   7.390  1.7359  0.3900 -0.3713
  190SLPC  C21021971   6.571   5.718   7.468 -0.2064  0.0072 -0.0305
  190SLPC  H10R21972   6.552   5.763   7.567  0.4257  1.0278 -0.3530
  190SLPC  C21121973   6.646   5.584   7.464 -0.3235 -0.5701 -0.2755
  190SLPC  H11R21974   6.678   5.556   7.361 -0.4687  1.7199 -0.9839
  190SLPC  H11S21975   6.566   5.508   7.479 -0.8024  0.0633  0.4622
  190SLPC  C21221976   6.757   5.566   7.565  0.2216 -0.0869 -0.1460
  190SLPC  H12R21977   6.860   5.564   7.528  0.1983  0.4989 -0.2429
  190SLPC  C21321978   6.735   5.552   7.701  0.2273  0.5727 -0.1739
  190SLPC  H13R21979   6.823   5.539   7.765  0.1245 -1.6511 -0.4150
  190SLPC  C21421980   6.595   5.551   7.761 -0.8395  0.0391 -0.0351
  190SLPC  H14R21981   6.569   5.449   7.798  0.1394 -0.0855  0.3391
  190SLPC  H14S21982   6.516   5.572   7.685  2.2521 -0.1671 -3.5671
  190SLPC  C21521983   6.593   5.650   7.872 -0.0568 -0.6099 -0.1185
  190SLPC  H15R21984   6.610   5.746   7.817 -0.6482 -1.3546 -1.6615
  190SLPC  H15S21985   6.679   5.619   7.934  2.6992  1.1852 -2.7598
  190SLPC  C21621986   6.464   5.663   7.959 -0.4678  0.1628 -0.1013
  190SLPC  H16R21987   6.444   5.573   8.021 -1.0098  1.2627  1.4097
  190SLPC  H16S21988   6.385   5.678   7.883  1.2320  0.2815 -1.9188
  190SLPC  C21721989   6.472   5.781   8.052  0.5898  0.1913  0.0818
  190SLPC  H17R21990   6.565   5.780   8.113 -0.0540  2.4390  1.1757
  190SLPC  H17S21991   6.384   5.761   8.117 -0.0102  0.1967 -0.7137
  190SLPC  C21821992   6.444   5.912   7.978  0.6157  0.3655 -0.6702
  190SLPC  H18R21993   6.512   5.925   7.891  0.3195 -0.1432 -0.9835
  190SLPC  H18S21994   6.448   6.001   8.044 -0.4638  0.5119 -0.7900
  190SLPC  H18T21995   6.340   5.914   7.939  0.7336 -0.0841 -1.0252
  190SLPC   C3321996   6.855   6.071   6.838 -0.6262 -0.7545 -0.0028
  190SLPC   H3X21997   6.837   5.982   6.902  0.6984  0.0004  1.4949
  190SLPC   H3Y21998   6.785   6.075   6.751 -1.2434 -0.4178  0.4959
  190SLPC   C3421999   6.828   6.209   6.906 -0.7290  1.2831  0.2490
  190SLPC   H4X22000   6.719   6.197   6.925 -0.5875  0.0942  0.3898
  190SLPC   H4Y22001   6.852   6.286   6.830  0.8318 -0.5097 -1.1800
  190SLPC   C3522002   6.882   6.247   7.049 -0.3283 -0.0774  0.0428
  190SLPC   H5X22003   6.815   6.326   7.088  0.3345  0.4269  0.1782
  190SLPC   H5Y22004   6.985   6.288   7.049  0.5122 -1.9789  2.4283
  190SLPC   C3622005   6.884   6.124   7.143 -0.8702  0.7416  0.0010
  190SLPC   H6X22006   6.972   6.063   7.114 -0.1697  1.6950  0.0735
  190SLPC   H6Y22007   6.788   6.073   7.122  0.1776 -0.6064 -1.7913
  190SLPC   C3722008   6.897   6.169   7.296 -0.0950 -0.8291  0.1701
  190SLPC   H7X22009   6.809   6.220   7.341 -0.9730 -0.6831 -1.6159
  190SLPC   H7Y22010   6.990   6.228   7.307 -0.8272  0.5284 -0.6570
  190SLPC   C3822011   6.913   6.035   7.380  0.4167  0.3135  0.0679
  190SLPC   H8X22012   7.006   5.993   7.336  0.4108 -0.4703  0.7707
  190SLPC   H8Y22013   6.825   5.972   7.357  0.4723 -0.3267  1.4844
  190SLPC   C3922014   6.918   6.060   7.533 -0.2749 -1.3681 -0.6064
  190SLPC   H9X22015   6.821   6.103   7.567  1.6618  2.3623  0.6872
  190SLPC   H9Y22016   6.996   6.138   7.547 -0.6049 -1.1420  0.0057
  190SLPC  C31022017   6.956   5.932   7.615 -0.1886 -0.4479 -0.1711
  190SLPC  H10X22018   7.058   5.904   7.580  0.0388  0.1698 -0.0080
  190SLPC  H10Y22019   6.888   5.850   7.584  1.1479 -1.7317  0.1489
  190SLPC  C31122020   6.933   5.952   7.768 -0.4822  0.2274 -1.0119
  190SLPC  H11X22021   6.833   5.987   7.804  0.3225  2.0831 -0.4396
  190SLPC  H11Y22022   7.005   6.034   7.787 -0.4569 -0.2023  0.8649
  190SLPC  C31222023   6.978   5.827   7.849  0.1754 -0.0157  0.5190
  190SLPC  H12X22024   7.087   5.811   7.834  0.0269 -0.9294  0.3279
  190SLPC  H12Y22025   6.932   5.731   7.816 -1.7877  0.5053  1.6113
  190SLPC  C31322026   6.932   5.844   7.996 -0.2511 -0.2729  0.3004
  190SLPC  H13X22027   6.831   5.800   8.009 -0.4593  0.0055 -0.3293
  190SLPC  H13Y22028   6.923   5.953   8.019  1.9243  0.2435 -0.9913
  190SLPC  C31422029   7.028   5.769   8.086 -0.0520 -0.3107  0.1048
  190SLPC  H14X22030   7.130   5.813   8.089 -0.1555 -0.0251 -0.4882
  190SLPC  H14Y22031   7.047   5.662   8.064  4.5505 -0.2656  2.5654
  190SLPC  C31522032   6.973   5.775   8.229  0.0311 -0.1111 -0.3367
  190SLPC  H15X22033   6.894   5.697   8.232  0.8894 -0.9924  0.4049
  190SLPC  H15Y22034   6.932   5.874   8.258 -0.0583 -0.6806  1.6448
  190SLPC  C31622035   7.074   5.734   8.342  1.3118  0.2044 -0.5900
  190SLPC  H16X22036   7.166   5.795   8.329 -0.1365  2.1571 -2.5573
  190SLPC  H16Y22037   7.099   5.628   8.324  0.7828 -0.0822  0.3397
  190SLPC  C31722038   7.011   5.756   8.474  0.4946 -0.0315 -0.0845
  190SLPC  H17X22039   6.990   5.865   8.478  1.1558  0.0610  2.7180
  190SLPC  H17Y22040   7.089   5.728   8.548 -0.0308 -1.9932 -0.2196
  190SLPC  C31822041   6.887   5.669   8.516  0.1035 -0.0656  0.3110
  190SLPC  H18X22042   6.818   5.670   8.429 -0.2627 -1.8359  0.5557
  190SLPC  H18Y22043   6.851   5.707   8.614 -1.0689 -0.3073 -0.0135
  190SLPC  H18Z22044   6.921   5.564   8.531 -1.3880 -0.4361  1.3436
  191SLPC     N22045   1.209   6.619   5.793 -0.1129  0.3575 -0.0099
  191SLPC   C1322046   1.201   6.628   5.649  0.3166  0.7447 -0.1690
  191SLPC  H13A22047   1.231   6.535   5.604 -1.0789  0.7563 -1.2106
  191SLPC  H13B22048   1.099   6.647   5.619  0.1844  0.4492  0.0886
  191SLPC  H13C22049   1.272   6.695   5.603  0.8319 -0.8540 -1.8089
  191SLPC   C1422050   1.344   6.567   5.831  0.0464  0.4994  0.0124
  191SLPC  H14A22051   1.365   6.470   5.790 -0.8718  0.7884 -1.2158
  191SLPC  H14B22052   1.427   6.625   5.794  0.5026 -0.9223 -1.2822
  191SLPC  H14C22053   1.359   6.562   5.938 -0.0975  1.1675  0.0688
  191SLPC   C1522054   1.108   6.514   5.830  0.1098 -0.1557 -0.1230
  191SLPC  H15A22055   1.115   6.495   5.936 -2.7132  1.2878  0.4188
  191SLPC  H15B22056   1.008   6.556   5.826  0.8565  1.7325  0.1280
  191SLPC  H15C22057   1.111   6.423   5.772 -0.2865 -0.4230  0.2683
  191SLPC   C1222058   1.194   6.745   5.868  0.4525  0.0174 -0.2007
  191SLPC  H12A22059   1.093   6.779   5.852  0.5814  0.4048 -0.2127
  191SLPC  H12B22060   1.264   6.821   5.834 -0.1379  1.2457  1.2001
  191SLPC   C1122061   1.210   6.744   6.026  0.3709 -0.2152 -0.1652
  191SLPC  H11A22062   1.226   6.850   6.053  2.5428 -1.0747  2.3586
  191SLPC  H11B22063   1.305   6.697   6.058  0.5755  1.6255  2.2588
  191SLPC     P22064   0.982   6.792   6.139  0.0361 -0.0279  0.3070
  191SLPC   O1322065   1.002   6.925   6.078 -0.0271  0.2133 -0.1378
  191SLPC   O1422066   0.856   6.722   6.114 -0.1551  0.4569  0.3494
  191SLPC   O1222067   1.091   6.689   6.093  0.0483  0.1875  0.0792
  191SLPC   O1122068   0.997   6.800   6.292 -0.1360 -0.4918  0.5913
  191SLPC    C122069   1.122   6.829   6.357  0.1870  0.1753  0.0456
  191SLPC    HA22070   1.181   6.900   6.295 -0.5020 -2.0618 -3.3937
  191SLPC    HB22071   1.104   6.868   6.460 -2.3966  0.1971 -0.3410
  191SLPC    C222072   1.224   6.712   6.372  0.2472 -0.7443  0.2348
  191SLPC    HS22073   1.230   6.671   6.269 -1.2394  1.2907 -0.7249
  191SLPC   O2122074   1.167   6.616   6.460  0.0685 -0.1652 -0.2047
  191SLPC   C2122075   1.231   6.506   6.473 -0.0919  0.2008 -0.1504
  191SLPC   O2222076   1.329   6.472   6.403  0.1164  0.4294  0.0108
  191SLPC   C2222077   1.172   6.423   6.588  0.7349  0.2087  0.8166
  191SLPC   H2R22078   1.091   6.368   6.536 -0.5800  2.2233  0.5890
  191SLPC   H2S22079   1.253   6.366   6.638  0.2269  0.3827  1.8647
  191SLPC    C322080   1.357   6.770   6.432  0.5894 -0.1621 -0.0118
  191SLPC    HX22081   1.395   6.838   6.353 -0.5652 -0.9933 -1.3392
  191SLPC    HY22082   1.429   6.685   6.436 -0.3394 -1.0917 -1.5596
  191SLPC   O3122083   1.329   6.842   6.552 -0.0508  0.5779 -0.0307
  191SLPC   C3122084   1.438   6.893   6.607 -0.1442  0.1533  0.0683
  191SLPC   O3222085   1.546   6.894   6.548  0.1335 -0.5012 -0.2510
  191SLPC   C3222086   1.418   6.951   6.742  0.1608  0.2866 -0.7086
  191SLPC   H2X22087   1.327   7.014   6.734  0.3816  0.5747 -0.9709
  191SLPC   H2Y22088   1.507   7.005   6.779  1.3640 -1.9229 -0.2174
  191SLPC   C2322089   1.105   6.507   6.696  0.2334  0.3680 -0.3118
  191SLPC   H3R22090   1.035   6.572   6.640  1.5648  0.8112 -1.5217
  191SLPC   H3S22091   1.175   6.577   6.747  1.0722  0.6933 -1.8565
  191SLPC   C2422092   1.023   6.420   6.792  0.0999 -0.7760 -0.1551
  191SLPC   H4R22093   1.079   6.330   6.823 -1.3221 -0.6127  3.2991
  191SLPC   H4S22094   0.928   6.387   6.744  0.3776 -2.9982  0.7280
  191SLPC   C2522095   0.985   6.503   6.926  0.6550  1.0064  0.6940
  191SLPC   H5R22096   0.927   6.589   6.886 -2.4505 -1.0209  0.4636
  191SLPC   H5S22097   1.070   6.552   6.978  2.6016 -2.2410  0.7989
  191SLPC   C2622098   0.891   6.425   7.015  0.4442  0.5272 -0.1528
  191SLPC   H6R22099   0.836   6.346   6.960  0.5915 -0.9020  1.6443
  191SLPC   H6S22100   0.814   6.492   7.059 -0.8272 -0.4658 -0.8007
  191SLPC   C2722101   0.975   6.354   7.124  0.6947 -0.3166  0.3013
  191SLPC   H7R22102   1.075   6.351   7.077 -0.0724  2.7727 -1.7774
  191SLPC   H7S22103   0.933   6.254   7.149  0.7581 -0.6951 -1.0427
  191SLPC   C2822104   0.988   6.436   7.255 -0.1441 -0.0475 -0.5390
  191SLPC   H8R22105   1.015   6.541   7.231 -1.3539  0.1084 -1.2905
  191SLPC   H8S22106   1.072   6.390   7.312  1.6643  2.4208 -1.0126
  191SLPC   C2922107   0.857   6.450   7.334 -0.3414 -0.3102  0.2424
  191SLPC   H9R22108   0.771   6.475   7.270 -0.5058  0.2408  0.6738
  191SLPC  C21022109   0.842   6.435   7.470 -0.4302 -0.4020  0.9584
  191SLPC  H10R22110   0.743   6.454   7.514 -1.9690 -1.4660 -1.7884
  191SLPC  C21122111   0.950   6.401   7.570 -0.6692  0.0724 -0.1794
  191SLPC  H11R22112   0.972   6.489   7.635  1.0832  0.1842 -0.8942
  191SLPC  H11S22113   1.044   6.377   7.517 -0.1317 -0.4156  0.9575
  191SLPC  C21222114   0.935   6.273   7.646  0.3413  0.2716 -0.0065
  191SLPC  H12R22115   0.921   6.185   7.581  1.4081  1.3759 -1.7976
  191SLPC  C21322116   0.943   6.246   7.775 -0.2437  0.4812 -0.4468
  191SLPC  H13R22117   0.923   6.143   7.809 -2.2052  1.3240  1.1693
  191SLPC  C21422118   0.976   6.346   7.892  0.0912  0.0868  0.3395
  191SLPC  H14R22119   0.986   6.453   7.863 -1.0001 -0.0559 -0.6303
  191SLPC  H14S22120   1.078   6.324   7.930  0.8312  0.9564 -1.0591
  191SLPC  C21522121   0.871   6.337   8.004  0.9953  0.3051 -0.4825
  191SLPC  H15R22122   0.824   6.237   8.009  0.4382  0.5947  0.2796
  191SLPC  H15S22123   0.797   6.412   7.971  0.8001  0.0903 -0.5382
  191SLPC  C21622124   0.921   6.367   8.145 -0.3815 -1.0449  0.2390
  191SLPC  H16R22125   0.966   6.467   8.156  0.1543 -1.3659  0.9832
  191SLPC  H16S22126   1.005   6.297   8.164  2.5769  1.9617 -0.7331
  191SLPC  C21722127   0.816   6.345   8.250  0.4059 -0.8097 -0.1858
  191SLPC  H17R22128   0.763   6.247   8.245 -0.6943 -0.5414  3.3640
  191SLPC  H17S22129   0.746   6.428   8.227  2.3018  1.3127  1.3352
  191SLPC  C21822130   0.863   6.358   8.392 -0.2995 -0.1859 -0.1204
  191SLPC  H18R22131   0.922   6.278   8.440 -1.2529 -0.6575  0.2978
  191SLPC  H18S22132   0.773   6.374   8.456  0.3221 -0.8532  0.9427
  191SLPC  H18T22133   0.918   6.453   8.410  0.9430 -0.9546  0.2335
  191SLPC   C3322134   1.409   6.838   6.845  0.0727  0.0789 -0.2349
  191SLPC   H3X22135   1.502   6.777   6.842 -0.1791 -0.6726  3.1254
  191SLPC   H3Y22136   1.331   6.774   6.798  1.3253  0.6170 -3.3163
  191SLPC   C3422137   1.364   6.886   6.979  0.3545  0.1095  0.9586
  191SLPC   H4X22138   1.260   6.923   6.969 -0.5954 -2.1694  1.6588
  191SLPC   H4Y22139   1.423   6.970   7.022  0.8703  1.5556 -2.3167
  191SLPC   C3522140   1.355   6.768   7.078 -0.3705  0.4139 -0.1899
  191SLPC   H5X22141   1.449   6.709   7.071  0.6798  1.9133  0.7378
  191SLPC   H5Y22142   1.268   6.705   7.048  0.3602 -0.1473 -1.1776
  191SLPC   C3622143   1.342   6.808   7.226 -0.1036 -0.6466 -0.4010
  191SLPC   H6X22144   1.256   6.875   7.249  0.0978 -0.3278 -0.5740
  191SLPC   H6Y22145   1.429   6.872   7.250 -0.5836 -0.1755  0.1244
  191SLPC   C3722146   1.318   6.677   7.314  0.0310 -0.5239 -0.8215
  191SLPC   H7X22147   1.419   6.635   7.331  0.3656  1.2032  2.2393
  191SLPC   H7Y22148   1.257   6.598   7.266 -1.0126  0.4091 -1.0841
  191SLPC   C3822149   1.260   6.715   7.450 -0.0738 -0.2284 -0.2390
  191SLPC   H8X22150   1.156   6.754   7.439  0.6515  2.4130  1.3587
  191SLPC   H8Y22151   1.314   6.797   7.501 -0.0685  1.0948 -2.2435
  191SLPC   C3922152   1.263   6.604   7.561 -0.5524  0.3788  0.1402
  191SLPC   H9X22153   1.365   6.562   7.574 -1.1212 -0.7805  0.9658
  191SLPC   H9Y22154   1.193   6.522   7.534  0.1125 -0.5879  1.2557
  191SLPC  C31022155   1.223   6.669   7.696 -0.3620 -0.2818 -0.8414
  191SLPC  H10X22156   1.121   6.710   7.686 -0.0851  0.9881  1.0671
  191SLPC  H10Y22157   1.292   6.753   7.720 -0.3936 -0.4814 -0.0252
  191SLPC  C31122158   1.238   6.557   7.798  0.0927  0.4901 -0.1521
  191SLPC  H11X22159   1.340   6.514   7.790  0.4549  1.0630  1.2111
  191SLPC  H11Y22160   1.166   6.473   7.787  0.7861 -0.0240 -0.8981
  191SLPC  C31222161   1.236   6.602   7.946 -0.5087 -0.0395 -0.3322
  191SLPC  H12X22162   1.170   6.529   7.997 -1.0260  0.0407 -0.8771
  191SLPC  H12Y22163   1.175   6.695   7.949 -4.2842 -2.3188 -0.3127
  191SLPC  C31322164   1.372   6.615   8.018 -0.0350 -0.0389 -0.5435
  191SLPC  H13X22165   1.434   6.697   7.976  1.6552 -2.0994 -2.3623
  191SLPC  H13Y22166   1.426   6.518   8.025  0.4049  0.2121 -0.3875
  191SLPC  C31422167   1.356   6.658   8.167 -0.0496  0.0832 -0.3268
  191SLPC  H14X22168   1.285   6.744   8.173 -0.2466 -0.1999  2.2889
  191SLPC  H14Y22169   1.455   6.697   8.199 -0.0744  0.2194 -0.4156
  191SLPC  C31522170   1.324   6.546   8.259 -0.6767 -0.7753  0.2986
  191SLPC  H15X22171   1.417   6.485   8.261  0.3181  0.5891 -1.0415
  191SLPC  H15Y22172   1.238   6.492   8.216 -0.7590 -0.1281 -0.3863
  191SLPC  C31622173   1.298   6.609   8.400 -0.1535  1.1330  1.0290
  191SLPC  H16X22174   1.273   6.717   8.393  2.0587  1.5795 -1.2305
  191SLPC  H16Y22175   1.384   6.609   8.470  0.1664 -4.1190  1.0276
  191SLPC  C31722176   1.196   6.520   8.479 -0.5875 -0.3560 -0.8352
  191SLPC  H17X22177   1.256   6.430   8.504 -2.2697 -1.2210  0.2329
  191SLPC  H17Y22178   1.109   6.495   8.414  0.6437 -1.4573 -2.1252
  191SLPC  C31822179   1.152   6.588   8.612 -0.3715 -0.1052 -0.2107
  191SLPC  H18X22180   1.110   6.506   8.675 -2.9159  0.6670 -0.7589
  191SLPC  H18Y22181   1.064   6.653   8.595 -2.8998 -2.6356  1.9760
  191SLPC  H18Z22182   1.232   6.641   8.668 -0.7565 -0.2555  0.4948
  192SLPC     N22183   4.847   5.319   6.306  0.8878 -0.4943  0.6558
  192SLPC   C1322184   4.756   5.287   6.192 -0.3628  0.1634  0.0303
  192SLPC  H13A22185   4.650   5.306   6.203 -0.2041  1.7263 -0.8760
  192SLPC  H13B22186   4.793   5.344   6.109 -2.4940  2.2495  0.3864
  192SLPC  H13C22187   4.766   5.187   6.154  1.0525  0.6288 -0.9005
  192SLPC   C1422188   4.841   5.467   6.325 -0.1731  0.4645 -0.0220
  192SLPC  H14A22189   4.741   5.486   6.363 -0.0830  0.4076  0.2492
  192SLPC  H14B22190   4.917   5.501   6.394  1.2971 -0.4217 -1.1601
  192SLPC  H14C22191   4.862   5.516   6.232 -1.1597 -0.3775 -0.7122
  192SLPC   C1522192   4.978   5.276   6.263 -0.2167  0.1368 -0.4126
  192SLPC  H15A22193   5.001   5.304   6.161  1.5993 -2.0645 -0.7049
  192SLPC  H15B22194   5.065   5.313   6.316  0.4280  2.5167 -2.9023
  192SLPC  H15C22195   4.982   5.168   6.257  2.1176  0.1540 -0.1449
  192SLPC   C1222196   4.797   5.244   6.430 -0.7701  0.0779 -0.2209
  192SLPC  H12A22197   4.781   5.141   6.401 -2.3364  0.5934 -1.3507
  192SLPC  H12B22198   4.704   5.294   6.452  0.0829  2.6440 -1.9260
  192SLPC   C1122199   4.891   5.243   6.557 -0.1416  0.1365 -0.0427
  192SLPC  H11A22200   4.832   5.189   6.634  0.6964  1.0094  1.2566
  192SLPC  H11B22201   4.901   5.346   6.599 -0.2087 -0.3348  1.1663
  192SLPC     P22202   5.040   5.031   6.545 -0.4079 -0.1552 -0.0033
  192SLPC   O1322203   4.932   4.957   6.471  0.2059  0.2519  0.4041
  192SLPC   O1422204   5.177   4.999   6.510  0.1935 -0.6610  0.3514
  192SLPC   O1222205   5.013   5.187   6.522  0.0293 -0.2962  0.1093
  192SLPC   O1122206   5.015   5.011   6.697  0.4459 -0.3067  0.4370
  192SLPC    C122207   5.101   5.078   6.792 -0.7083  0.0934 -0.2770
  192SLPC    HA22208   5.209   5.082   6.768  0.2677 -0.6549  3.4964
  192SLPC    HB22209   5.075   5.185   6.802  1.2028  0.4797  0.8643
  192SLPC    C222210   5.082   5.024   6.936  0.4258 -0.6762 -0.1553
  192SLPC    HS22211   5.129   5.089   7.013  0.7914 -1.4719  0.3055
  192SLPC   O2122212   5.141   4.886   6.955  0.5639 -0.0188  0.0402
  192SLPC   C2122213   5.272   4.891   6.955 -0.3398 -0.0558 -0.2128
  192SLPC   O2222214   5.344   4.990   6.959 -0.1508  0.1819 -0.4128
  192SLPC   C2222215   5.327   4.752   6.970 -0.8819 -0.2385 -0.7698
  192SLPC   H2R22216   5.311   4.699   6.873  2.5853 -1.1888 -0.9853
  192SLPC   H2S22217   5.436   4.762   6.989 -1.4653  0.9265  2.5321
  192SLPC    C322218   4.926   5.002   6.971 -0.0807 -0.0053 -0.4151
  192SLPC    HX22219   4.893   4.905   6.928 -4.8983  1.4722 -0.6971
  192SLPC    HY22220   4.882   5.091   6.920 -0.0135 -0.4076 -1.2020
  192SLPC   O3122221   4.904   5.015   7.110 -0.1796 -0.5153  0.6660
  192SLPC   C3122222   4.776   4.987   7.149  0.0285 -0.6351 -0.5195
  192SLPC   O3222223   4.683   4.957   7.076 -0.1494  0.0331 -0.1589
  192SLPC   C3222224   4.777   4.991   7.309 -0.1813 -0.0509  0.0029
  192SLPC   H2X22225   4.819   5.091   7.332 -0.3651 -0.3870  2.0191
  192SLPC   H2Y22226   4.850   4.913   7.341 -0.9935  0.2283  2.8325
  192SLPC   C2322227   5.268   4.675   7.095  0.3616 -0.0974  1.3785
  192SLPC   H3R22228   5.313   4.574   7.103  0.7813  0.1262  1.8479
  192SLPC   H3S22229   5.158   4.675   7.075  0.7331  0.1440 -0.9316
  192SLPC   C2422230   5.300   4.754   7.221 -1.2024 -0.7333  0.5526
  192SLPC   H4R22231   5.274   4.862   7.212 -2.1650 -0.9875  0.0247
  192SLPC   H4S22232   5.409   4.760   7.238 -0.9347  0.6343 -1.3321
  192SLPC   C2522233   5.228   4.703   7.344 -0.4422  0.3542 -0.6364
  192SLPC   H5R22234   5.122   4.731   7.356 -1.3251 -3.2237  1.2314
  192SLPC   H5S22235   5.283   4.748   7.430  1.1752  1.6594 -2.2445
  192SLPC   C2622236   5.249   4.555   7.363 -0.1744  0.1906  0.6598
  192SLPC   H6R22237   5.210   4.498   7.275  0.1725  0.3700  0.3864
  192SLPC   H6S22238   5.172   4.536   7.441  0.2317 -0.8586  0.8188
  192SLPC   C2722239   5.396   4.519   7.398 -0.1606  0.2670  0.0268
  192SLPC   H7R22240   5.441   4.592   7.468 -0.0433  0.4714 -0.2598
  192SLPC   H7S22241   5.462   4.536   7.310 -0.1193  0.1445  0.0341
  192SLPC   C2822242   5.405   4.373   7.446  0.0568  0.1862  0.8010
  192SLPC   H8R22243   5.392   4.305   7.359  0.8316 -1.3673  1.8558
  192SLPC   H8S22244   5.329   4.350   7.523 -0.7553 -0.1946 -0.1003
  192SLPC   C2922245   5.544   4.341   7.508  0.5361  0.3014  0.5349
  192SLPC   H9R22246   5.619   4.344   7.427 -1.0772 -0.1720 -1.0311
  192SLPC  C21022247   5.576   4.346   7.639  0.4788 -0.0047  0.1632
  192SLPC  H10R22248   5.680   4.318   7.661  0.5803  0.1406 -0.1233
  192SLPC  C21122249   5.475   4.372   7.747 -0.2248  0.0682 -0.0066
  192SLPC  H11R22250   5.491   4.294   7.824  0.4030  1.1709  1.0100
  192SLPC  H11S22251   5.372   4.352   7.711  1.3617 -4.0185 -2.9691
  192SLPC  C21222252   5.497   4.499   7.832  0.4502  1.1119  0.4325
  192SLPC  H12R22253   5.587   4.501   7.896 -0.7981  0.6433  2.2847
  192SLPC  C21322254   5.411   4.606   7.825 -1.5063  0.3342  0.5321
  192SLPC  H13R22255   5.437   4.692   7.888  1.7404  0.1823 -0.4122
  192SLPC  C21422256   5.294   4.624   7.742 -0.6053 -0.7054 -0.1314
  192SLPC  H14R22257   5.315   4.567   7.648 -1.2498 -0.8218 -0.2116
  192SLPC  H14S22258   5.285   4.734   7.725  1.5715 -0.0344  2.5037
  192SLPC  C21522259   5.158   4.569   7.787 -0.2957  0.9166 -0.3263
  192SLPC  H15R22260   5.165   4.467   7.831  0.9830  2.2275  2.8455
  192SLPC  H15S22261   5.090   4.564   7.699 -0.1777 -2.7990 -0.3627
  192SLPC  C21622262   5.093   4.648   7.906 -0.4475  0.2077  0.5896
  192SLPC  H16R22263   5.094   4.755   7.877  1.6055  0.0352 -0.1547
  192SLPC  H16S22264   5.160   4.644   7.995 -0.6423  1.5314  0.8084
  192SLPC  C21722265   4.950   4.600   7.939 -0.4327 -0.9084 -0.5469
  192SLPC  H17R22266   4.878   4.611   7.855 -3.2093 -1.7832  1.5737
  192SLPC  H17S22267   4.962   4.491   7.958  1.9737 -0.2774  2.3696
  192SLPC  C21822268   4.896   4.681   8.056 -0.0430 -0.1634  0.5620
  192SLPC  H18R22269   4.938   4.784   8.055  0.8553 -0.5187  0.5392
  192SLPC  H18S22270   4.936   4.622   8.142 -0.3448  0.7507  1.3588
  192SLPC  H18T22271   4.787   4.673   8.076 -0.1208 -0.0124  0.1992
  192SLPC   C3322272   4.636   4.968   7.374  0.2599 -0.0860 -0.0848
  192SLPC   H3X22273   4.605   4.863   7.355  0.0258  0.0433 -0.4517
  192SLPC   H3Y22274   4.555   5.028   7.326 -1.7682 -3.2599 -0.9727
  192SLPC   C3422275   4.626   5.013   7.518  0.1934  0.3251 -0.1141
  192SLPC   H4X22276   4.525   4.980   7.551 -0.4708  0.9274 -1.4757
  192SLPC   H4Y22277   4.619   5.124   7.520 -0.0104  0.3406  2.4901
  192SLPC   C3522278   4.733   4.959   7.610  0.3232 -0.2213 -0.9010
  192SLPC   H5X22279   4.834   4.990   7.576  0.4829 -4.2846 -5.0565
  192SLPC   H5Y22280   4.727   4.849   7.594 -1.2242 -0.5392  1.3615
  192SLPC   C3622281   4.706   4.982   7.758 -0.3329 -0.1462  0.1144
  192SLPC   H6X22282   4.770   4.916   7.820  1.8917  0.2948 -1.5797
  192SLPC   H6Y22283   4.601   4.953   7.774 -0.0610 -1.6566 -0.6644
  192SLPC   C3722284   4.699   5.128   7.814 -0.0355 -0.0965 -0.4751
  192SLPC   H7X22285   4.606   5.175   7.776  1.2027  2.6020 -0.3615
  192SLPC   H7Y22286   4.768   5.211   7.788 -4.3063  3.7612 -0.7593
  192SLPC   C3822287   4.704   5.130   7.964  0.1530 -0.5817 -0.1700
  192SLPC   H8X22288   4.805   5.115   8.007 -0.1400 -0.5878  0.5429
  192SLPC   H8Y22289   4.634   5.057   8.012 -1.3634  0.9575  0.0888
  192SLPC   C3922290   4.653   5.273   8.009  0.6808 -0.5454  0.0784
  192SLPC   H9X22291   4.547   5.295   7.983  0.8350  0.7202  0.4761
  192SLPC   H9Y22292   4.713   5.360   7.975  0.3210  0.0205  0.8807
  192SLPC  C31022293   4.642   5.280   8.165 -0.4331  0.6585 -0.2317
  192SLPC  H10X22294   4.743   5.258   8.203 -0.0048  0.9550 -1.1658
  192SLPC  H10Y22295   4.566   5.210   8.206 -2.7068  4.4222  2.6086
  192SLPC  C31122296   4.594   5.412   8.216  0.3634 -0.5453 -0.5826
  192SLPC  H11X22297   4.488   5.419   8.183  1.3989 -0.4598 -4.3746
  192SLPC  H11Y22298   4.657   5.490   8.169  0.7491  1.6872  3.2844
  192SLPC  C31222299   4.588   5.418   8.374  0.1642  0.4112  0.3360
  192SLPC  H12X22300   4.685   5.401   8.424  0.9159  0.9551 -0.8837
  192SLPC  H12Y22301   4.519   5.333   8.392 -1.1728  1.2162 -0.7783
  192SLPC  C31322302   4.526   5.553   8.414 -0.0668  0.1995  0.2702
  192SLPC  H13X22303   4.432   5.575   8.358 -0.3998  0.5348  0.9531
  192SLPC  H13Y22304   4.591   5.632   8.369 -3.5289  2.7174 -0.7395
  192SLPC  C31422305   4.490   5.564   8.558  0.1581 -0.1663  0.4767
  192SLPC  H14X22306   4.580   5.562   8.623 -0.8139  0.0916  1.8582
  192SLPC  H14Y22307   4.435   5.469   8.572  0.0382 -0.2108 -0.2442
  192SLPC  C31522308   4.387   5.684   8.585  0.0407  0.1595  0.6229
  192SLPC  H15X22309   4.326   5.648   8.670 -0.7693 -3.1596 -1.1595
  192SLPC  H15Y22310   4.323   5.696   8.495  1.2507  1.1704 -0.1385
  192SLPC  C31622311   4.453   5.815   8.603 -0.5238 -0.2029 -0.5728
  192SLPC  H16X22312   4.537   5.826   8.531  1.3104 -1.3926  1.2763
  192SLPC  H16Y22313   4.511   5.826   8.696 -1.3566  2.8327 -0.3162
  192SLPC  C31722314   4.357   5.935   8.600  0.6136  0.1465  0.8247
  192SLPC  H17X22315   4.313   5.935   8.498  2.2191 -2.9780  0.0067
  192SLPC  H17Y22316   4.420   6.026   8.615  0.7326 -0.1266  2.0996
  192SLPC  C31822317   4.248   5.932   8.704 -0.5307  0.1290  0.4624
  192SLPC  H18X22318   4.309   5.937   8.797  1.8191 -3.7647 -0.6374
  192SLPC  H18Y22319   4.205   5.830   8.709  0.7431 -0.4457  0.1699
  192SLPC  H18Z22320   4.182   6.021   8.700 -0.8021 -0.0137 -4.3238
  193SOD    SOD22321   5.150   2.256  15.179 -0.1168 -0.2482  0.2237
  194SOD    SOD22322   4.965   0.933   6.470  0.0679 -0.2486 -0.2707
  195SOD    SOD22323   4.660   5.747   4.838  0.1672  0.0034 -0.4484
  196SOD    SOD22324   2.855   1.133  17.275 -0.2906  0.2548  0.7660
  197SOD    SOD22325   5.424   3.823   2.302  0.0596 -0.1555 -0.3419
  198SOD    SOD22326   3.907   2.116  13.723  0.3312  0.2544  0.3860
  199SOD    SOD22327   6.316   0.071  11.448  0.1270 -0.0366  0.4530
  200SOD    SOD22328   6.239   3.524  16.504 -0.4668 -0.4693 -0.1878
  201SOD    SOD22329   3.389   1.578  12.381 -0.3207  0.2991  0.3003
  202SOD    SOD22330   3.099   1.242   4.037  0.3371 -0.2602 -0.0414
  203SOD    SOD22331   2.167   5.050   4.541 -0.1014 -0.3102 -0.8056
  204SOD    SOD22332   2.909   4.836   1.182 -0.3431 -0.3256  0.0468
  205SOD    SOD22333   4.633   5.041   1.156 -0.3237  0.4643  0.1191
  206SOD    SOD22334   0.934   1.830  11.749 -0.3114 -0.5164  0.1106
  207SOD    SOD22335   1.670   5.479  11.795 -0.1899 -0.0382  0.2146
  208SOD    SOD22336   1.333   2.167  11.172 -0.1688 -0.5350  0.0608
  209SOD    SOD22337   2.432   1.112   1.185 -0.5098 -0.3892  0.2471
  210SOD    SOD22338   3.809   6.053  12.105  0.4041 -0.4430  0.4086
  211SOD    SOD22339   2.887   1.879  13.647 -0.1911 -0.0413 -0.1629
  212SOD    SOD22340   5.453   0.283  10.841 -0.6851 -0.1148  0.2033
  213SOD    SOD22341   3.724   5.479   2.697 -0.0207  0.2972 -0.1145
  214SOD    SOD22342   5.257   3.037   2.519 -0.3843  0.3616 -0.0048
  215SOD    SOD22343   5.251   3.814  15.685 -0.1436 -0.2199  0.1766
  216SOD    SOD22344   4.888   6.113   6.119  0.0269  0.5884  0.0313
  217SOD    SOD22345   2.429   5.296  15.106 -0.0309 -0.4610  0.0839
  218SOD    SOD22346   4.671   0.372   2.635 -0.1391  0.5495 -0.1219
  219SOD    SOD22347   5.196   1.286   1.785 -0.2472  0.2986 -0.4344
  220SOD    SOD22348   1.115   5.675   3.640  0.6370  0.2165  0.1650
  221SOD    SOD22349   1.424   3.226   1.930 -0.6894  0.2406 -0.0094
  222SOD    SOD22350   6.524   6.074  16.503  0.6554 -0.7445 -0.2013
  223SOD    SOD22351   3.857   1.806  12.162 -0.3438 -0.4948  0.1329
  224SOD    SOD22352   0.153   3.733  16.878 -0.0782  0.6049  0.2628
  225SOD    SOD22353   2.329   3.616  14.095  0.0482 -0.3353 -0.8572
  226SOD    SOD22354   3.028   0.662   5.239 -0.0769 -0.0156 -0.3193
  227SOD    SOD22355   4.448   4.099  11.432  0.0266 -0.4546 -0.2106
  228SOD    SOD22356   3.003   3.237   4.789 -0.7976 -0.4037 -0.2900
  229SOD    SOD22357   2.478   0.296  10.874 -0.2944 -0.0203 -0.1803
  230SOD    SOD22358   6.598   1.176   1.093 -0.0313 -0.1615 -0.6341
  231SOD    SOD22359   5.866   6.199   2.633 -0.6793  0.2522  0.4158
  232SOD    SOD22360   3.983   2.549   4.336  0.2286 -0.5003  0.3413
  233SOD    SOD22361   6.501   2.463  12.557  0.1443 -0.0461 -0.1967
  234SOD    SOD22362   0.095   4.061  11.373 -0.4257  0.0994  0.1688
  235SOD    SOD22363   0.137   0.133  16.732 -0.0901  0.3701  0.1457
  236SOD    SOD22364   4.534   5.237   3.118 -0.3423 -0.3233 -0.0151
  237SOD    SOD22365   2.199   2.169   5.369 -0.1912  0.4287 -0.0913
  238SOD    SOD22366   0.937   1.035   2.668 -0.5274  0.3512 -0.3138
  239SOD    SOD22367   0.718   5.536   5.685  0.0550 -0.2840  0.3965
  240SOD    SOD22368   6.507   2.562  11.276  0.4044 -0.1449 -0.2829
  241SOD    SOD22369   4.793   4.760  11.998  0.0309  0.2865 -0.0305
  242SOD    SOD22370   5.120   6.248  17.077  0.4298  0.0183 -0.0869
  243SOD    SOD22371   1.674   6.759   2.334  0.1621  0.5317 -0.0311
  244SOD    SOD22372   3.504   0.141   0.996 -0.3802 -0.1870  0.3901
  245SOD    SOD22373   2.542   2.409  15.369 -0.1787 -0.0846  0.3819
  246SOD    SOD22374   0.076   1.874   6.563  0.0940 -0.1365 -0.3459
  247SOD    SOD22375   5.663   1.532  11.558  0.4981  0.0618  0.0117
  248SOD    SOD22376   5.845   4.260   1.484 -0.3064 -0.3465  0.2815
  249SOD    SOD22377   0.850   0.926  13.129  0.3230  0.2776 -0.5419
  250SOD    SOD22378   6.610   3.377   2.836 -0.3508 -0.4116 -0.0706
  251SOD    SOD22379   2.898   1.906   3.918 -0.5257  0.3182 -0.1724
  252SOD    SOD22380   0.660   6.011   4.426  0.1297 -0.0297 -0.2491
  253SOD    SOD22381   2.080   4.139   3.043  0.1154 -0.2550  0.3826
  254SOD    SOD22382   0.686   4.742   5.875 -0.1296 -0.1697 -0.2895
  255SOD    SOD22383   1.701   4.987  12.940 -0.3349  0.3223  0.0170
  256SOD    SOD22384   4.067   4.181  14.857  0.0632 -0.4051  0.0729
  257SOD    SOD22385   0.976   4.748  16.650  0.1421  0.0267 -0.1792
  258SOD    SOD22386   1.650   6.183  12.782 -0.1334 -0.3710  0.1863
  259SOD    SOD22387   4.500   5.999   4.034 -0.5067 -0.4457 -0.1159
  260SOD    SOD22388   4.054   2.015   5.874  0.3730  0.2732 -0.3145
  261SOD    SOD22389   2.821   1.055  16.294 -0.2553 -0.0100 -0.1113
  262SOD    SOD22390   5.445   4.024   6.378 -0.0019 -0.2875  0.0357
  263SOD    SOD22391   3.166   3.013  11.119 -0.3471  0.1236 -0.5686
  264SOD    SOD22392   1.161   1.857  13.159  0.2701 -0.0847 -0.4495
  265SOD    SOD22393   2.146   2.782   0.198 -0.0407  0.2675 -0.0373
  266CLA    CLA22394   2.824   4.787   0.180  0.0201  0.0817  0.2108
  267CLA    CLA22395   4.920   5.986   0.134  0.0774 -0.3356  0.3495
  268CLA    CLA22396   5.993   3.122   1.518  0.1342 -0.5029  0.5376
  269CLA    CLA22397   1.571   6.352   3.399 -0.2361 -0.1603 -0.3597
  270CLA    CLA22398   6.607   0.885  17.264 -0.3126  0.2359  0.1196
  271CLA    CLA22399   0.695   6.502   5.016 -0.4117 -0.0244 -0.0233
  272CLA    CLA22400   1.402   0.649   2.411  0.4763  0.0917 -0.2440
  273CLA    CLA22401   4.267   5.669  13.246  0.0902 -0.0248 -0.1987
  274CLA    CLA22402   2.505   3.541  12.922  0.0522  0.2001  0.2250
  275CLA    CLA22403   4.616   1.526   3.328  0.0211 -0.1681  0.1088
  276CLA    CLA22404   0.912   0.861  11.668  0.2911 -0.2643  0.3178
  277CLA    CLA22405   3.942   2.930   1.714 -0.3020  0.0071  0.3318
  278CLA    CLA22406   1.664   4.315   0.278 -0.0597  0.0144 -0.2992
  279CLA    CLA22407   3.396   1.891   3.697  0.4549 -0.0059 -0.1227
  280CLA    CLA22408   5.476   6.311   2.944  0.0622  0.1986  0.1415
  281CLA    CLA22409   4.921   3.345  14.362  0.1142 -0.0756 -0.0547
  282CLA    CLA22410   0.592   1.812  17.226  0.3579  0.1276 -0.2377
  283CLA    CLA22411   2.310   4.908  13.891  0.0488 -0.0637 -0.1860
  284CLA    CLA22412   5.657   4.719   0.958  0.0473  0.2591 -0.0818
  285CLA    CLA22413   1.287   4.309   2.664  0.0091 -0.0453  0.1212
  286CLA    CLA22414   0.127   3.908   2.673 -0.3454  0.3797 -0.1201
  287CLA    CLA22415   4.653   1.454   4.437 -0.0731  0.2767 -0.1726
  288CLA    CLA22416   5.047   4.819  15.691  0.0467  0.2686  0.0520
  289CLA    CLA22417   2.609   6.382   5.640 -0.4933  0.1318 -0.0159
  290CLA    CLA22418   3.160   1.431   0.103 -0.1329 -0.1286  0.1400
  291CLA    CLA22419   3.919   2.525  15.521 -0.1996 -0.1882 -0.1722
  292CLA    CLA22420   3.708   1.869  11.617 -0.1689 -0.2251  0.2553
  293CLA    CLA22421   4.031   3.987  11.642 -0.3378 -0.1016 -0.0151
  294CLA    CLA22422   0.774   5.155   5.435  0.0782 -0.1364 -0.1371
  295CLA    CLA22423   1.261   5.084  16.411 -0.2421  0.2077 -0.4076
  296CLA    CLA22424   2.143   5.427   0.631  0.1731  0.1908  0.1142
  297CLA    CLA22425   4.775   4.753   1.538  0.0868  0.1459  0.3912
  298CLA    CLA22426   2.268   5.481   1.950 -0.4263 -0.0927  0.2104
  299CLA    CLA22427   4.689   1.258   1.775  0.1741 -0.1259 -0.3355
  300CLA    CLA22428   5.943   1.100  17.044  0.0074  0.2605  0.3146
  301CLA    CLA22429   2.983   4.246   3.937  0.0245 -0.1009  0.1742
  302CLA    CLA22430   3.885   1.576  15.745  0.1774  0.5504  0.2286
  303CLA    CLA22431   5.672   3.181  12.392  0.1214  0.0019 -0.6915
  304CLA    CLA22432   3.394   4.974  14.784  0.3269  0.1283  0.3238
  305CLA    CLA22433   0.243   1.748   5.813  0.3831 -0.0487 -0.1677
  306CLA    CLA22434   0.833   1.732   2.847 -0.0695  0.0036 -0.0267
  307CLA    CLA22435   0.903   1.505  15.355 -0.5211  0.1301  0.1696
  308CLA    CLA22436   0.987   6.159   2.493 -0.1781  0.5307  0.3050
  309CLA    CLA22437   2.609   0.920  12.451 -0.1597 -0.4391  0.4628
  310CLA    CLA22438   4.262   5.426  14.114 -0.0649 -0.0622  0.1246
  311CLA    CLA22439   1.240   4.113   0.060  0.0022  0.1727  0.3581
  312CLA    CLA22440   0.049   0.178  11.879 -0.2042  0.0620  0.5438
  313CLA    CLA22441   0.122   2.226  12.613 -0.2042 -0.0528  0.5800
  314CLA    CLA22442   3.990   0.240   0.849 -0.2325  0.1153  0.1938
  315CLA    CLA22443   3.435   1.310   1.354  0.4292  0.1142  0.0829
  316CLA    CLA22444   5.916   1.148  14.228  0.0161 -0.3512 -0.0804
  317CLA    CLA22445   6.475   2.652   0.830  0.0662 -0.2889 -0.2519
  318CLA    CLA22446   3.364   5.594  12.090  0.2526  0.2414  0.2027
  319TIP3   OH222447   5.615   5.731   4.895  0.4247 -0.1503 -0.2827
  319TIP3    H122448   5.659   5.647   4.882 -0.0331 -1.1615  3.4413
  319TIP3    H222449   5.529   5.720   4.856  0.7752 -0.9874 -0.8358
  320TIP3   OH222450   3.253   3.960  14.421 -0.3896  0.8460  0.5514
  320TIP3    H122451   3.226   3.897  14.488  0.1475 -0.2571 -0.2378
  320TIP3    H222452   3.346   3.974  14.438 -0.1879  0.3562 -0.1056
  321TIP3   OH222453   2.861   2.019   4.124  0.0319 -0.4364 -0.5707
  321TIP3    H122454   2.881   2.034   4.216 -0.5016 -1.1015 -0.3380
  321TIP3    H222455   2.800   2.089   4.100  0.4561 -0.0469 -0.5273
  322TIP3   OH222456   4.600   0.226   3.604 -0.5620  0.5250  0.1285
  322TIP3    H122457   4.560   0.310   3.623  0.1024  0.8389  0.1545
  322TIP3    H222458   4.692   0.246   3.587 -0.6484 -0.0306 -1.0978
  323TIP3   OH222459   2.338   4.926  12.591  0.4206  0.4918 -0.8439
  323TIP3    H122460   2.255   4.968  12.614  0.6139  0.7438 -0.5828
  323TIP3    H222461   2.340   4.926  12.496  0.8766  2.0516 -0.8654
  324TIP3   OH222462   0.024   6.622   0.496 -0.7263  0.2491  0.0707
  324TIP3    H122463  -0.048   6.686   0.493 -0.6508  0.3409  0.1897
  324TIP3    H222464  -0.019   6.538   0.507 -0.7560  0.4484  1.6220
  325TIP3   OH222465   3.134   6.311  13.507  0.5692 -0.1308 -0.1019
  325TIP3    H122466   3.153   6.402  13.486 -1.0950 -0.1834 -2.2588
  325TIP3    H222467   3.181   6.260  13.441  1.5973 -0.8884  1.1615
  326TIP3   OH222468   4.995   0.952   3.476  0.5676  0.0830 -0.4009
  326TIP3    H122469   5.034   1.019   3.420  0.1365 -0.0878 -0.9073
  326TIP3    H222470   5.064   0.930   3.538  0.3633  1.8225  0.5102
  327TIP3   OH222471   6.777   1.967   3.968 -0.6361  0.7870 -0.5335
  327TIP3    H122472   6.686   1.998   3.973 -0.8793  0.0112 -0.0283
  327TIP3    H222473   6.818   2.024   3.903 -1.1036  2.0843  0.2737
  328TIP3   OH222474   3.769   4.999   5.533  0.1036 -0.2037 -0.1469
  328TIP3    H122475   3.764   5.091   5.507 -0.1511  0.0228  0.6814
  328TIP3    H222476   3.746   4.950   5.454 -0.9586  0.4682 -0.2637
  329TIP3   OH222477   4.734   0.406  11.005  0.4008  0.6233 -0.0949
  329TIP3    H122478   4.721   0.487  11.054 -0.9873 -0.6399  1.7888
  329TIP3    H222479   4.659   0.351  11.029  2.0243 -1.7574 -0.1004
  330TIP3   OH222480   0.406   1.967  15.161 -0.6406 -0.1806  0.1277
  330TIP3    H122481   0.351   2.044  15.174 -0.2206  0.4448 -1.5036
  330TIP3    H222482   0.463   1.965  15.238 -1.2783  0.5954  0.6356
  331TIP3   OH222483   2.544   4.084   5.501  0.1462 -0.0421  0.1094
  331TIP3    H122484   2.579   4.158   5.452 -1.6275  0.6663 -0.1351
  331TIP3    H222485   2.528   4.118   5.589  0.5424 -0.5062  0.3693
  332TIP3   OH222486   3.353   3.861   6.096 -0.4142 -0.4192 -0.1397
  332TIP3    H122487   3.448   3.865   6.101 -0.4609  1.1696 -0.1832
  332TIP3    H222488   3.329   3.786   6.151  0.7469  0.1506  1.2015
  333TIP3   OH222489   4.237   4.006   4.621  0.4129  0.4181 -0.1093
  333TIP3    H122490   4.286   3.934   4.660 -0.0924 -0.0289 -0.2991
  333TIP3    H222491   4.240   4.075   4.687  2.2467  0.8155 -0.5512
  334TIP3   OH222492   6.157   3.418  15.665  0.3636  0.1048 -0.7668
  334TIP3    H122493   6.189   3.425  15.575  1.4228 -0.3259 -0.4392
  334TIP3    H222494   6.155   3.324  15.682  0.9526  0.2091 -0.0779
  335TIP3   OH222495   2.448   6.640   5.664 -0.4257  0.1695 -0.0363
  335TIP3    H122496   2.359   6.605   5.674 -0.1473 -0.3116  0.8510
  335TIP3    H222497   2.504   6.563   5.667  0.0775  0.5464  0.2220
  336TIP3   OH222498   0.655   1.834   5.327  0.0477  0.3124 -0.3049
  336TIP3    H122499   0.704   1.899   5.276  0.3990  0.3951  0.1318
  336TIP3    H222500   0.622   1.883   5.402 -1.7275  0.5487 -1.1673
  337TIP3   OH222501   0.533   1.031   6.328  0.0112  0.0921 -0.2065
  337TIP3    H122502   0.547   0.953   6.275  1.1394  0.1596 -0.0242
  337TIP3    H222503   0.499   0.997   6.411 -0.4427 -0.1180 -0.4727
  338TIP3   OH222504   5.606   1.418   2.986  0.1037 -0.1168 -0.3097
  338TIP3    H122505   5.535   1.411   3.050  0.1709 -0.9421 -0.3047
  338TIP3    H222506   5.686   1.405   3.037  0.3319  1.5807 -0.1868
  339TIP3   OH222507   0.475   5.823   2.475  0.7257  0.6576  0.6106
  339TIP3    H122508   0.429   5.857   2.552  1.0889  0.0054  1.1200
  339TIP3    H222509   0.476   5.729   2.487 -1.3105  0.3019 -1.3539
  340TIP3   OH222510   5.946   5.811  15.420  0.1511  0.2410 -0.0370
  340TIP3    H122511   5.934   5.716  15.424 -2.3178  0.4528 -1.1101
  340TIP3    H222512   5.906   5.837  15.338 -0.5974  2.4007  0.9454
  341TIP3   OH222513   3.747   4.244  17.018  0.3171  0.0401  0.1360
  341TIP3    H122514   3.696   4.271  16.941 -0.2109 -1.0493  0.0844
  341TIP3    H222515   3.836   4.273  16.999  0.2500 -0.4570 -1.0224
  342TIP3   OH222516   4.982   3.262  14.703 -0.2933 -0.1199 -0.7556
  342TIP3    H122517   4.922   3.188  14.695  0.3096 -0.5172 -1.8172
  342TIP3    H222518   4.976   3.307  14.619  0.6790 -0.0063 -0.7768
  343TIP3   OH222519   0.901   1.046   5.387  0.3969  0.3740 -0.1893
  343TIP3    H122520   0.913   1.117   5.451 -0.6706  0.6378 -0.2757
  343TIP3    H222521   0.845   0.983   5.432  2.9990 -1.4853  0.7073
  344TIP3   OH222522   0.662   2.206   0.045  0.6333  0.1358  0.6133
  344TIP3    H122523   0.694   2.275   0.102 -2.4956  1.4059  1.0657
  344TIP3    H222524   0.647   2.249  -0.039 -1.7017  0.2290  1.0034
  345TIP3   OH222525   1.942   2.038  15.453  0.1045 -0.6338 -0.2681
  345TIP3    H122526   2.015   1.995  15.408  0.6058 -0.2865  0.1992
  345TIP3    H222527   1.865   2.012  15.403  0.3497 -2.2858  0.1225
  346TIP3   OH222528   6.626   3.735   6.315  0.3124 -0.0578  0.3905
  346TIP3    H122529   6.610   3.648   6.279  1.0063  0.5408 -1.5362
  346TIP3    H222530   6.712   3.760   6.281  0.4810  1.0654  1.5615
  347TIP3   OH222531   2.732   0.096   0.340 -0.1777  0.2035 -0.1651
  347TIP3    H122532   2.686   0.160   0.394 -2.9973 -0.7790 -1.2085
  347TIP3    H222533   2.706   0.011   0.376  1.2827 -0.4183 -0.5118
  348TIP3   OH222534   1.842   5.006   5.865 -0.6848  0.2958 -0.0941
  348TIP3    H122535   1.756   4.966   5.850 -0.4110 -0.6444  0.6755
  348TIP3    H222536   1.845   5.082   5.808 -1.0062 -1.1386 -2.1131
  349TIP3   OH222537   6.732   0.907   0.537 -0.3722 -0.5674 -0.3312
  349TIP3    H122538   6.735   0.873   0.447  0.3353 -0.7691 -0.2401
  349TIP3    H222539   6.773   0.838   0.589  0.4023  0.1083 -0.0373
  350TIP3   OH222540   2.402   0.650   1.740 -0.1804 -0.2238  0.3639
  350TIP3    H122541   2.354   0.692   1.811 -0.1379 -0.2712  0.4210
  350TIP3    H222542   2.418   0.720   1.677  1.2431  0.2200  1.1614
  351TIP3   OH222543   5.766   6.407   4.802 -0.0204  0.5690  0.0547
  351TIP3    H122544   5.796   6.454   4.880  1.3736 -0.1947 -0.0015
  351TIP3    H222545   5.840   6.409   4.743  0.3967 -2.3690  0.3633
  352TIP3   OH222546   1.246   2.659   1.284 -0.2581  0.5440  0.0015
  352TIP3    H122547   1.237   2.568   1.315 -2.7040  1.1760  1.4041
  352TIP3    H222548   1.180   2.669   1.217 -0.2504  1.3864  0.1045
  353TIP3   OH222549   5.101   6.307   6.359  0.0891 -0.0352 -0.5312
  353TIP3    H122550   5.119   6.301   6.453  0.5155  1.3712 -0.5099
  353TIP3    H222551   5.028   6.246   6.345 -0.9828  0.8166  0.9899
  354TIP3   OH222552   1.115   3.289   5.611  0.0039  0.2205  0.0330
  354TIP3    H122553   1.073   3.371   5.585 -0.6751  1.6865  4.7601
  354TIP3    H222554   1.194   3.284   5.557 -0.9389  2.9218 -1.7833
  355TIP3   OH222555   5.185   3.795  11.284  0.1885 -0.2218 -0.0179
  355TIP3    H122556   5.207   3.726  11.348  0.3523  2.5866  3.2799
  355TIP3    H222557   5.270   3.824  11.252  0.1273 -1.3570 -1.2893
  356TIP3   OH222558   5.092   6.803   1.564 -0.2289 -0.0342 -0.0599
  356TIP3    H122559   5.098   6.729   1.505  0.9432  0.8883 -1.1446
  356TIP3    H222560   5.034   6.865   1.519 -0.6908 -0.0070  0.5495
  357TIP3   OH222561   3.871   2.768  16.702 -0.3136  0.5146  0.4139
  357TIP3    H122562   3.880   2.756  16.607 -0.5527  0.0920  0.4385
  357TIP3    H222563   3.950   2.815  16.728  0.0307  0.1348  0.0860
  358TIP3   OH222564   2.985   5.636  14.680  0.6798  0.4485  0.8067
  358TIP3    H122565   3.057   5.583  14.715  1.4524  2.7974  3.0704
  358TIP3    H222566   3.022   5.679  14.603 -0.1363 -2.5153 -1.4420
  359TIP3   OH222567   5.577   1.401   6.181  0.0502 -0.2427  0.2140
  359TIP3    H122568   5.518   1.471   6.208 -3.3506 -2.2560 -1.3281
  359TIP3    H222569   5.658   1.446   6.156 -1.2471  2.8651  1.1563
  360TIP3   OH222570   1.635   0.653   0.606 -0.5290  0.0011  0.4626
  360TIP3    H122571   1.663   0.562   0.598 -0.3568  0.1429 -0.8938
  360TIP3    H222572   1.657   0.692   0.521  0.3097  1.5623  1.3462
  361TIP3   OH222573   1.488   6.673   2.187 -0.2707 -0.2196  0.2008
  361TIP3    H122574   1.412   6.616   2.176 -1.8290  1.7339  0.2076
  361TIP3    H222575   1.508   6.702   2.098  0.3324 -0.5253  0.2318
  362TIP3   OH222576   4.105   1.686  10.787 -0.5999 -0.1847 -0.2008
  362TIP3    H122577   4.139   1.614  10.733 -1.0841 -0.0932 -0.6395
  362TIP3    H222578   4.169   1.756  10.777  0.1916 -0.7501  0.7113
  363TIP3   OH222579   4.289   2.409   1.854  0.2401  0.0012 -0.0412
  363TIP3    H122580   4.240   2.418   1.772  1.0797  0.5332 -0.5054
  363TIP3    H222581   4.298   2.498   1.887  1.6239  0.0343 -0.4275
  364TIP3   OH222582   4.907   4.728   4.239 -0.1821 -0.1417  0.3285
  364TIP3    H122583   4.899   4.647   4.287 -0.1252 -0.7084 -0.5914
  364TIP3    H222584   4.968   4.708   4.168 -0.9993  0.3932 -0.5505
  365TIP3   OH222585   2.598   2.801  11.610  0.4035  0.2807  0.0296
  365TIP3    H122586   2.633   2.806  11.699 -1.3500 -2.1757  0.9808
  365TIP3    H222587   2.537   2.874  11.604  1.9730  1.6654  0.0555
  366TIP3   OH222588   0.333   4.514  13.055  0.2453 -0.0775 -0.1546
  366TIP3    H122589   0.269   4.448  13.027 -0.3490 -0.9631  2.8760
  366TIP3    H222590   0.300   4.543  13.140  1.9346  2.2460 -0.2135
  367TIP3   OH222591   4.296   5.361  15.030 -0.4100 -0.0854 -0.1451
  367TIP3    H122592   4.222   5.393  14.978  0.4479  1.3731 -0.5225
  367TIP3    H222593   4.369   5.418  15.006  0.1886  0.2232  2.1814
  368TIP3   OH222594   0.918   3.356   3.541  0.0067  0.1074  0.3375
  368TIP3    H122595   0.856   3.285   3.525 -2.5557  1.6995  2.3767
  368TIP3    H222596   0.932   3.395   3.455  0.7782 -2.2413 -0.6843
  369TIP3   OH222597   2.752   6.645  16.587 -0.5484 -0.5487  0.8122
  369TIP3    H122598   2.822   6.686  16.537 -1.2340 -0.2071  0.0950
  369TIP3    H222599   2.720   6.714  16.645 -1.3117 -0.2156  0.0228
  370TIP3   OH222600   5.913   3.918  16.387 -0.6242 -0.1282  0.1720
  370TIP3    H122601   5.881   3.839  16.343  1.6529 -1.6777  1.1035
  370TIP3    H222602   5.916   3.893  16.479  0.4157  0.9435  0.4415
  371TIP3   OH222603   5.711   5.862   5.571 -0.3087  0.1301 -0.3443
  371TIP3    H122604   5.795   5.860   5.617 -1.1266  2.3611  1.4688
  371TIP3    H222605   5.667   5.782   5.598 -0.5271  1.1019  2.4807
  372TIP3   OH222606   0.726   1.403   1.413  0.3267  0.5905  0.7137
  372TIP3    H122607   0.814   1.371   1.434  1.2630  0.6432 -2.4769
  372TIP3    H222608   0.740   1.495   1.388 -0.3691  0.2800 -0.9611
  373TIP3   OH222609   1.106   4.514   2.098 -0.0681  0.0817 -0.2907
  373TIP3    H122610   1.012   4.509   2.078 -0.2600 -0.2251  0.6358
  373TIP3    H222611   1.109   4.531   2.192  0.8093 -0.4728 -0.2083
  374TIP3   OH222612   2.284   5.804  11.798  0.0265 -0.4541 -0.2206
  374TIP3    H122613   2.336   5.813  11.718 -0.1653 -0.7937 -0.3853
  374TIP3    H222614   2.209   5.750  11.772 -0.4591  0.1141 -0.0062
  375TIP3   OH222615   3.428   5.839   0.736  0.2912 -0.2547 -0.1847
  375TIP3    H122616   3.377   5.820   0.658 -0.9032  0.8101  0.2957
  375TIP3    H222617   3.514   5.864   0.703  0.0383 -0.5850 -1.1072
  376TIP3   OH222618   3.059   4.862   4.378  0.3723 -0.8115 -0.7416
  376TIP3    H122619   3.069   4.807   4.300  0.1252  0.4728 -1.7040
  376TIP3    H222620   2.981   4.914   4.361  0.2410 -0.5914  0.4341
  377TIP3   OH222621   1.748   0.758  14.669  0.3705 -0.3533 -0.4113
  377TIP3    H122622   1.772   0.709  14.747 -0.6019  2.0572  1.5124
  377TIP3    H222623   1.656   0.736  14.654  0.1387  0.2717  0.0317
  378TIP3   OH222624   0.141   5.349  13.636 -0.1045  0.2782 -0.1157
  378TIP3    H122625   0.169   5.391  13.717  1.7238  0.7463 -0.9318
  378TIP3    H222626   0.088   5.274  13.664  2.7755 -1.2508  1.6589
  379TIP3   OH222627   4.393   2.042  13.089 -0.3167  0.0535  0.6591
  379TIP3    H122628   4.486   2.045  13.068 -0.8011  2.6037 -1.6679
  379TIP3    H222629   4.352   2.098  13.024 -3.4475 -0.5051  1.9788
  380TIP3   OH222630   5.281   5.994  11.969 -0.2675 -0.0433  0.0510
  380TIP3    H122631   5.206   5.939  11.948 -0.3314  0.1486 -0.2355
  380TIP3    H222632   5.305   6.034  11.885 -0.3062  0.4670  0.2807
  381TIP3   OH222633   2.228   5.180   2.221 -0.0168  0.5905 -0.0921
  381TIP3    H122634   2.213   5.121   2.295 -0.4699  0.2030 -0.4863
  381TIP3    H222635   2.144   5.184   2.175  0.5724 -0.1698 -1.2993
  382TIP3   OH222636   3.859   3.262  17.148 -0.1860  0.2097 -0.7159
  382TIP3    H122637   3.947   3.225  17.139  0.5156  1.1516  1.5746
  382TIP3    H222638   3.831   3.279  17.058  2.9300  2.0399 -1.4880
  383TIP3   OH222639   2.853   0.342   2.220  0.0919  0.6098 -0.1710
  383TIP3    H122640   2.831   0.435   2.229 -0.8791  0.2848  1.2000
  383TIP3    H222641   2.770   0.297   2.234  0.5122 -0.4645 -1.0290
  384TIP3   OH222642   1.656   4.095  15.628 -0.4568 -0.4022 -0.1201
  384TIP3    H122643   1.736   4.061  15.667  0.0162  1.7075  0.8624
  384TIP3    H222644   1.587   4.070  15.691  0.2880  2.9076  2.2810
  385TIP3   OH222645   3.904   1.133   1.545 -0.3569 -0.0328 -0.0675
  385TIP3    H122646   3.899   1.079   1.467 -0.5717 -0.3787  0.1804
  385TIP3    H222647   3.827   1.189   1.541 -2.4788 -2.5721  1.7160
  386TIP3   OH222648   5.882   0.137  11.043 -0.8499  0.0928  0.4144
  386TIP3    H122649   5.924   0.082  11.109 -2.3674 -0.4617  0.9582
  386TIP3    H222650   5.917   0.106  10.960 -2.4434 -2.5024  0.5988
  387TIP3   OH222651   6.529   4.232  13.483 -0.0079 -0.0442 -0.3046
  387TIP3    H122652   6.543   4.268  13.395  0.6186 -0.9890 -0.6038
  387TIP3    H222653   6.562   4.301  13.542 -0.3275  0.5448 -0.8007
  388TIP3   OH222654   3.296   3.479  17.303  0.1386 -0.0961 -0.7165
  388TIP3    H122655   3.366   3.524  17.350  0.2502 -0.7518 -0.2383
  388TIP3    H222656   3.222   3.479  17.364  0.6679 -2.0487  0.0086
  389TIP3   OH222657   4.016   1.124   0.225  0.4622  0.0432  0.1408
  389TIP3    H122658   4.066   1.192   0.180 -0.4054  0.3257 -0.4344
  389TIP3    H222659   3.963   1.172   0.289  1.0801 -0.2768  0.9143
  390TIP3   OH222660   3.518   5.089  16.932  0.0866 -0.0386  0.0138
  390TIP3    H122661   3.560   5.005  16.915 -1.2995 -0.9596  0.9571
  390TIP3    H222662   3.436   5.067  16.976 -0.3338  1.8085  0.2490
  391TIP3   OH222663   2.319   0.208  13.018  0.0260 -0.2484  0.2159
  391TIP3    H122664   2.382   0.188  12.949 -0.0932  1.0862 -0.3101
  391TIP3    H222665   2.252   0.140  13.010  1.1270 -1.3934  0.4658
  392TIP3   OH222666   5.539   0.070   0.959  0.3679  0.6361  0.2987
  392TIP3    H122667   5.536   0.061   0.864  0.0595 -1.0263  0.4331
  392TIP3    H222668   5.467   0.130   0.979  0.4212  0.9837 -0.5186
  393TIP3   OH222669   6.065   3.119   4.325 -0.7487  0.0346 -0.2831
  393TIP3    H122670   5.973   3.134   4.303 -0.5293  1.3403 -0.4212
  393TIP3    H222671   6.114   3.154   4.250 -0.1232 -0.1188  0.0411
  394TIP3   OH222672   0.510   0.704  11.661 -0.3723 -0.5075  0.1676
  394TIP3    H122673   0.559   0.626  11.633  0.4776 -0.2478  0.8797
  394TIP3    H222674   0.551   0.729  11.744 -1.0355  0.3438  0.2491
  395TIP3   OH222675   6.326   6.785  11.041  0.0604  0.0656 -0.2204
  395TIP3    H122676   6.260   6.799  10.973 -1.7808  0.8877  1.6158
  395TIP3    H222677   6.317   6.693  11.066  1.3915 -0.4969 -1.6557
  396TIP3   OH222678   3.313   0.079   2.853  0.1401 -0.4734  0.2534
  396TIP3    H122679   3.287   0.107   2.765  0.5410  2.4094  0.9664
  396TIP3    H222680   3.407   0.061   2.846  1.1468  3.5605  0.7534
  397TIP3   OH222681   3.875   0.251   3.405 -0.0029 -0.3163  0.0556
  397TIP3    H122682   3.938   0.179   3.398 -0.2726 -0.4858 -0.6696
  397TIP3    H222683   3.905   0.315   3.341  0.4815  0.4196  0.9937
  398TIP3   OH222684   5.074   6.780   6.243  0.1947  0.7292  0.0754
  398TIP3    H122685   5.168   6.763   6.252 -0.1079 -0.0348  2.1342
  398TIP3    H222686   5.040   6.780   6.332 -1.8501  0.5780 -0.6468
  399TIP3   OH222687   2.393   0.945  13.764  0.3362  0.1500  0.2480
  399TIP3    H122688   2.434   1.024  13.798  0.4777  0.3714 -0.4198
  399TIP3    H222689   2.315   0.977  13.718  0.8564  0.0047 -0.7727
  400TIP3   OH222690   6.339   6.389  16.778  0.3619  0.7671 -0.3458
  400TIP3    H122691   6.396   6.430  16.843  0.5081 -1.3931  1.0125
  400TIP3    H222692   6.250   6.404  16.811  0.4718 -1.1941  1.0131
  401TIP3   OH222693   2.324   0.036   5.260 -0.0266  0.0597 -0.4822
  401TIP3    H122694   2.327   0.104   5.193  1.2720  1.2137  0.6623
  401TIP3    H222695   2.251  -0.020   5.235  0.6048  0.2365 -3.0218
  402TIP3   OH222696   0.834   5.394  14.652 -0.6588  0.5384  0.6962
  402TIP3    H122697   0.829   5.484  14.682 -1.2096  0.8637 -0.3141
  402TIP3    H222698   0.900   5.396  14.582 -2.9051  0.8727 -1.5796
  403TIP3   OH222699   6.593   5.685  14.729  0.1645  0.2858 -0.6861
  403TIP3    H122700   6.636   5.750  14.785 -0.3328 -0.6799  0.8807
  403TIP3    H222701   6.581   5.730  14.646  0.5041  1.9496  0.1153
  404TIP3   OH222702   0.224   1.932  16.009  0.7989  0.3629 -0.5433
  404TIP3    H122703   0.156   1.984  15.967 -0.1508 -0.8492 -0.5714
  404TIP3    H222704   0.184   1.900  16.090  1.3910 -0.2134 -0.4701
  405TIP3   OH222705   6.377   3.218   0.039 -0.3423  0.0819  0.5446
  405TIP3    H122706   6.368   3.141   0.096 -1.4851  1.0169  1.6697
  405TIP3    H222707   6.437   3.189  -0.030 -0.2379 -1.6142  1.2919
  406TIP3   OH222708   3.315   2.789   0.356 -0.1391  0.3370  0.2837
  406TIP3    H122709   3.266   2.708   0.342 -0.3713  0.1964  1.7555
  406TIP3    H222710   3.300   2.811   0.447 -1.1430  2.7708 -0.3834
  407TIP3   OH222711   2.831   1.544  16.554 -0.1995  0.0697 -0.1065
  407TIP3    H122712   2.774   1.620  16.561  0.9836  0.9084  0.8699
  407TIP3    H222713   2.856   1.523  16.644  1.7161  0.2929 -0.5381
  408TIP3   OH222714   0.518   5.240   0.823  0.0764 -0.0395  0.6578
  408TIP3    H122715   0.577   5.168   0.799 -0.8879 -0.8842  0.7412
  408TIP3    H222716   0.564   5.319   0.795  0.8959 -0.7272  0.0038
  409TIP3   OH222717   2.270   4.394   1.815 -0.3265  0.2281 -0.4075
  409TIP3    H122718   2.259   4.345   1.734  0.5203  0.5653 -0.7378
  409TIP3    H222719   2.253   4.485   1.790 -2.2976  0.0996  0.2856
  410TIP3   OH222720   3.855   1.193   3.569  0.3077 -0.6344  0.4904
  410TIP3    H122721   3.804   1.113   3.559  2.3932 -2.1748  1.4241
  410TIP3    H222722   3.840   1.220   3.660  0.0159 -0.2099  0.3252
  411TIP3   OH222723   5.967   0.540  15.642 -0.5722  0.0411 -0.5401
  411TIP3    H122724   5.966   0.635  15.630 -0.5353  0.1869  0.5059
  411TIP3    H222725   5.974   0.528  15.737  1.1689 -1.0022 -0.7637
  412TIP3   OH222726   1.729   6.728  16.135  0.5464 -0.2713  0.1824
  412TIP3    H122727   1.769   6.718  16.222  1.3808  0.8435 -0.0515
  412TIP3    H222728   1.645   6.683  16.142 -0.8238  2.3141  2.5404
  413TIP3   OH222729   2.811   4.402  11.976 -0.2714 -0.5563 -0.2631
  413TIP3    H122730   2.840   4.475  12.029  0.3324 -1.4942  0.7352
  413TIP3    H222731   2.716   4.405  11.980 -0.2441 -0.0481  0.0591
  414TIP3   OH222732   2.982   6.651   1.521 -0.1783  0.0021  0.5413
  414TIP3    H122733   2.912   6.629   1.459  0.5092  0.7077 -0.5004
  414TIP3    H222734   2.935   6.679   1.600 -1.0964  0.5824 -0.1824
  415TIP3   OH222735   1.095   4.197  14.985 -0.5323  0.2679  0.1563
  415TIP3    H122736   1.128   4.171  14.898 -0.4423  1.7586 -0.2799
  415TIP3    H222737   1.017   4.249  14.966 -1.0707 -0.2074  1.0309
  416TIP3   OH222738   4.176   1.357  16.541 -0.6005  0.0634  0.4667
  416TIP3    H122739   4.238   1.336  16.471 -0.8033  0.4421  0.1648
  416TIP3    H222740   4.223   1.419  16.597 -0.8447  0.6731  0.0067
  417TIP3   OH222741   1.383   2.011   5.315 -0.4625 -0.1891 -0.1321
  417TIP3    H122742   1.295   2.030   5.283 -1.2457 -0.8345  1.5204
  417TIP3    H222743   1.387   2.054   5.401  0.7274 -0.3962 -0.0730
  418TIP3   OH222744   3.646   2.724  14.880  0.5292 -0.0981 -0.7873
  418TIP3    H122745   3.741   2.730  14.865  1.0004  1.3795  2.0045
  418TIP3    H222746   3.614   2.813  14.862  0.0671 -0.0417  0.2359
  419TIP3   OH222747   3.453   0.564  16.133 -0.3214 -0.0580  0.2700
  419TIP3    H122748   3.430   0.533  16.220  1.1869  0.4862  0.8911
  419TIP3    H222749   3.487   0.487  16.088  2.2684  0.3291  1.4032
  420TIP3   OH222750   1.047   1.701   2.496 -0.0174 -0.2596 -0.3046
  420TIP3    H122751   1.124   1.705   2.440  1.6931 -0.2165  1.9193
  420TIP3    H222752   1.002   1.784   2.481  2.0588  1.0954  0.5780
  421TIP3   OH222753   3.077   0.047   3.486  0.2244  0.2802  0.0519
  421TIP3    H122754   3.121  -0.020   3.538 -0.6167 -0.9244 -0.7206
  421TIP3    H222755   3.139   0.068   3.416  0.2726 -0.1421 -0.0369
  422TIP3   OH222756   3.898   2.155  13.501  0.1898  0.1707  0.6988
  422TIP3    H122757   3.896   2.097  13.426 -2.2816  0.4906  0.4258
  422TIP3    H222758   3.942   2.234  13.469 -0.0630 -0.0202 -0.1401
  423TIP3   OH222759   5.849   1.214   0.815 -0.0296  0.2057 -0.6536
  423TIP3    H122760   5.933   1.185   0.851 -1.4425 -0.7514  2.1581
  423TIP3    H222761   5.824   1.288   0.870 -0.4739  1.2876 -2.2695
  424TIP3   OH222762   0.421   2.459  16.561  0.1971  0.0707 -0.8133
  424TIP3    H122763   0.430   2.416  16.647 -2.6595 -0.5652 -0.7568
  424TIP3    H222764   0.508   2.496  16.545  1.2667 -1.0908  1.6415
  425TIP3   OH222765   5.484   4.156  13.763  0.1353 -0.2110  0.4152
  425TIP3    H122766   5.485   4.161  13.858 -0.4535  1.7489  0.3724
  425TIP3    H222767   5.397   4.124  13.741 -0.0474  0.1919  0.5364
  426TIP3   OH222768   2.250   6.812   5.512 -0.0599 -0.3390  0.2575
  426TIP3    H122769   2.318   6.818   5.445 -0.5059 -0.6284 -0.2240
  426TIP3    H222770   2.171   6.787   5.465 -0.4181 -0.3899  0.8687
  427TIP3   OH222771   2.916   3.249   1.073 -0.0504 -0.6543 -0.4501
  427TIP3    H122772   2.909   3.182   1.005 -1.7459 -1.5614  0.5419
  427TIP3    H222773   2.965   3.206   1.143  0.2643 -0.2950 -0.4491
  428TIP3   OH222774   5.422   3.514   0.277  0.0657 -0.2181 -0.2969
  428TIP3    H122775   5.479   3.537   0.350 -1.2118  0.1543  0.6307
  428TIP3    H222776   5.472   3.536   0.199  1.0197  0.4957  0.4904
  429TIP3   OH222777   0.673   0.771  13.062 -0.5881 -0.7614  0.2391
  429TIP3    H122778   0.578   0.786  13.065 -0.4604  0.5360 -1.0706
  429TIP3    H222779   0.683   0.684  13.024 -1.2500 -0.9767  0.5426
  430TIP3   OH222780   5.940   4.431   2.685  0.1301 -0.2595  0.1310
  430TIP3    H122781   5.945   4.358   2.624  0.5142  1.0084 -1.4263
  430TIP3    H222782   5.937   4.509   2.629 -0.8176  0.9005  1.7234
  431TIP3   OH222783   3.593   2.951   3.101  0.0630  0.4325  0.4450
  431TIP3    H122784   3.581   3.042   3.074  0.1385  0.9643  2.0918
  431TIP3    H222785   3.572   2.951   3.194  0.5203 -1.1496  0.5701
  432TIP3   OH222786   4.933   2.589  10.899  0.0538  0.1759 -0.1307
  432TIP3    H122787   4.843   2.609  10.926 -0.6741 -0.5339 -1.8585
  432TIP3    H222788   4.958   2.662  10.842 -0.0573 -0.3954 -0.9378
  433TIP3   OH222789   6.397   4.314  15.574  0.4020  0.6568  0.1260
  433TIP3    H122790   6.368   4.230  15.608 -0.1291  0.9649  0.4604
  433TIP3    H222791   6.486   4.324  15.607 -0.3414  1.2926  2.1572
  434TIP3   OH222792   6.655   1.189   2.553 -0.6762  0.4140  0.6339
  434TIP3    H122793   6.649   1.136   2.633  0.2011 -0.8229 -0.0821
  434TIP3    H222794   6.745   1.223   2.554 -0.8954  0.9967  0.5389
  435TIP3   OH222795   1.484   6.390  11.472 -0.5678  0.0697  0.4458
  435TIP3    H122796   1.537   6.419  11.547 -0.2466  1.5809 -0.3144
  435TIP3    H222797   1.548   6.367  11.405 -0.8123  1.7832 -0.4348
  436TIP3   OH222798   3.567   2.880   0.947 -0.6260  0.4782  0.0325
  436TIP3    H122799   3.579   2.821   0.873 -1.4257  1.4937 -0.9302
  436TIP3    H222800   3.485   2.851   0.988 -1.4571  1.4017 -0.9312
  437TIP3   OH222801   1.863   6.139   5.063  0.5652  0.6947  0.2596
  437TIP3    H122802   1.798   6.081   5.103  0.6045  0.8281  0.5203
  437TIP3    H222803   1.943   6.086   5.059  0.3301  0.3871 -0.4555
  438TIP3   OH222804   6.177   0.239   1.689 -0.3815 -0.1217 -0.8592
  438TIP3    H122805   6.234   0.269   1.760  1.2829  2.0571 -2.9745
  438TIP3    H222806   6.224   0.167   1.648 -0.6210 -0.3507 -0.7410
  439TIP3   OH222807   2.909   1.944  17.267 -0.4005  0.1906 -0.1879
  439TIP3    H122808   2.947   1.896  17.341  0.7332 -0.0715 -0.9131
  439TIP3    H222809   2.926   2.036  17.288  0.5783  0.0801 -0.4516
  440TIP3   OH222810   3.845   5.319   2.247 -0.4782  0.0351  0.5504
  440TIP3    H122811   3.784   5.246   2.235 -0.7182  0.3670 -0.2984
  440TIP3    H222812   3.790   5.390   2.282 -0.9426  0.8190 -1.5956
  441TIP3   OH222813   5.617   1.978   0.125 -0.0769 -0.1671  0.1258
  441TIP3    H122814   5.584   1.888   0.125 -1.4373  0.2990 -0.0995
  441TIP3    H222815   5.712   1.970   0.125 -0.1702 -1.6058 -1.1248
  442TIP3   OH222816   2.630   1.605   1.603 -0.6938 -0.0051 -0.1409
  442TIP3    H122817   2.671   1.532   1.649  2.2649 -0.6262 -3.3274
  442TIP3    H222818   2.609   1.668   1.671 -0.1432 -2.3575  2.3670
  443TIP3   OH222819   3.499   4.224   1.461  0.1132 -0.1934  0.1886
  443TIP3    H122820   3.534   4.208   1.548  1.3596 -0.2894 -0.3187
  443TIP3    H222821   3.486   4.319   1.457  0.6031 -0.1202  0.2797
  444TIP3   OH222822   5.175   4.183  14.094 -0.2867  0.7466 -0.6095
  444TIP3    H122823   5.147   4.201  14.184 -0.8331 -0.2062 -0.5778
  444TIP3    H222824   5.094   4.172  14.045  0.0104  0.0981 -0.9688
  445TIP3   OH222825   5.014   4.182  12.360 -0.6052 -0.4152  0.4154
  445TIP3    H122826   4.937   4.204  12.413 -0.7551 -0.5201  0.2417
  445TIP3    H222827   4.978   4.143  12.281 -0.4447  1.1200 -0.4463
  446TIP3   OH222828   6.228   0.998  12.708 -0.5608  0.3776 -0.2168
  446TIP3    H122829   6.203   0.971  12.796  3.0230  2.2756  1.5900
  446TIP3    H222830   6.313   0.956  12.694  0.6750  3.0366 -1.1947
  447TIP3   OH222831   6.777   5.618  17.036 -0.1129  0.2869  0.0930
  447TIP3    H122832   6.779   5.528  17.003  0.1390  0.4512 -0.3398
  447TIP3    H222833   6.839   5.618  17.109 -0.4292  0.0077  0.3682
  448TIP3   OH222834   0.029   2.546  15.691  0.2204  0.5864  0.0385
  448TIP3    H122835  -0.052   2.512  15.652  0.3669  1.9098 -1.5371
  448TIP3    H222836   0.056   2.616  15.632  2.3771  0.3767  0.6947
  449TIP3   OH222837   1.793   6.453   2.001 -0.2182 -0.1691  0.2624
  449TIP3    H122838   1.763   6.454   1.910 -0.6773 -0.3833  0.4074
  449TIP3    H222839   1.829   6.366   2.014  0.6130  0.1415  0.0431
  450TIP3   OH222840   5.662   4.689   5.058  0.2451  0.0361 -0.0886
  450TIP3    H122841   5.596   4.652   4.998 -1.0815  1.9069  0.1347
  450TIP3    H222842   5.652   4.783   5.050  1.9329  0.3569  1.0694
  451TIP3   OH222843   0.833   2.188  15.422  0.1644  0.0207 -0.0287
  451TIP3    H122844   0.749   2.230  15.407 -0.8129 -0.8744  2.4375
  451TIP3    H222845   0.885   2.209  15.344 -1.8349  1.7723 -0.9794
  452TIP3   OH222846   4.619   3.879  13.313 -0.1555  0.2438 -0.5970
  452TIP3    H122847   4.692   3.841  13.264 -0.1814  0.4218 -0.7752
  452TIP3    H222848   4.642   3.971  13.324  0.9644 -0.2520  1.7805
  453TIP3   OH222849   5.793   4.549   0.661 -0.5865  0.2089 -0.1991
  453TIP3    H122850   5.886   4.532   0.646 -0.5323 -2.4447  2.3380
  453TIP3    H222851   5.784   4.558   0.756 -2.9270  0.5382 -0.3718
  454TIP3   OH222852   3.167   2.898  12.938 -0.1474  0.4588 -0.3924
  454TIP3    H122853   3.117   2.980  12.939  0.3052  0.7413 -0.8736
  454TIP3    H222854   3.251   2.921  12.900 -1.1589 -0.8649 -3.8375
  455TIP3   OH222855   4.429   1.767  14.079  0.7840  0.0104 -0.5049
  455TIP3    H122856   4.437   1.673  14.061 -0.8036 -0.9731  3.0097
  455TIP3    H222857   4.515   1.792  14.112  1.3776 -0.0231 -1.9634
  456TIP3   OH222858   5.027   2.339  16.430 -0.3291 -0.2056  0.3020
  456TIP3    H122859   4.948   2.292  16.456 -1.8826  2.7828  1.5629
  456TIP3    H222860   5.003   2.382  16.348 -0.3615  1.2634  1.0363
  457TIP3   OH222861   5.766   0.076   6.408  0.6814 -0.7808  0.1563
  457TIP3    H122862   5.740   0.139   6.475  1.1376  1.3453 -1.5657
  457TIP3    H222863   5.771   0.127   6.328 -0.4600 -3.3437 -1.6734
  458TIP3   OH222864   2.010   2.589   5.700 -0.3606  0.0088  0.5932
  458TIP3    H122865   1.929   2.613   5.656  0.3085  2.2873  0.4770
  458TIP3    H222866   1.994   2.606   5.793 -0.7207 -1.7017  0.8661
  459TIP3   OH222867   1.525   3.426   1.119 -0.0476  0.1669 -0.0825
  459TIP3    H122868   1.612   3.466   1.122 -0.1654  0.3791  2.2687
  459TIP3    H222869   1.469   3.492   1.078  0.0733  1.9334  2.3514
  460TIP3   OH222870   0.972   2.413  17.065  0.0699  0.6292  0.4154
  460TIP3    H122871   1.064   2.389  17.063 -0.1678 -0.6951 -3.6736
  460TIP3    H222872   0.926   2.331  17.086 -0.2505  0.9092  0.8353
  461TIP3   OH222873   0.203   0.941  11.958  0.3621  0.3113  0.1112
  461TIP3    H122874   0.142   0.877  11.920  0.4880 -0.4847  1.1960
  461TIP3    H222875   0.164   1.026  11.938 -0.9243 -0.1749  0.4418
  462TIP3   OH222876   4.706   3.979  12.888 -0.0526 -0.0399  0.4967
  462TIP3    H122877   4.770   3.982  12.817 -0.5168 -0.3824  0.0640
  462TIP3    H222878   4.747   4.029  12.959  1.8114 -2.3417  1.1433
  463TIP3   OH222879   1.554   5.633  15.839  0.2379  0.0029 -0.0551
  463TIP3    H122880   1.568   5.714  15.790 -0.0811  0.5421  0.7304
  463TIP3    H222881   1.640   5.608  15.871  0.3633 -0.0725 -0.4412
  464TIP3   OH222882   4.569   4.382  11.687  0.4061 -0.4771  0.1289
  464TIP3    H122883   4.655   4.420  11.669  0.5409 -1.3037 -1.0236
  464TIP3    H222884   4.574   4.293  11.654  0.4632 -2.0157  3.7517
  465TIP3   OH222885   1.303   3.478  14.643 -0.8502 -0.2177  0.2761
  465TIP3    H122886   1.372   3.539  14.670 -0.2051 -0.6036 -0.4520
  465TIP3    H222887   1.227   3.504  14.694 -0.3653  0.6854  0.5644
  466TIP3   OH222888   0.155   5.143  16.473  0.1911  0.1839  0.2992
  466TIP3    H122889   0.207   5.219  16.499 -0.0262  0.3004  0.3898
  466TIP3    H222890   0.077   5.147  16.527  0.6621 -0.6908  1.0632
  467TIP3   OH222891   5.929   3.990  14.371 -0.0641 -0.1893 -0.0546
  467TIP3    H122892   5.838   4.020  14.378  0.3568  0.9190  0.9281
  467TIP3    H222893   5.956   4.020  14.284 -1.6603 -3.6070 -1.9225
  468TIP3   OH222894   4.507   6.643   3.886  0.2183  0.2858  0.1071
  468TIP3    H122895   4.550   6.609   3.807 -1.2237  1.7635 -1.3902
  468TIP3    H222896   4.520   6.574   3.951  0.7175 -1.3798 -1.6568
  469TIP3   OH222897   6.549   5.729  16.960  0.2907 -0.2260  0.0011
  469TIP3    H122898   6.626   5.685  16.995 -0.2862 -1.3332 -0.0906
  469TIP3    H222899   6.498   5.755  17.037  0.3335 -0.2458  0.0356
  470TIP3   OH222900   6.381   6.393   5.730  0.1097 -0.0540 -0.2822
  470TIP3    H122901   6.306   6.425   5.781 -0.2981 -0.5265 -0.5782
  470TIP3    H222902   6.449   6.458   5.746 -0.6921  0.9596 -0.8466
  471TIP3   OH222903   1.390   1.387  13.264 -0.4503  0.4282 -0.0388
  471TIP3    H122904   1.427   1.348  13.184 -1.4193 -0.0715 -0.2554
  471TIP3    H222905   1.366   1.476  13.237  0.3022  0.6541  0.0211
  472TIP3   OH222906   2.233   3.158  14.584 -0.8277  0.6299 -0.0970
  472TIP3    H122907   2.212   3.091  14.649  2.2800  0.6162  1.0650
  472TIP3    H222908   2.166   3.225  14.596 -4.1799 -2.1267 -1.3888
  473TIP3   OH222909   0.103   2.287  15.519 -0.1965 -0.2538  0.1234
  473TIP3    H122910   0.117   2.353  15.451 -0.0538  1.6029  1.8585
  473TIP3    H222911   0.008   2.284  15.531 -0.1881 -0.2073  0.1999
  474TIP3   OH222912   3.879   5.459  17.186 -0.0230  0.2344 -0.6089
  474TIP3    H122913   3.822   5.477  17.260 -0.4898 -1.2309 -0.5707
  474TIP3    H222914   3.962   5.434  17.225  0.4894  1.7707 -0.6541
  475TIP3   OH222915   5.529   3.669  12.962 -0.1763  0.7515 -0.2211
  475TIP3    H122916   5.565   3.752  12.993  0.1304  0.2070  0.9307
  475TIP3    H222917   5.605   3.612  12.953 -0.6815 -0.5341  2.6230
  476TIP3   OH222918   6.406   3.693  15.604  0.3256  0.2099  0.2544
  476TIP3    H122919   6.419   3.717  15.512  2.7124  2.3858  1.0306
  476TIP3    H222920   6.465   3.619  15.618 -0.2258 -0.2830 -0.0160
  477TIP3   OH222921   4.304   0.513  14.333 -0.1681  0.5596  0.7899
  477TIP3    H122922   4.223   0.541  14.291  0.1957  0.0256 -0.2978
  477TIP3    H222923   4.370   0.573  14.300  0.4018 -0.7927 -0.6578
  478TIP3   OH222924   4.812   6.818   2.537  0.2374 -0.5263  0.0125
  478TIP3    H122925   4.773   6.890   2.586  2.4284  0.4200  0.4695
  478TIP3    H222926   4.740   6.756   2.524 -1.9749  2.0490 -1.1261
  479TIP3   OH222927   1.223   5.505  11.702 -0.2469  0.1438 -0.0694
  479TIP3    H122928   1.229   5.590  11.659 -0.0929  0.2334  0.1242
  479TIP3    H222929   1.311   5.467  11.693 -0.4793 -0.2615 -0.6899
  480TIP3   OH222930   3.654   2.615   6.347  0.4234  0.4429 -0.3729
  480TIP3    H122931   3.567   2.601   6.311 -1.3108  1.3332  3.0838
  480TIP3    H222932   3.659   2.709   6.364  1.6247  0.2550  0.4939
  481TIP3   OH222933   4.401   4.532  11.468  0.1892 -0.0711  0.1479
  481TIP3    H122934   4.353   4.500  11.544  2.7484  0.1273  1.9905
  481TIP3    H222935   4.436   4.454  11.427  0.7795 -0.0742  0.6314
  482TIP3   OH222936   6.153   5.631  14.098  0.7191 -0.0145 -0.6530
  482TIP3    H122937   6.074   5.584  14.069  0.7920  0.5861 -1.9094
  482TIP3    H222938   6.225   5.569  14.080  0.5901 -0.3788  0.0525
  483TIP3   OH222939   4.368   1.804   4.669  0.0562  0.8312 -0.7550
  483TIP3    H122940   4.384   1.860   4.746 -1.0505  0.2206 -0.0550
  483TIP3    H222941   4.273   1.804   4.659 -0.1077 -1.8056 -0.0084
  484TIP3   OH222942   3.671   1.884   4.285  0.6945  0.1905  0.5357
  484TIP3    H122943   3.684   1.791   4.270  0.1005  0.4169 -1.7303
  484TIP3    H222944   3.590   1.890   4.336 -0.0296 -0.5026 -0.5019
  485TIP3   OH222945   1.302   2.645   0.752 -0.4062 -0.9471  0.3153
  485TIP3    H122946   1.373   2.674   0.695 -1.6247  1.7273  0.0035
  485TIP3    H222947   1.228   2.632   0.692 -0.6717 -1.9458  0.8415
  486TIP3   OH222948   2.484   6.710  14.338 -0.4221 -0.2150  0.2135
  486TIP3    H122949   2.570   6.699  14.296 -0.0564 -0.1721  0.9312
  486TIP3    H222950   2.430   6.641  14.299  0.7052 -2.0268  1.7007
  487TIP3   OH222951   3.679   1.951  12.081  0.0946 -0.3387 -0.1894
  487TIP3    H122952   3.622   1.902  12.021 -0.0191 -0.2849 -0.1246
  487TIP3    H222953   3.648   2.041  12.076  0.6700 -0.1564 -0.7504
  488TIP3   OH222954   1.894   0.794  12.385  0.2801  0.1185  0.2544
  488TIP3    H122955   1.945   0.714  12.379  0.6798  0.3826  0.1141
  488TIP3    H222956   1.879   0.820  12.294 -2.1068 -1.2080  0.1807
  489TIP3   OH222957   1.534   2.692  12.445  0.1906  0.0750  0.0497
  489TIP3    H122958   1.586   2.736  12.512  0.2400  0.7231 -0.4061
  489TIP3    H222959   1.451   2.673  12.489 -0.1266  1.3338  0.0313
  490TIP3   OH222960   1.756   5.260   2.734 -0.2783  0.0321  0.2038
  490TIP3    H122961   1.829   5.235   2.677 -0.5226 -0.2667  0.0141
  490TIP3    H222962   1.683   5.271   2.673 -0.2155  1.0567  0.3052
  491TIP3   OH222963   5.865   4.663  13.000  0.0683 -0.6036 -0.0496
  491TIP3    H122964   5.880   4.608  13.077  0.7334 -0.6826 -0.2315
  491TIP3    H222965   5.792   4.621  12.954  1.2198 -1.9389 -0.7301
  492TIP3   OH222966   0.488   5.965   2.211  0.1371  0.2796 -0.2701
  492TIP3    H122967   0.524   6.050   2.234 -0.3204  0.6577 -0.9117
  492TIP3    H222968   0.483   5.917   2.293  1.1973  0.5622 -0.0253
  493TIP3   OH222969   4.596   2.810   2.132  0.7111  0.1313  0.1608
  493TIP3    H122970   4.539   2.733   2.125  0.3311  0.5488 -2.7248
  493TIP3    H222971   4.597   2.831   2.225 -2.6811 -0.8000  0.5321
  494TIP3   OH222972   4.967   2.932   6.618  0.3845 -0.6985  0.2762
  494TIP3    H122973   4.994   2.929   6.526 -1.4644  1.7379 -0.4651
  494TIP3    H222974   5.004   3.014   6.651 -1.6273  0.0967  0.6935
  495TIP3   OH222975   6.611   5.605   0.913  0.1985  0.2548  0.0307
  495TIP3    H122976   6.669   5.612   0.837 -0.4013  1.5258 -0.3204
  495TIP3    H222977   6.664   5.559   0.978  1.5183  1.1534 -0.3755
  496TIP3   OH222978   1.776   5.606   2.257 -0.4002 -0.1400  0.0800
  496TIP3    H122979   1.846   5.569   2.310 -0.5951  0.0628  0.4794
  496TIP3    H222980   1.821   5.658   2.190 -0.1785  1.4685  1.4083
  497TIP3   OH222981   0.115   2.300   3.907  0.0965 -0.2628  0.1238
  497TIP3    H122982   0.073   2.258   3.833  2.0466 -2.3782  0.0908
  497TIP3    H222983   0.063   2.379   3.924 -1.6675 -0.8746 -2.0649
  498TIP3   OH222984   5.977   2.659  16.444 -0.4214  0.7165 -0.5416
  498TIP3    H122985   6.070   2.680  16.455 -0.6380  0.9898  0.8757
  498TIP3    H222986   5.963   2.584  16.501 -1.6610  2.3730  1.4733
  499TIP3   OH222987   0.050   0.519   1.360 -0.1486  0.3743 -0.0061
  499TIP3    H122988   0.085   0.512   1.449 -0.6964  0.1594  0.2024
  499TIP3    H222989  -0.039   0.552   1.372 -0.7364 -0.9926 -0.3551
  500TIP3   OH222990   6.587   0.601  14.940  0.2465  0.3735 -0.3807
  500TIP3    H122991   6.610   0.676  14.885  0.6353  0.4976 -0.0558
  500TIP3    H222992   6.671   0.566  14.969  0.0879  2.0210  2.4381
  501TIP3   OH222993   4.982   1.439  14.842 -0.1970 -0.3977  0.3879
  501TIP3    H122994   4.935   1.417  14.761  1.6487 -0.1011 -0.8233
  501TIP3    H222995   4.913   1.457  14.905 -1.7344 -2.3030 -0.6236
  502TIP3   OH222996   0.638   2.195   4.365  0.3886  0.1267  0.1763
  502TIP3    H122997   0.626   2.177   4.458  0.5386  1.1367  0.4028
  502TIP3    H222998   0.729   2.224   4.357  0.6073 -0.6736 -0.4137
  503TIP3   OH222999   0.531   1.750   6.078  0.2756  0.4238  0.0233
  503TIP3    H123000   0.504   1.702   6.156  0.1504  1.9177  0.9433
  503TIP3    H223001   0.450   1.761   6.027 -0.1321  1.5008  0.8663
  504TIP3   OH223002   5.390   0.705  13.261  0.4345  0.6637 -0.1048
  504TIP3    H123003   5.322   0.704  13.328  0.5941 -0.0367  0.0524
  504TIP3    H223004   5.431   0.792  13.270  0.0600  0.8004  0.2978
  505TIP3   OH223005   2.216   4.934  11.047  0.9052  0.4836  0.5035
  505TIP3    H123006   2.306   4.910  11.068  1.5252  1.3802 -0.9943
  505TIP3    H223007   2.223   5.015  10.997 -0.3608 -1.3909 -3.1057
  506TIP3   OH223008   6.397   3.214  15.360 -0.0213  0.0346  0.4840
  506TIP3    H123009   6.492   3.212  15.352 -0.1244  0.6556 -1.2470
  506TIP3    H223010   6.378   3.158  15.436  1.6380 -1.0299  0.1564
  507TIP3   OH223011   4.913   6.549   3.787  0.0900 -0.4515  0.5520
  507TIP3    H123012   4.977   6.607   3.744  0.3310 -0.8715  0.3408
  507TIP3    H223013   4.911   6.578   3.878  0.4298 -0.3029  0.5115
  508TIP3   OH223014   1.758   5.563   5.783 -0.2310  0.0600  0.4696
  508TIP3    H123015   1.814   5.554   5.860  0.3343 -1.5632 -0.0851
  508TIP3    H223016   1.781   5.488   5.728 -1.8461  0.2208 -0.4858
  509TIP3   OH223017   4.330   1.878  13.599  0.6787  0.8775 -0.0955
  509TIP3    H123018   4.311   1.923  13.681 -1.1146 -0.2217  0.1581
  509TIP3    H223019   4.360   1.791  13.625 -1.0765  0.0901 -0.5531
  510TIP3   OH223020   0.796   5.442   3.820 -0.2884 -0.0306 -0.3441
  510TIP3    H123021   0.887   5.443   3.851  0.0331 -2.8396 -0.9933
  510TIP3    H223022   0.746   5.478   3.893  1.0492 -1.0900  1.1665
  511TIP3   OH223023   6.114   1.466  13.052 -0.2464 -0.1672 -0.3510
  511TIP3    H123024   6.099   1.542  12.994 -0.0862  0.1539  0.0223
  511TIP3    H223025   6.197   1.486  13.095 -0.3292 -0.4427 -0.0674
  512TIP3   OH223026   1.103   4.800   5.693  0.2100 -0.5230 -0.6472
  512TIP3    H123027   1.153   4.877   5.720 -0.0316 -0.7153  0.3697
  512TIP3    H223028   1.159   4.756   5.629 -0.4252  1.5100 -2.7786
  513TIP3   OH223029   3.790   0.539  15.802  0.9484  0.5607 -0.7863
  513TIP3    H123030   3.808   0.475  15.871 -1.5459  0.3412 -0.2485
  513TIP3    H223031   3.712   0.505  15.758  1.1022  1.9255 -2.1663
  514TIP3   OH223032   3.811   2.126  12.817  0.5243  0.6148 -0.4765
  514TIP3    H123033   3.806   2.068  12.893  1.5960 -0.3441 -1.0961
  514TIP3    H223034   3.868   2.197  12.845  1.8065 -0.2950 -0.6896
  515TIP3   OH223035   4.565   1.048   0.476  0.4801 -0.2325  0.3900
  515TIP3    H123036   4.483   1.082   0.439  0.9064  1.4443  0.9288
  515TIP3    H223037   4.557   0.953   0.467 -1.7171 -0.1430  0.8091
  516TIP3   OH223038   1.853   0.209   5.504  0.5934  0.4791  0.0932
  516TIP3    H123039   1.942   0.219   5.538 -0.0985  1.0721  1.8665
  516TIP3    H223040   1.844   0.278   5.438  1.3695  0.5598  0.0632
  517TIP3   OH223041   4.012   5.259  15.434 -0.2363 -0.0784 -0.0776
  517TIP3    H123042   4.106   5.278  15.441 -0.1282 -0.0711 -1.2723
  517TIP3    H223043   4.000   5.179  15.484  0.7678 -1.0736 -1.3269
  518TIP3   OH223044   1.242   1.584  14.774  0.2943  0.1814  0.3339
  518TIP3    H123045   1.165   1.596  14.719  0.1791  2.7204  0.9122
  518TIP3    H223046   1.285   1.669  14.774  2.8772 -1.0169  0.4416
  519TIP3   OH223047   0.882   6.060  16.485 -0.4160  0.0398 -0.2992
  519TIP3    H123048   0.937   5.982  16.486  0.3362  0.5510 -0.5835
  519TIP3    H223049   0.814   6.041  16.420 -0.2332 -0.3767 -0.3717
  520TIP3   OH223050   1.462   5.530  15.553  0.6335 -0.5229  0.1126
  520TIP3    H123051   1.391   5.594  15.550 -0.1841 -1.4378 -1.2826
  520TIP3    H223052   1.488   5.528  15.645 -0.1145  0.9272  0.3902
  521TIP3   OH223053   4.789   1.736   5.866  0.1117  0.4373  0.1910
  521TIP3    H123054   4.824   1.711   5.781  1.6593 -0.8364  1.1564
  521TIP3    H223055   4.784   1.832   5.862  0.0919  0.4009 -1.3336
  522TIP3   OH223056   4.346   5.193  17.129 -0.0734 -0.5366  0.2806
  522TIP3    H123057   4.392   5.156  17.205 -0.1995 -0.1496  0.5449
  522TIP3    H223058   4.392   5.274  17.110  3.0760 -2.7706 -3.0186
  523TIP3   OH223059   1.858   0.155   1.137 -0.2525 -0.1017  0.2518
  523TIP3    H123060   1.838   0.248   1.142  1.8018  0.4270 -0.4758
  523TIP3    H223061   1.842   0.122   1.226  1.9331  1.6229  1.3854
  524TIP3   OH223062   5.030   3.013  10.586  0.4867 -0.0994 -0.2057
  524TIP3    H123063   5.024   2.954  10.511  2.4984 -0.6757  0.0236
  524TIP3    H223064   5.074   2.961  10.654  1.5799  1.3872  0.2690
  525TIP3   OH223065   2.178   6.549  12.391  0.4742 -0.5293  0.1162
  525TIP3    H123066   2.271   6.527  12.395  0.9448  1.3299  1.6248
  525TIP3    H223067   2.175   6.631  12.342 -0.4634 -0.9451 -0.5397
  526TIP3   OH223068   5.479   2.283  12.303  0.4412 -0.0072 -0.0375
  526TIP3    H123069   5.528   2.292  12.222 -2.0057  0.7781 -1.5413
  526TIP3    H223070   5.393   2.321  12.283  0.0951  1.2679  3.2727
  527TIP3   OH223071   5.461   1.372  16.281  0.0519 -0.0814 -0.3737
  527TIP3    H123072   5.371   1.341  16.268 -0.4436  0.6045  1.0738
  527TIP3    H223073   5.453   1.467  16.280  1.2305  0.0607 -2.8733
  528TIP3   OH223074   0.621   0.587  15.294  0.8323 -0.4411  0.2277
  528TIP3    H123075   0.586   0.671  15.264  1.4716 -0.7662 -1.5211
  528TIP3    H223076   0.547   0.526  15.289  0.3724 -0.0183  1.4822
  529TIP3   OH223077   4.038   3.740   0.201 -0.0251  0.6274 -0.1597
  529TIP3    H123078   3.958   3.749   0.149  1.1450  1.1521 -1.9379
  529TIP3    H223079   4.100   3.802   0.163  2.2396 -1.8578 -0.8613
  530TIP3   OH223080   2.558   3.962  11.921  0.6865 -0.0353 -0.5935
  530TIP3    H123081   2.470   3.995  11.905  0.1136 -1.2704 -0.1001
  530TIP3    H223082   2.598   3.959  11.834 -0.2177 -0.7159 -1.0057
  531TIP3   OH223083   1.574   2.298   6.603 -0.2038 -0.1794  0.3283
  531TIP3    H123084   1.526   2.288   6.521 -0.7973 -0.3441  0.6873
  531TIP3    H223085   1.540   2.228   6.659  2.5489 -2.2591 -0.3637
  532TIP3   OH223086   1.080   5.881   0.396  0.5733 -0.0700 -0.2136
  532TIP3    H123087   1.114   5.805   0.444  0.1297  1.3902  2.5861
  532TIP3    H223088   1.001   5.848   0.354  0.3458 -1.1686  0.9991
  533TIP3   OH223089   4.053   4.080  14.037  0.0522 -0.4235 -0.4909
  533TIP3    H123090   4.103   4.072  13.956  0.9897 -2.8742  0.2375
  533TIP3    H223091   4.084   4.008  14.091 -1.8598  0.0447  1.3568
  534TIP3   OH223092   1.049   3.219   4.035  0.1147 -0.3595 -0.0323
  534TIP3    H123093   0.960   3.225   4.069 -0.2710  0.2387 -1.1266
  534TIP3    H223094   1.054   3.286   3.967  1.2829 -0.6410 -0.2494
  535TIP3   OH223095   2.841   3.623  13.028 -0.8882 -0.2081 -0.6090
  535TIP3    H123096   2.875   3.591  12.945 -0.4269 -0.5047 -0.3119
  535TIP3    H223097   2.776   3.689  13.004 -4.1654 -3.4351 -1.3754
  536TIP3   OH223098   4.201   1.182  10.983 -0.3489  0.3391  0.1806
  536TIP3    H123099   4.208   1.163  11.076 -1.3163  0.1660  0.2329
  536TIP3    H223100   4.246   1.109  10.940 -1.5393 -0.6110  0.4721
  537TIP3   OH223101   2.922   2.322  12.961  0.2210 -0.2210 -0.5632
  537TIP3    H123102   2.969   2.367  13.032 -1.5402  1.0019 -0.1239
  537TIP3    H223103   2.977   2.336  12.884  1.2261  0.0451  0.1706
  538TIP3   OH223104   4.092   1.480  16.907  0.2112  0.3565 -0.1479
  538TIP3    H123105   4.040   1.475  16.827  0.9305 -3.0289 -0.5588
  538TIP3    H223106   4.163   1.417  16.894  1.7232  1.3991  2.2558
  539TIP3   OH223107   3.356   0.980  13.385 -0.1499  0.2199  0.1418
  539TIP3    H123108   3.301   1.044  13.340  0.3450 -0.2618 -1.2035
  539TIP3    H223109   3.361   1.012  13.476  1.5932  3.1902 -0.8362
  540TIP3   OH223110   5.796   2.850   1.365  0.3226 -0.1105 -0.1032
  540TIP3    H123111   5.852   2.918   1.402  1.4172 -0.4095 -1.1718
  540TIP3    H223112   5.720   2.848   1.424  0.0087  2.3522 -0.2950
  541TIP3   OH223113   4.759   2.283  13.944 -0.4939  0.8183 -0.0315
  541TIP3    H123114   4.753   2.364  13.892  1.5243  1.5454  0.7509
  541TIP3    H223115   4.793   2.218  13.883 -0.0114  1.1555 -0.1292
  542TIP3   OH223116   0.200   3.078   0.159 -0.1340 -0.9357  0.3174
  542TIP3    H123117   0.232   3.164   0.188 -0.6236 -1.3560  2.2939
  542TIP3    H223118   0.234   3.068   0.070  0.6091  0.9510  0.3431
  543TIP3   OH223119   2.875   2.266  15.066  0.5099  0.5488 -0.5436
  543TIP3    H123120   2.878   2.246  15.160  0.8075 -0.4404 -0.7637
  543TIP3    H223121   2.957   2.311  15.048  0.9674 -0.2968 -0.5677
  544TIP3   OH223122   6.680   3.258  17.180  0.1576  0.1353  0.7712
  544TIP3    H123123   6.768   3.288  17.155 -0.6110  1.5985 -0.2980
  544TIP3    H223124   6.693   3.215  17.265  1.7139  1.4291  1.2382
  545TIP3   OH223125   6.444   2.169  14.003  0.4960  0.1779 -0.1577
  545TIP3    H123126   6.537   2.179  13.985  0.6796  1.3045  1.2058
  545TIP3    H223127   6.420   2.085  13.964  2.4388 -0.8924  0.8191
  546TIP3   OH223128   5.580   6.265   4.552 -0.5270 -0.0914  0.3223
  546TIP3    H123129   5.571   6.359   4.570 -1.7804 -0.4275  1.6244
  546TIP3    H223130   5.542   6.254   4.466 -0.4219  0.5754  0.1777
  547TIP3   OH223131   4.029   1.703   4.226  0.1490  0.0311  0.3576
  547TIP3    H123132   4.114   1.685   4.265 -0.9994 -0.8994  2.5895
  547TIP3    H223133   4.020   1.798   4.233  0.2625 -0.0453  1.7888
  548TIP3   OH223134   2.863   4.376  14.549  0.2878 -0.1616  0.3849
  548TIP3    H123135   2.896   4.425  14.625 -1.6395  1.9414 -0.0019
  548TIP3    H223136   2.769   4.393  14.549  0.0301 -1.2542 -1.6829
  549TIP3   OH223137   5.936   6.087  13.139 -0.2064 -0.0415 -0.1106
  549TIP3    H123138   5.996   6.100  13.065 -0.2587  0.9267  0.0094
  549TIP3    H223139   5.984   6.029  13.198  0.5772  0.6091 -0.0854
  550TIP3   OH223140   4.578   4.273  14.347 -0.1586  0.1845  0.0649
  550TIP3    H123141   4.515   4.311  14.407  1.4551  1.2494  1.1659
  550TIP3    H223142   4.617   4.348  14.302 -0.2713 -0.5005 -1.2213
  551TIP3   OH223143   3.511   5.016   4.884  0.2979 -0.1531 -0.4834
  551TIP3    H123144   3.553   5.081   4.827 -1.6074 -0.0152 -1.8099
  551TIP3    H223145   3.494   4.942   4.827  0.0480 -0.7769  0.3870
  552TIP3   OH223146   2.805   6.547   5.317  0.3480  0.0496  0.4899
  552TIP3    H123147   2.779   6.585   5.233  1.3690 -0.8575 -0.2614
  552TIP3    H223148   2.746   6.472   5.328  0.6841 -0.2596  0.2192
  553TIP3   OH223149   5.624   5.694   0.621 -0.2194 -0.4578  0.2206
  553TIP3    H123150   5.597   5.725   0.535  1.9857 -1.4305 -0.9196
  553TIP3    H223151   5.720   5.691   0.617 -0.1099 -2.2267  2.0804
  554TIP3   OH223152   3.939   5.239   3.777 -0.0054  0.0824  0.2543
  554TIP3    H123153   3.909   5.315   3.826 -0.9031 -0.8071  1.1374
  554TIP3    H223154   3.920   5.164   3.834  2.5277 -0.6887  0.2034
  555TIP3   OH223155   0.599   0.852   5.033 -0.2013  0.2305 -0.3691
  555TIP3    H123156   0.555   0.936   5.023  0.2960  0.5009 -0.3072
  555TIP3    H223157   0.565   0.799   4.962 -0.6385  0.4299 -0.3142
  556TIP3   OH223158   1.465   0.766   4.552 -0.0334  0.8027  0.0433
  556TIP3    H123159   1.404   0.739   4.621 -2.4772  1.8050 -1.5854
  556TIP3    H223160   1.438   0.855   4.530  0.2889  0.3329 -2.5378
  557TIP3   OH223161   1.868   6.040  16.964 -0.5048 -0.2561 -0.2771
  557TIP3    H123162   1.944   6.031  16.906  1.0297  1.2274  1.3765
  557TIP3    H223163   1.877   5.968  17.027  0.4709  0.8382  0.8745
  558TIP3   OH223164   5.188   2.442  12.295 -0.1388 -0.3102  0.1910
  558TIP3    H123165   5.147   2.444  12.209  1.0483  0.8853 -0.3826
  558TIP3    H223166   5.119   2.471  12.355 -0.3006  1.2537 -0.7010
  559TIP3   OH223167   0.700   3.281   3.349 -0.0593  0.4348 -1.1003
  559TIP3    H123168   0.755   3.291   3.271 -2.2622 -2.1699 -3.2153
  559TIP3    H223169   0.635   3.351   3.342 -0.6898 -0.2190 -2.0907
  560TIP3   OH223170   3.229   3.735  17.086 -0.5140 -0.2792 -0.2574
  560TIP3    H123171   3.162   3.699  17.144 -2.6306  0.6260 -2.0125
  560TIP3    H223172   3.210   3.829  17.082 -0.0801 -0.2328 -1.9539
  561TIP3   OH223173   2.589   4.620  12.033  0.2055 -1.5029  0.4457
  561TIP3    H123174   2.666   4.623  12.090  0.6213 -0.2854 -0.1450
  561TIP3    H223175   2.532   4.689  12.067 -0.4969 -2.1771  0.6714
  562TIP3   OH223176   6.763   2.843  11.103  0.3916 -0.0130 -0.0390
  562TIP3    H123177   6.685   2.892  11.130 -0.5493 -2.0744  1.2224
  562TIP3    H223178   6.836   2.892  11.141 -0.6495 -0.5083  2.8382
  563TIP3   OH223179   6.710   5.575  15.802  0.5881 -0.1081 -0.1111
  563TIP3    H123180   6.731   5.668  15.796  0.1947 -0.0428 -0.5289
  563TIP3    H223181   6.614   5.571  15.805  0.5014 -0.5818 -2.0954
  564TIP3   OH223182   3.438   2.970  12.802  0.5644 -0.1612  0.2269
  564TIP3    H123183   3.511   2.911  12.783  0.2712  0.0994 -2.0271
  564TIP3    H223184   3.378   2.958  12.728  0.6692  3.1785 -0.5531
  565TIP3   OH223185   1.838   5.298   3.218  0.2718  0.3992 -0.2707
  565TIP3    H123186   1.785   5.377   3.207  0.0147  0.1374 -0.9611
  565TIP3    H223187   1.926   5.330   3.236  0.0111  0.8403  0.2315
  566TIP3   OH223188   2.629   3.153   6.490  0.0336  0.3128 -0.5441
  566TIP3    H123189   2.632   3.070   6.538 -0.2725  0.9362  0.6174
  566TIP3    H223190   2.535   3.168   6.476  0.0445  0.7502 -0.1889
  567TIP3   OH223191   4.340   3.557   1.123  0.7163 -0.3812 -0.4588
  567TIP3    H123192   4.427   3.598   1.118  0.9098 -0.4468  1.5959
  567TIP3    H223193   4.332   3.508   1.041  3.2629 -1.6114 -0.0601
  568TIP3   OH223194   4.862   1.566  11.731 -0.1098 -0.5059  0.7911
  568TIP3    H123195   4.798   1.496  11.740 -2.1715  0.4926 -3.5045
  568TIP3    H223196   4.905   1.547  11.647  2.2193  1.2275  1.4976
  569TIP3   OH223197   1.812   6.365  15.048  0.2098 -0.3238 -0.6596
  569TIP3    H123198   1.788   6.272  15.042  0.7689 -0.6299  1.2840
  569TIP3    H223199   1.746   6.404  15.105  1.0211  0.0670  0.0288
  570TIP3   OH223200   4.796   3.467   4.883 -0.3545 -0.1241 -0.5841
  570TIP3    H123201   4.802   3.378   4.848 -0.6219 -0.1446 -0.5845
  570TIP3    H223202   4.852   3.467   4.960 -0.4900 -0.3415 -0.4857
  571TIP3   OH223203   3.256   6.716   4.801 -0.2879 -0.2042  0.3054
  571TIP3    H123204   3.201   6.637   4.806 -0.2011 -0.3037 -0.1812
  571TIP3    H223205   3.279   6.722   4.708  2.1383 -1.2719  0.7787
  572TIP3   OH223206   0.636   6.708  13.525  0.1602 -0.2525  0.3765
  572TIP3    H123207   0.685   6.744  13.451  0.6927 -2.3858 -0.3579
  572TIP3    H223208   0.702   6.691  13.592 -0.2388  1.0829  1.1500
  573TIP3   OH223209   2.216   3.124   3.406 -0.4431 -0.0361  0.5886
  573TIP3    H123210   2.181   3.210   3.380  0.5111 -0.0142 -0.6943
  573TIP3    H223211   2.145   3.063   3.387 -0.0927  0.0979 -1.3174
  574TIP3   OH223212   6.758   1.945  15.912 -0.6357 -0.3636  0.2054
  574TIP3    H123213   6.795   1.857  15.918 -0.2892 -0.1967  0.6132
  574TIP3    H223214   6.695   1.940  15.841 -1.6178 -1.3131  1.1103
  575TIP3   OH223215   3.096   0.021   3.968 -0.2522  0.2834  0.0703
  575TIP3    H123216   3.048  -0.059   3.989  0.9475 -0.7745 -1.0585
  575TIP3    H223217   3.175   0.017   4.022  1.5025 -1.0877 -2.4255
  576TIP3   OH223218   4.963   5.112   5.624 -0.4188  0.1804 -0.2250
  576TIP3    H123219   5.058   5.110   5.635 -0.5489 -0.9497  0.9348
  576TIP3    H223220   4.930   5.150   5.705 -0.9790  0.0240 -0.3760
  577TIP3   OH223221   2.269   5.665  12.061  0.1477  0.0955  0.7539
  577TIP3    H123222   2.269   5.723  11.985 -0.3639  1.2692  1.6150
  577TIP3    H223223   2.347   5.610  12.050  0.5353  0.8108 -0.1895
  578TIP3   OH223224   6.084   5.999   3.322 -0.3261  0.3880  0.4852
  578TIP3    H123225   6.076   6.057   3.247  0.9910 -0.3565 -0.2782
  578TIP3    H223226   6.156   5.940   3.299 -1.8213 -1.7843  1.0772
  579TIP3   OH223227   3.913   5.154  12.866  0.0901 -0.4871  0.2294
  579TIP3    H123228   3.894   5.207  12.944  1.0520 -0.0163  0.1557
  579TIP3    H223229   3.929   5.219  12.797  3.3923 -0.7389  0.6057
  580TIP3   OH223230   1.384   1.456   5.551 -0.0417 -0.3072 -0.0979
  580TIP3    H123231   1.306   1.492   5.593 -0.3450 -0.2656 -0.6811
  580TIP3    H223232   1.368   1.361   5.548  0.3794 -0.4056  0.6802
  581TIP3   OH223233   0.903   1.809   1.685 -0.3759 -0.2486 -0.4843
  581TIP3    H123234   0.924   1.883   1.628  1.8482 -1.0924 -0.8414
  581TIP3    H223235   0.808   1.800   1.679 -1.0249  3.6901  1.0130
  582TIP3   OH223236   5.938   4.637   3.116  0.3755  0.2837  0.2690
  582TIP3    H123237   6.028   4.614   3.141  1.3374  2.7878 -0.5254
  582TIP3    H223238   5.923   4.589   3.035  1.1532  0.1340  0.2067
  583TIP3   OH223239   0.105   5.497   5.570  0.3668 -0.0923 -0.3897
  583TIP3    H123240   0.097   5.539   5.656  1.0030  1.2766 -0.9677
  583TIP3    H223241   0.199   5.487   5.558  0.4078  1.4038 -1.6653
  584TIP3   OH223242   5.720   5.037  14.257 -0.1540 -0.1470 -0.0476
  584TIP3    H123243   5.680   4.955  14.285  0.0374  0.3562  1.7888
  584TIP3    H223244   5.814   5.021  14.260 -0.1185  0.0929  0.1765
  585TIP3   OH223245   2.837   2.995  16.097  0.1271 -0.4800 -0.1120
  585TIP3    H123246   2.902   3.064  16.085 -0.7123  0.7270  1.8789
  585TIP3    H223247   2.825   2.988  16.191 -2.0527 -1.2230 -0.3786
  586TIP3   OH223248   5.934   2.328  12.292 -0.0516 -0.1380 -0.6177
  586TIP3    H123249   5.864   2.358  12.350  1.0971  0.3554  0.5746
  586TIP3    H223250   6.008   2.385  12.314  0.9694 -1.1967 -1.2364
  587TIP3   OH223251   2.676   0.997  11.176 -0.0089 -0.0509  0.1698
  587TIP3    H123252   2.663   0.994  11.271 -1.1627 -2.7307  0.0260
  587TIP3    H223253   2.678   0.905  11.150  2.1395  0.5792 -2.2203
  588TIP3   OH223254   1.251   1.565   4.475 -0.3915  0.2001 -0.2803
  588TIP3    H123255   1.255   1.603   4.563  0.7190 -1.0837  0.2683
  588TIP3    H223256   1.331   1.596   4.432 -0.5740  0.2509 -0.5833
  589TIP3   OH223257   0.153   4.240  16.442  0.4352  0.1810 -0.1137
  589TIP3    H123258   0.152   4.188  16.362 -1.0652 -0.1002  0.0501
  589TIP3    H223259   0.139   4.330  16.411 -1.7300 -0.0936 -0.1334
  590TIP3   OH223260   4.335   0.590   4.933  0.5684  0.4541 -0.0879
  590TIP3    H123261   4.283   0.635   5.000 -2.1064 -1.3904 -0.7549
  590TIP3    H223262   4.383   0.523   4.982 -0.1619  0.1343  0.2142
  591TIP3   OH223263   4.686   4.905  15.177 -0.4872  0.0501 -0.3486
  591TIP3    H123264   4.604   4.861  15.156 -0.9647  0.6498  0.1857
  591TIP3    H223265   4.667   4.998  15.166  0.2769  0.1693 -0.7227
  592TIP3   OH223266   0.901   5.158   4.933 -0.1545  0.3866 -1.2573
  592TIP3    H123267   0.806   5.148   4.935  0.0206 -1.5881 -0.3823
  592TIP3    H223268   0.934   5.068   4.942  1.8064  1.2604  1.4884
  593TIP3   OH223269   3.199   3.260   0.794 -0.3834  0.4955  0.1493
  593TIP3    H123270   3.260   3.332   0.810  0.2573 -0.3944  1.9784
  593TIP3    H223271   3.253   3.181   0.796 -1.1458 -0.0987 -1.3393
  594TIP3   OH223272   4.678   6.060   6.155 -0.3547 -0.4702 -0.1677
  594TIP3    H123273   4.621   6.011   6.096 -2.0251 -0.3822  1.3029
  594TIP3    H223274   4.641   6.046   6.242  0.7697  1.1538  0.6279
  595TIP3   OH223275   0.017   3.170  12.769 -0.2009 -0.3850  0.6411
  595TIP3    H123276  -0.007   3.163  12.861 -1.3295  0.3819  0.4255
  595TIP3    H223277  -0.012   3.257  12.742  0.8843 -0.2591 -0.2360
  596TIP3   OH223278   2.662   2.196   4.125 -0.1493  0.3138 -0.2810
  596TIP3    H123279   2.610   2.220   4.048  0.2103 -1.1748 -1.0263
  596TIP3    H223280   2.604   2.211   4.199 -0.9876  0.4447 -0.9495
  597TIP3   OH223281   2.425   6.363  14.461 -0.4269 -0.3100 -1.1450
  597TIP3    H123282   2.374   6.442  14.478  0.6511  0.7080 -2.3690
  597TIP3    H223283   2.516   6.391  14.472  0.1847 -0.4394 -4.7362
  598TIP3   OH223284   5.083   3.812   5.429 -0.0479  0.2636 -0.0971
  598TIP3    H123285   5.158   3.827   5.371 -0.8119  1.1973 -0.8927
  598TIP3    H223286   5.012   3.788   5.370 -0.2622 -1.1063  0.6967
  599TIP3   OH223287   1.543   0.874  13.434  0.0826  0.1805 -0.4193
  599TIP3    H123288   1.586   0.947  13.389 -3.3616  3.0163  0.4156
  599TIP3    H223289   1.503   0.822  13.364 -2.4986  2.6978 -0.9897
  600TIP3   OH223290   5.180   6.758  14.643 -0.2155 -0.2320 -0.3715
  600TIP3    H123291   5.159   6.790  14.730 -1.9595 -2.6088  0.2065
  600TIP3    H223292   5.249   6.815  14.611  0.1738  0.9594  2.3910
  601TIP3   OH223293   2.561   3.415  14.554 -0.0617  0.1639 -0.0358
  601TIP3    H123294   2.635   3.465  14.522 -0.7200  0.0955 -1.7545
  601TIP3    H223295   2.498   3.481  14.584  0.4607  0.2356  0.9263
  602TIP3   OH223296   5.470   3.019   1.378  0.1746 -0.4079  0.4359
  602TIP3    H123297   5.555   3.060   1.365  0.4531 -1.3079 -0.7481
  602TIP3    H223298   5.433   3.012   1.290 -0.2823 -1.7721  0.7059
  603TIP3   OH223299   5.996   5.974   4.560 -0.0393 -0.6293 -0.2112
  603TIP3    H123300   5.990   5.950   4.468  1.7532 -1.5867 -0.1263
  603TIP3    H223301   5.927   5.923   4.603 -2.5220  1.6455 -1.2722
  604TIP3   OH223302   4.984   1.106  15.939 -0.0203  0.2177 -0.5645
  604TIP3    H123303   5.055   1.063  15.893  0.1979  0.6803 -0.6630
  604TIP3    H223304   5.020   1.191  15.967 -0.7295  0.7552 -1.2198
  605TIP3   OH223305   2.326   5.602   3.102 -0.3696 -0.1526  0.3773
  605TIP3    H123306   2.417   5.590   3.076 -0.1996 -0.0229  0.9057
  605TIP3    H223307   2.328   5.604   3.198 -1.0478 -1.1954  0.4366
  606TIP3   OH223308   1.202   1.371  16.342 -0.2354  0.1940  0.1436
  606TIP3    H123309   1.199   1.279  16.318 -1.1144 -0.0650  1.1881
  606TIP3    H223310   1.110   1.398  16.346  0.0160  1.5886 -1.7901
  607TIP3   OH223311   3.477   0.123   0.498  0.0393  0.6000 -0.2941
  607TIP3    H123312   3.414   0.053   0.514  0.9948 -0.2480 -0.1907
  607TIP3    H223313   3.523   0.133   0.582 -0.0931  1.3718 -0.3029
  608TIP3   OH223314   3.134   2.406  13.178  0.3820 -0.2559 -0.3033
  608TIP3    H123315   3.184   2.328  13.204 -0.6547 -0.7131  0.4013
  608TIP3    H223316   3.122   2.454  13.260  0.9107  0.5998 -0.7161
  609TIP3   OH223317   0.824   2.894   4.602 -0.6851  0.6826  0.2530
  609TIP3    H123318   0.761   2.966   4.614 -0.1779  1.1412  0.1840
  609TIP3    H223319   0.787   2.842   4.531 -1.5141  0.3651  0.9025
  610TIP3   OH223320   2.519   2.617   5.385 -0.3146 -0.3286  0.3198
  610TIP3    H123321   2.458   2.586   5.452 -2.0560 -1.2403 -1.5663
  610TIP3    H223322   2.515   2.551   5.316  2.0332  0.1500 -0.3775
  611TIP3   OH223323   5.575   2.673  15.628  0.3500  0.4163 -0.1228
  611TIP3    H123324   5.549   2.699  15.716  2.4283  0.7201  0.4489
  611TIP3    H223325   5.512   2.717  15.570 -0.7231  0.6178  1.1594
  612TIP3   OH223326   0.173   3.573  16.475 -0.1623 -0.4663  0.5630
  612TIP3    H123327   0.190   3.570  16.569 -0.2805 -1.0516  0.5744
  612TIP3    H223328   0.080   3.590  16.467 -0.0262  0.2680  0.5404
  613TIP3   OH223329   2.856   4.610   2.420  0.0351 -0.1880  0.1470
  613TIP3    H123330   2.836   4.524   2.383  0.0678  0.1447 -0.6672
  613TIP3    H223331   2.855   4.596   2.515 -0.7604 -0.9068  0.0516
  614TIP3   OH223332   3.121   6.601   3.601 -0.5001 -0.3722  0.3390
  614TIP3    H123333   3.196   6.547   3.626 -0.1423  0.8322  2.1031
  614TIP3    H223334   3.059   6.591   3.674 -1.2932  0.0053 -0.2722
  615TIP3   OH223335   5.770   6.320   1.981 -0.3775 -0.0819  0.1619
  615TIP3    H123336   5.854   6.275   1.988  0.0387  0.6840  0.2360
  615TIP3    H223337   5.721   6.292   2.059  0.2508  0.3414  0.7282
  616TIP3   OH223338   1.862   6.652  11.334  0.2288  0.2947  0.0438
  616TIP3    H123339   1.827   6.620  11.251  1.1510  2.5613 -1.3242
  616TIP3    H223340   1.786   6.682  11.383 -0.3161 -0.9740  0.0062
  617TIP3   OH223341   0.538   0.702   1.754  0.2808 -0.3187 -0.0277
  617TIP3    H123342   0.477   0.770   1.781 -0.4898 -1.0712  0.1586
  617TIP3    H223343   0.586   0.740   1.681 -1.0345 -0.0297 -0.7628
  618TIP3   OH223344   3.128   3.790   0.289  0.2778  0.0880 -0.6328
  618TIP3    H123345   3.179   3.866   0.318 -1.0730  0.3597  1.2106
  618TIP3    H223346   3.193   3.722   0.271  1.3433  0.6034  1.0480
  619TIP3   OH223347   2.170   1.781   7.009 -0.6404 -0.4444  0.1174
  619TIP3    H123348   2.259   1.745   7.007 -0.3000  0.3865  0.0575
  619TIP3    H223349   2.113   1.704   7.004  0.0785 -0.9278 -1.0789
  620TIP3   OH223350   6.754   4.293  12.455  0.0367  0.0674  0.5454
  620TIP3    H123351   6.720   4.208  12.482  0.9003  0.0596  1.6606
  620TIP3    H223352   6.745   4.348  12.532  3.2765 -0.1639  1.2080
  621TIP3   OH223353   6.603   1.179  16.714  0.0812  0.4302  0.2091
  621TIP3    H123354   6.509   1.163  16.724  0.0602  1.0848  1.2031
  621TIP3    H223355   6.624   1.240  16.785  1.2366  0.3717 -0.0747
  622TIP3   OH223356   3.901   6.362   1.926  0.3925 -0.1976 -0.0487
  622TIP3    H123357   3.850   6.287   1.895 -0.3978  0.5376 -0.5880
  622TIP3    H223358   3.902   6.422   1.851  2.2082 -0.2528 -0.1133
  623TIP3   OH223359   3.610   1.214  11.598 -0.0341  0.2307  0.4278
  623TIP3    H123360   3.602   1.131  11.552  0.8251  0.8531 -0.9285
  623TIP3    H223361   3.701   1.218  11.626 -0.9003 -0.8644  3.7595
  624TIP3   OH223362   4.888   0.359   2.567  0.1217  0.3660 -0.1870
  624TIP3    H123363   4.973   0.346   2.610  0.7229  0.1853 -1.3890
  624TIP3    H223364   4.910   0.383   2.477 -1.1035 -0.1392 -0.6430
  625TIP3   OH223365   1.112   6.630   2.943 -0.0724  0.5814  0.5503
  625TIP3    H123366   1.098   6.586   3.026  0.7229 -1.4525 -0.3295
  625TIP3    H223367   1.192   6.592   2.908  0.8514  2.9896 -0.1727
  626TIP3   OH223368   6.234   1.397  13.312  0.2220  0.2657 -0.2162
  626TIP3    H123369   6.221   1.341  13.389 -0.2950  1.6158  0.7063
  626TIP3    H223370   6.253   1.335  13.241  0.9659 -1.0019  1.0287
  627TIP3   OH223371   1.772   0.678  15.119 -0.1968  0.0799 -0.2331
  627TIP3    H123372   1.754   0.589  15.149 -0.7133  0.6883  1.3915
  627TIP3    H223373   1.757   0.675  15.025 -3.2273 -0.8737  0.1618
  628TIP3   OH223374   1.153   0.856   1.344 -0.3717 -0.8009  0.2537
  628TIP3    H123375   1.189   0.944   1.355  0.5111 -0.2021 -4.9068
  628TIP3    H223376   1.063   0.871   1.313  0.2980 -1.4558 -2.2659
  629TIP3   OH223377   4.745   2.036  11.162  0.0451 -0.1010  0.3983
  629TIP3    H123378   4.729   2.006  11.251 -0.8760  1.4999  0.8061
  629TIP3    H223379   4.810   2.106  11.171  0.4668 -0.3988 -0.2642
  630TIP3   OH223380   3.614   2.697   5.299 -0.0565  0.1229 -0.7826
  630TIP3    H123381   3.608   2.740   5.384  1.8577 -0.9072 -0.0634
  630TIP3    H223382   3.708   2.699   5.278  0.2980 -4.0736 -0.4297
  631TIP3   OH223383   3.662   3.301  12.292 -0.2813 -0.3698  0.2888
  631TIP3    H123384   3.650   3.255  12.375  2.0399 -0.4373  0.6541
  631TIP3    H223385   3.679   3.231  12.228 -0.8684 -0.2508  0.0026
  632TIP3   OH223386   1.617   0.707   6.598  0.5876  0.3225 -0.0500
  632TIP3    H123387   1.599   0.798   6.623 -0.0570  0.1372  0.1958
  632TIP3    H223388   1.600   0.705   6.504 -1.3423  0.0308  0.2560
  633TIP3   OH223389   2.823   6.305  14.938  0.2312 -0.0237 -0.0603
  633TIP3    H123390   2.825   6.214  14.969 -0.7333  0.2950  0.9843
  633TIP3    H223391   2.812   6.297  14.843 -2.2837 -1.0358  0.2256
  634TIP3   OH223392   5.516   4.889   1.804 -0.2831 -0.5232 -0.0128
  634TIP3    H123393   5.517   4.855   1.894  3.9229  1.2912  0.8755
  634TIP3    H223394   5.563   4.822   1.754 -0.7552 -0.5651 -0.3952
  635TIP3   OH223395   4.764   5.755  15.534 -0.2884  0.0818 -0.8486
  635TIP3    H123396   4.735   5.700  15.460  0.8442  1.6752 -2.5604
  635TIP3    H223397   4.760   5.844  15.500  1.6517  0.7521  0.5446
  636TIP3   OH223398   1.509   0.072   2.408 -0.1520 -0.0396 -0.3549
  636TIP3    H123399   1.534   0.143   2.467  0.5362 -0.7703  0.2687
  636TIP3    H223400   1.415   0.062   2.420  0.0444 -0.5143  1.0549
  637TIP3   OH223401   0.994   4.926   0.315  0.4540 -0.7372 -0.7442
  637TIP3    H123402   1.060   4.905   0.249 -0.0669 -1.5663 -1.0082
  637TIP3    H223403   0.983   4.845   0.366  0.6924 -0.1801  0.2317
  638TIP3   OH223404   4.456   1.822   0.099  0.9060  0.2494 -0.2835
  638TIP3    H123405   4.379   1.823   0.041  1.5637  1.4364 -1.1770
  638TIP3    H223406   4.419   1.818   0.187 -0.1300 -1.0163 -0.7520
  639TIP3   OH223407   5.656   2.686   4.750 -0.0953  0.0075  0.3077
  639TIP3    H123408   5.719   2.664   4.819  0.6498 -1.3199 -0.7568
  639TIP3    H223409   5.709   2.702   4.672 -0.9279  1.4257 -0.0004
  640TIP3   OH223410   6.335   2.874  11.645  0.8371  0.2156 -0.1234
  640TIP3    H123411   6.349   2.812  11.573  0.8689  0.7648 -0.5982
  640TIP3    H223412   6.351   2.959  11.606  0.1541  0.5729  0.3599
  641TIP3   OH223413   0.039   3.591  13.231  0.4555  0.6651  0.0683
  641TIP3    H123414   0.053   3.649  13.306 -0.7041  2.0832 -0.7694
  641TIP3    H223415   0.060   3.645  13.154  1.3541 -0.6724 -0.6794
  642TIP3   OH223416   4.271   0.207   3.067 -0.5973 -0.5269 -0.0118
  642TIP3    H123417   4.257   0.297   3.036 -1.3248 -0.5767  0.1627
  642TIP3    H223418   4.203   0.194   3.133  1.1622 -0.2764  1.9676
  643TIP3   OH223419   4.549   6.213  14.685  0.3090  0.2561 -0.5403
  643TIP3    H123420   4.493   6.161  14.626 -1.1485  3.4212 -2.1736
  643TIP3    H223421   4.638   6.191  14.658 -0.2015 -1.6008 -0.8983
  644TIP3   OH223422   4.117   3.087  12.648  0.5750 -0.1577 -0.5913
  644TIP3    H123423   4.036   3.038  12.663  1.3645 -1.1095  0.8625
  644TIP3    H223424   4.090   3.179  12.650 -0.4515 -0.4570  0.0866
  645TIP3   OH223425   3.907   3.733  12.419  0.3664 -0.2802 -0.1833
  645TIP3    H123426   3.961   3.736  12.498 -2.0136 -0.2717  1.5545
  645TIP3    H223427   3.869   3.645  12.419 -0.4317  0.0473 -0.7485
  646TIP3   OH223428   3.786   1.548  17.038 -0.2340 -0.0025  0.1467
  646TIP3    H123429   3.867   1.596  17.056 -1.0573  2.3089 -1.7716
  646TIP3    H223430   3.814   1.476  16.981  0.7195 -0.5330  1.2340
  647TIP3   OH223431   4.467   3.518   4.362 -0.3200  0.4432 -0.1369
  647TIP3    H123432   4.461   3.600   4.312 -1.7040  0.2334 -0.3517
  647TIP3    H223433   4.384   3.473   4.345  0.9951 -1.7022 -1.1709
  648TIP3   OH223434   2.792   3.757   3.843  0.1831  0.3325  0.4368
  648TIP3    H123435   2.718   3.817   3.844  0.0954  0.2753 -0.9554
  648TIP3    H223436   2.865   3.808   3.878 -0.2104  0.8010  0.5844
  649TIP3   OH223437   5.215   5.176   0.085  0.6229 -0.9094 -0.7965
  649TIP3    H123438   5.289   5.115   0.085  0.4187 -1.1539 -0.9091
  649TIP3    H223439   5.199   5.193   0.178  1.2846 -0.2931 -0.7851
  650TIP3   OH223440   4.559   5.034   4.818  0.0067  0.2127  0.0397
  650TIP3    H123441   4.511   5.002   4.895 -0.5008 -0.0555 -0.3780
  650TIP3    H223442   4.630   4.971   4.806 -0.7692 -0.5773 -0.5591
  651TIP3   OH223443   6.466   4.550   4.149  0.0026 -0.7635  0.0201
  651TIP3    H123444   6.389   4.608   4.146  1.4828  1.2641 -1.3159
  651TIP3    H223445   6.449   4.484   4.082 -0.0215  0.4722 -1.2332
  652TIP3   OH223446   6.090   1.661  11.490 -0.0859  0.2642 -0.1688
  652TIP3    H123447   6.002   1.625  11.475 -0.0688  1.1940 -3.0804
  652TIP3    H223448   6.149   1.592  11.461  0.0429  0.8569 -1.3577
  653TIP3   OH223449   6.387   4.109   4.154 -0.4508  0.3490 -0.1820
  653TIP3    H123450   6.297   4.141   4.155 -0.0361  1.5591  0.8608
  653TIP3    H223451   6.439   4.185   4.130  0.3721 -0.1459  0.0111
  654TIP3   OH223452   5.290   3.263  14.587 -0.0857 -0.2994 -0.4562
  654TIP3    H123453   5.226   3.320  14.629  0.6738  0.3451 -0.1342
  654TIP3    H223454   5.346   3.323  14.537  0.4017 -0.8226 -0.5504
  655TIP3   OH223455   2.863   4.703   5.497 -0.0286  0.3750  0.5378
  655TIP3    H123456   2.803   4.676   5.567  2.7108 -0.7075  2.6558
  655TIP3    H223457   2.915   4.773   5.536  1.7865 -0.4656 -0.2606
  656TIP3   OH223458   5.486   5.063  11.702  0.6683 -0.4099 -0.5508
  656TIP3    H123459   5.534   4.996  11.750  2.2003  0.1794 -1.2130
  656TIP3    H223460   5.454   5.019  11.623 -1.8832 -1.3914  0.8837
  657TIP3   OH223461   1.135   6.803  11.543  0.1130  0.2821 -0.0744
  657TIP3    H123462   1.060   6.828  11.489 -0.6846 -1.1859  0.2870
  657TIP3    H223463   1.198   6.766  11.482  0.3994  1.1726 -0.3320
  658TIP3   OH223464   4.057   1.010   2.665 -0.2525  0.3814  0.2389
  658TIP3    H123465   3.995   1.073   2.628 -1.6437 -0.6779  0.6854
  658TIP3    H223466   4.020   0.987   2.750 -0.8928 -2.4901 -0.7007
  659TIP3   OH223467   0.311   3.951   1.294  0.6626  0.7530 -0.5134
  659TIP3    H123468   0.287   3.859   1.286 -0.3402  0.7422  1.7950
  659TIP3    H223469   0.406   3.953   1.281  1.2249 -1.1393  2.3969
  660TIP3   OH223470   0.400   0.522   3.741 -0.6381 -0.2846  0.1122
  660TIP3    H123471   0.382   0.595   3.801  2.5378  1.4716 -0.8619
  660TIP3    H223472   0.450   0.561   3.670  0.1596 -3.2430 -1.0937
  661TIP3   OH223473   2.419   5.165  13.617 -0.9938 -0.0235 -0.6014
  661TIP3    H123474   2.346   5.170  13.680  0.4031  0.4693  1.0571
  661TIP3    H223475   2.388   5.214  13.541 -2.3254  0.3348  0.1288
  662TIP3   OH223476   4.038   2.363   4.875  0.5521 -0.4582  0.1786
  662TIP3    H123477   4.014   2.271   4.860 -1.2377  0.1479 -0.8974
  662TIP3    H223478   4.111   2.378   4.814  0.7470 -1.1008  0.2371
  663TIP3   OH223479   3.210   5.498   4.185  0.2948  0.1448 -0.0545
  663TIP3    H123480   3.303   5.505   4.161  0.0733 -2.1384 -2.0367
  663TIP3    H223481   3.163   5.525   4.106 -0.6732 -0.4673  0.2858
  664TIP3   OH223482   6.317   1.534   1.132 -0.7324 -0.3518  0.6505
  664TIP3    H123483   6.346   1.536   1.041 -0.4223 -1.7682  0.6839
  664TIP3    H223484   6.233   1.579   1.132 -0.4604  0.1638 -0.2286
  665TIP3   OH223485   2.596   2.135  12.040  0.1657  0.0130  0.0909
  665TIP3    H123486   2.683   2.127  12.080  0.0324 -0.9819  0.2220
  665TIP3    H223487   2.556   2.210  12.084  0.6443 -0.0549  0.6569
  666TIP3   OH223488   2.322   2.576  12.372 -0.0641 -0.3973  0.0330
  666TIP3    H123489   2.370   2.584  12.289 -0.5202  2.3355 -0.0666
  666TIP3    H223490   2.386   2.537  12.432  0.8242 -0.8653 -1.1584
  667TIP3   OH223491   3.049   5.914   0.043 -0.0200  0.4225  0.1458
  667TIP3    H123492   3.072   5.978  -0.024  0.8064  0.1795  0.1944
  667TIP3    H223493   3.125   5.909   0.100 -0.3229 -0.1281  0.5143
  668TIP3   OH223494   6.301   4.944  16.448 -0.0988 -0.5177 -0.3703
  668TIP3    H123495   6.249   4.912  16.375 -0.5121  1.4901 -1.0261
  668TIP3    H223496   6.356   5.013  16.411  1.5597 -1.1611  0.7271
  669TIP3   OH223497   0.978   3.355   2.954  0.3811 -0.5673 -0.2263
  669TIP3    H123498   0.990   3.448   2.973 -0.7837 -0.6491  1.0534
  669TIP3    H223499   0.982   3.350   2.858 -0.2061  0.9051 -0.3589
  670TIP3   OH223500   4.030   4.708  12.670 -0.0745  0.3052 -1.1397
  670TIP3    H123501   4.035   4.765  12.746 -2.4108 -0.3476 -0.4303
  670TIP3    H223502   3.938   4.681  12.665  0.6428 -2.3412 -2.1997
  671TIP3   OH223503   6.475   0.624   1.834 -0.3171  0.3625  0.4668
  671TIP3    H123504   6.419   0.699   1.813  0.0517  0.7544  0.8544
  671TIP3    H223505   6.485   0.627   1.929  0.5639  0.4579  0.3861
  672TIP3   OH223506   4.451   2.221   0.617 -0.2509 -1.2743  0.2760
  672TIP3    H123507   4.361   2.204   0.645 -1.2040 -0.3777 -1.9665
  672TIP3    H223508   4.456   2.183   0.529  1.6701 -1.5376  0.4592
  673TIP3   OH223509   0.143   2.387   2.978  0.0240 -0.3941  0.0849
  673TIP3    H123510   0.129   2.469   2.931  2.1470 -0.2007 -0.3160
  673TIP3    H223511   0.072   2.384   3.043 -1.7840  0.3065 -1.7500
  674TIP3   OH223512   1.177   1.200   3.101  0.1765  0.2161  0.1802
  674TIP3    H123513   1.204   1.274   3.156 -0.2687 -0.1126  0.8660
  674TIP3    H223514   1.171   1.127   3.162  0.3502 -0.3257 -0.4453
  675TIP3   OH223515   6.724   6.305  15.569  0.4686 -0.1650 -0.1479
  675TIP3    H123516   6.769   6.368  15.625  1.8374  0.4626 -1.8554
  675TIP3    H223517   6.759   6.220  15.594 -0.4392 -0.1435  1.2941
  676TIP3   OH223518   4.861   3.864   5.085  0.3503  0.0447  0.2800
  676TIP3    H123519   4.889   3.797   5.147  0.3811 -0.7828 -0.6048
  676TIP3    H223520   4.899   3.945   5.118  2.4899 -0.7803 -0.0113
  677TIP3   OH223521   3.268   2.725   5.590 -0.3759  0.4270 -0.0686
  677TIP3    H123522   3.299   2.805   5.547  0.2926 -0.5620 -1.5011
  677TIP3    H223523   3.348   2.678   5.614 -0.6944  1.0903  2.7036
  678TIP3   OH223524   4.060   4.765   4.276  0.2454 -0.4252 -0.8363
  678TIP3    H123525   4.139   4.746   4.325 -0.7579 -2.5944  0.0935
  678TIP3    H223526   4.071   4.717   4.194  0.7691  1.0283 -1.6564
  679TIP3   OH223527   0.623   2.916   2.490  0.4285 -0.0499 -0.1957
  679TIP3    H123528   0.670   2.969   2.554  0.7798 -0.0060 -0.4867
  679TIP3    H223529   0.663   2.939   2.406  0.8164 -1.0205 -0.2895
  680TIP3   OH223530   4.588   6.280  13.269 -0.5223  0.0973  0.3480
  680TIP3    H123531   4.584   6.374  13.285  0.6025  0.6729 -2.2626
  680TIP3    H223532   4.497   6.256  13.248 -0.7333  0.6975  0.5582
  681TIP3   OH223533   3.619   6.152   0.081 -0.9584 -0.2627 -0.1868
  681TIP3    H123534   3.711   6.125   0.093 -1.0046  0.2805  1.7144
  681TIP3    H223535   3.571   6.069   0.074 -0.5541 -0.6096  0.9012
  682TIP3   OH223536   1.201   3.295  11.319  0.0591 -0.2477  0.2837
  682TIP3    H123537   1.286   3.333  11.343  0.6328 -0.9498 -0.6041
  682TIP3    H223538   1.215   3.256  11.233 -0.9205 -1.1836  0.5269
  683TIP3   OH223539   3.207   5.647   6.071 -0.4475 -0.7289 -0.1065
  683TIP3    H123540   3.269   5.683   6.135 -2.5308  0.5485  1.3525
  683TIP3    H223541   3.152   5.722   6.046 -3.0565 -2.2127  0.7221
  684TIP3   OH223542   0.996   1.006   2.893 -0.2313 -0.0669 -0.7386
  684TIP3    H123543   1.019   1.053   2.973  1.9333 -0.3095 -1.1592
  684TIP3    H223544   0.913   0.963   2.914  0.5307 -0.5752  1.5836
  685TIP3   OH223545   6.110   2.229   0.975  0.3231 -0.5554 -0.3735
  685TIP3    H123546   6.174   2.279   0.924 -1.1506  1.3218 -0.4959
  685TIP3    H223547   6.149   2.222   1.062  1.1476 -0.3644 -0.7149
  686TIP3   OH223548   0.977   4.693  16.145  0.2396  0.0091 -0.2504
  686TIP3    H123549   1.060   4.741  16.150  0.8990 -1.1563  0.3906
  686TIP3    H223550   0.963   4.659  16.233 -1.1959  0.5982 -0.2262
  687TIP3   OH223551   5.287   6.022   1.818 -0.0263  0.4274  0.2999
  687TIP3    H123552   5.302   6.096   1.876 -0.7204  0.5128  0.3762
  687TIP3    H223553   5.358   6.027   1.754  1.7594 -0.6299  2.0751
  688TIP3   OH223554   0.582   4.080   2.692 -0.1323  0.3203 -0.0890
  688TIP3    H123555   0.538   4.020   2.632 -0.5483 -0.5453  1.0394
  688TIP3    H223556   0.624   4.023   2.756  0.0693  1.2226  0.5962
  689TIP3   OH223557   1.718   0.731  16.565  0.0348  0.4646 -0.2449
  689TIP3    H123558   1.683   0.814  16.530 -1.1857  0.4742  0.9219
  689TIP3    H223559   1.648   0.668  16.549 -0.5719  0.4672  2.1304
  690TIP3   OH223560   0.500   4.527   0.612  0.0025  0.1319 -0.5761
  690TIP3    H123561   0.582   4.537   0.564  0.7856 -1.2657  0.3892
  690TIP3    H223562   0.434   4.564   0.554  1.3528  1.6737 -1.2063
  691TIP3   OH223563   2.009   2.592   0.272 -0.1215 -0.1502  0.1644
  691TIP3    H123564   2.013   2.501   0.300  1.1436  0.0094  0.5406
  691TIP3    H223565   1.947   2.633   0.333  1.2139 -0.2118  1.6102
  692TIP3   OH223566   4.241   6.747   5.187  0.1383 -0.5732  0.1643
  692TIP3    H123567   4.323   6.761   5.235  0.3329 -1.1159 -0.0093
  692TIP3    H223568   4.263   6.770   5.096  0.1208 -0.8163  0.1002
  693TIP3   OH223569   2.901   3.263  14.160  0.0763 -0.4949  0.3464
  693TIP3    H123570   2.898   3.176  14.199  0.4037  0.1634  1.9185
  693TIP3    H223571   2.810   3.292  14.159  0.1169 -0.3227  1.1114
  694TIP3   OH223572   2.148   4.281   1.332 -0.3336 -0.0342  1.1001
  694TIP3    H123573   2.101   4.200   1.352 -0.2940  0.1373  1.9427
  694TIP3    H223574   2.079   4.347   1.323 -0.3044  0.0869  1.6926
  695TIP3   OH223575   5.106   1.654  16.630 -0.2486  0.1432 -0.2164
  695TIP3    H123576   5.037   1.708  16.670 -2.3058 -0.8537 -2.1882
  695TIP3    H223577   5.073   1.564  16.637  0.7859 -0.3521 -1.3363
  696TIP3   OH223578   4.073   2.472   3.266 -0.4001 -0.0643  0.0250
  696TIP3    H123579   4.159   2.444   3.235  0.3094  0.5195  1.3625
  696TIP3    H223580   4.043   2.535   3.201 -0.6670 -1.6134 -1.4185
  697TIP3   OH223581   5.961   5.740  15.919 -0.0165  0.0070  0.2362
  697TIP3    H123582   5.942   5.698  15.834 -0.1508 -1.3297  0.8933
  697TIP3    H223583   6.018   5.677  15.964  1.5300  1.5027  0.4508
  698TIP3   OH223584   0.298   1.680  15.080 -0.1939  0.5910 -0.1220
  698TIP3    H123585   0.245   1.698  15.158 -2.0577  0.9104 -1.4044
  698TIP3    H223586   0.366   1.747  15.081  0.2431  0.1751  1.5620
  699TIP3   OH223587   2.679   6.742  13.881  0.1522 -0.3455  0.3281
  699TIP3    H123588   2.666   6.811  13.947  0.6227  0.8555 -0.7896
  699TIP3    H223589   2.695   6.790  13.800 -0.8760 -1.7891 -0.7674
  700TIP3   OH223590   4.280   0.977  11.471 -0.7497 -0.2822  0.2814
  700TIP3    H123591   4.330   0.938  11.542 -1.3728 -0.2463  0.7539
  700TIP3    H223592   4.265   1.068  11.498  0.2886  0.1629 -0.5928
  701TIP3   OH223593   6.237   0.849  16.370  0.0757  0.0813 -0.3213
  701TIP3    H123594   6.326   0.877  16.392 -1.1117  2.1963  2.3042
  701TIP3    H223595   6.210   0.794  16.444 -0.3127 -1.9681 -1.8841
  702TIP3   OH223596   0.306   6.246   4.551 -0.3182 -0.1928 -0.0819
  702TIP3    H123597   0.353   6.215   4.628 -0.6699  0.2744  0.3360
  702TIP3    H223598   0.225   6.285   4.587 -0.3864  0.2221 -0.6655
  703TIP3   OH223599   5.307   5.150  13.653 -0.2370 -0.3285 -0.6359
  703TIP3    H123600   5.241   5.088  13.624 -0.5961  0.1772 -0.9105
  703TIP3    H223601   5.282   5.233  13.612 -2.4613  1.2067  3.1896
  704TIP3   OH223602   2.555   4.856   5.540 -0.3796  0.5076 -0.3410
  704TIP3    H123603   2.588   4.852   5.450 -1.5977  0.0069 -0.7771
  704TIP3    H223604   2.473   4.807   5.538  0.0963 -0.4275  1.2898
  705TIP3   OH223605   0.129   5.755   4.376 -0.1348 -0.1336  0.2146
  705TIP3    H123606   0.209   5.705   4.360 -0.2671 -0.3865  0.3328
  705TIP3    H223607   0.158   5.833   4.422  0.3296  0.8843 -1.6896
  706TIP3   OH223608   4.563   4.060  15.014  0.1023  0.5307 -0.5499
  706TIP3    H123609   4.488   4.047  15.072  0.8915  0.8213  0.5638
  706TIP3    H223610   4.590   3.972  14.989  0.6222  0.3157  0.6857
  707TIP3   OH223611   3.161   5.000  12.895  0.4684 -0.4598  0.0674
  707TIP3    H123612   3.225   5.035  12.956  0.2616 -0.2091  0.1424
  707TIP3    H223613   3.084   4.981  12.949 -0.5854  1.9702 -0.4402
  708TIP3   OH223614   1.442   3.297   2.158  0.2919  0.0130  0.4469
  708TIP3    H123615   1.449   3.391   2.174 -5.2430  1.2040 -1.6223
  708TIP3    H223616   1.392   3.264   2.232 -0.6424 -0.4821 -0.3670
  709TIP3   OH223617   3.418   3.551   1.989 -0.0965  0.6342  0.1963
  709TIP3    H123618   3.328   3.576   1.972  0.1082  0.6459 -0.9024
  709TIP3    H223619   3.465   3.571   1.908  0.7281 -0.1587  0.4592
  710TIP3   OH223620   4.625   0.440  14.240 -0.3682 -0.0210  0.1209
  710TIP3    H123621   4.605   0.351  14.269 -0.8332 -0.2813 -0.9509
  710TIP3    H223622   4.579   0.497  14.302 -1.1716 -0.5499  0.0232
  711TIP3   OH223623   6.410   5.307   1.454  0.0492 -0.2090 -0.1301
  711TIP3    H123624   6.489   5.269   1.492  0.6076 -0.8669 -1.8154
  711TIP3    H223625   6.410   5.398   1.484  1.0329 -0.4054  0.5134
  712TIP3   OH223626   3.043   2.659  12.914  0.0624  0.1404 -0.6705
  712TIP3    H123627   3.093   2.739  12.927  3.5434 -2.1064  1.7854
  712TIP3    H223628   3.074   2.625  12.830  2.6117 -0.9462  0.5671
  713TIP3   OH223629   2.711   4.452   1.184 -1.0289 -0.2830  0.1761
  713TIP3    H123630   2.725   4.358   1.181 -0.6140 -0.2052 -0.4408
  713TIP3    H223631   2.710   4.473   1.278 -1.7241 -0.9775  0.3274
  714TIP3   OH223632   4.076   4.837  14.173  0.0715 -0.1967 -0.0340
  714TIP3    H123633   4.141   4.907  14.163 -2.1295  2.1406  0.7103
  714TIP3    H223634   4.061   4.832  14.267 -1.6617  0.2667 -0.2351
  715TIP3   OH223635   4.882   3.351  13.685 -0.2391  0.1769  0.1276
  715TIP3    H123636   4.830   3.287  13.637 -0.6667  1.1033 -0.6878
  715TIP3    H223637   4.888   3.426  13.626  1.0439  0.5378  0.6817
  716TIP3   OH223638   1.175   6.530   0.057 -0.0575 -0.5142  0.6073
  716TIP3    H123639   1.147   6.464  -0.007 -0.4856 -0.1800  0.4454
  716TIP3    H223640   1.104   6.594   0.058  0.4249  0.0324  0.6466
  717TIP3   OH223641   6.271   0.844  15.372  0.2067  0.1779 -0.2714
  717TIP3    H123642   6.336   0.902  15.410  0.7434 -0.5485 -0.0583
  717TIP3    H223643   6.307   0.820  15.286  0.1923 -0.1758 -0.1793
  718TIP3   OH223644   3.181   0.548   6.121 -0.1896 -0.1543  0.5591
  718TIP3    H123645   3.230   0.626   6.094 -0.6519 -0.0513  0.0136
  718TIP3    H223646   3.223   0.476   6.074 -2.6703  0.3247 -2.7248
  719TIP3   OH223647   5.846   3.648   2.230 -0.4716  0.8509 -0.0689
  719TIP3    H123648   5.908   3.595   2.280 -0.3566  1.6442  0.6427
  719TIP3    H223649   5.824   3.594   2.154  1.7198  0.8752 -0.7854
  720TIP3   OH223650   3.654   3.440  16.726  0.4890  0.4477  0.2885
  720TIP3    H123651   3.633   3.388  16.804  1.3063  1.7435  1.4173
  720TIP3    H223652   3.586   3.508  16.724  0.0811  0.0332 -0.5388
  721TIP3   OH223653   2.750   5.874  14.121 -0.1227 -0.1874 -0.5650
  721TIP3    H123654   2.759   5.841  14.032 -0.7354 -0.1730 -0.6333
  721TIP3    H223655   2.671   5.832  14.155 -0.6545  0.8254 -0.4902
  722TIP3   OH223656   6.709   4.137  14.074  0.0513 -0.4558  0.2271
  722TIP3    H123657   6.787   4.192  14.075  0.6174 -1.0590 -2.5224
  722TIP3    H223658   6.728   4.068  14.139  1.8238 -0.5985 -0.3841
  723TIP3   OH223659   5.943   1.406   1.290  0.4005  0.3046  0.6233
  723TIP3    H123660   5.875   1.428   1.354 -0.4789 -0.1832 -0.1145
  723TIP3    H223661   5.998   1.484   1.286 -0.4740  0.9462  0.7884
  724TIP3   OH223662   1.104   5.419  17.049  1.0453  0.4920  0.3439
  724TIP3    H123663   1.064   5.469  16.979  1.4917 -1.1337 -1.1526
  724TIP3    H223664   1.041   5.350  17.068  1.4619  0.1941  0.6663
  725TIP3   OH223665   0.740   5.724  16.739  0.0657 -0.0624 -0.5186
  725TIP3    H123666   0.781   5.751  16.822 -0.9289  0.4552 -0.1774
  725TIP3    H223667   0.735   5.629  16.745  0.2881 -0.0554 -0.1251
  726TIP3   OH223668   4.394   1.922  12.036  0.0577 -0.1942  0.3674
  726TIP3    H123669   4.357   2.003  12.072  1.4599  0.9820 -0.7287
  726TIP3    H223670   4.451   1.888  12.106  1.1356  0.9460  0.0733
  727TIP3   OH223671   4.090   4.595   5.187 -0.0766 -0.0268 -0.5601
  727TIP3    H123672   3.996   4.590   5.205  0.0594 -0.9703 -0.0206
  727TIP3    H223673   4.096   4.599   5.092 -0.6919  1.1297 -0.5632
  728TIP3   OH223674   5.658   3.741  13.243 -0.6068 -0.1860 -0.4262
  728TIP3    H123675   5.748   3.730  13.271  0.1792  2.4463 -1.5745
  728TIP3    H223676   5.621   3.653  13.244  2.1422 -1.4397 -0.5283
  729TIP3   OH223677   3.651   6.789  14.491  0.0489 -0.1795  0.5111
  729TIP3    H123678   3.617   6.805  14.580  0.1982  0.7621  0.4156
  729TIP3    H223679   3.746   6.795  14.501  0.0221  1.9499 -0.0378
  730TIP3   OH223680   1.673   5.730  11.321 -0.1905  0.2490 -0.2762
  730TIP3    H123681   1.700   5.805  11.375 -0.6067  0.3371 -0.1848
  730TIP3    H223682   1.637   5.770  11.242  0.4468  0.1178 -0.6384
  731TIP3   OH223683   3.181   4.961   5.101 -0.5243  0.2682  0.3404
  731TIP3    H123684   3.144   5.049   5.092 -1.4620 -0.2705 -1.7250
  731TIP3    H223685   3.259   4.962   5.045 -0.1741 -0.0214  0.8195
  732TIP3   OH223686   2.221   4.262  11.480  0.0622  0.5247  0.2768
  732TIP3    H123687   2.164   4.297  11.412 -1.0603 -0.2552  0.7942
  732TIP3    H223688   2.226   4.333  11.545 -1.2430  0.2205  0.7518
  733TIP3   OH223689   1.559   6.493  16.270  0.2769 -0.2507  0.3246
  733TIP3    H123690   1.558   6.417  16.328  0.4433 -0.5400 -0.0494
  733TIP3    H223691   1.547   6.568  16.329 -2.8560 -0.7094  0.4354
  734TIP3   OH223692   6.408   3.380  12.545 -0.1502 -0.3921  0.2705
  734TIP3    H123693   6.401   3.469  12.510  0.7887 -0.8423 -1.1654
  734TIP3    H223694   6.355   3.381  12.624 -0.7926  1.2343 -0.1399
  735TIP3   OH223695   5.416   6.817  13.415  0.0302 -0.4205 -0.4749
  735TIP3    H123696   5.349   6.797  13.350 -2.0954  2.9673  0.4063
  735TIP3    H223697   5.390   6.768  13.492 -1.3392  0.6105 -0.2418
  736TIP3   OH223698   5.035   0.022   2.926  0.7487 -0.4177 -0.0659
  736TIP3    H123699   4.995   0.109   2.918 -0.1626 -0.8031  0.2282
  736TIP3    H223700   5.026   0.000   3.018  1.7825 -0.4603  0.0408
  737TIP3   OH223701   6.767   1.521  12.143 -0.3167 -0.9511 -0.5434
  737TIP3    H123702   6.689   1.514  12.198 -0.2451  0.9581 -0.1011
  737TIP3    H223703   6.733   1.525  12.054 -0.6378 -1.3704 -0.4405
  738TIP3   OH223704   6.349   0.335  12.476 -0.9615 -0.1653  0.5973
  738TIP3    H123705   6.347   0.333  12.572 -1.2226 -1.3878  0.5842
  738TIP3    H223706   6.308   0.418  12.453 -1.2909 -0.0505  1.5381
  739TIP3   OH223707   1.812   3.245   1.375  0.3793 -0.3555 -0.6087
  739TIP3    H123708   1.739   3.233   1.315  0.2020  1.9380 -0.9391
  739TIP3    H223709   1.788   3.196   1.453 -0.0993 -2.0932 -1.7762
  740TIP3   OH223710   5.019   3.557  11.264 -0.7293  0.1302  0.4868
  740TIP3    H123711   5.013   3.594  11.176  1.3025  1.8922  1.0214
  740TIP3    H223712   4.979   3.623  11.321  0.0167  0.0506  1.1192
  741TIP3   OH223713   6.702   4.384   0.638 -0.0887 -0.1527 -0.6480
  741TIP3    H123714   6.704   4.479   0.627 -0.3853  0.1040  1.1946
  741TIP3    H223715   6.610   4.364   0.651  0.1331 -0.4460  0.6249
  742TIP3   OH223716   2.987   1.975  13.827  0.0571 -0.0676  0.4182
  742TIP3    H123717   3.056   2.041  13.828 -1.0555  1.1411  0.0087
  742TIP3    H223718   2.941   1.988  13.910 -1.6101  1.2871 -0.6683
  743TIP3   OH223719   1.145   0.002  13.682  0.2805 -0.6500 -0.0116
  743TIP3    H123720   1.147  -0.017  13.588 -0.9063  0.3576 -0.2529
  743TIP3    H223721   1.147   0.097  13.688 -2.1305 -0.5865  0.8626
  744TIP3   OH223722   3.127   2.060  12.396 -0.3412  0.4073  0.5012
  744TIP3    H123723   3.205   2.106  12.367 -1.0306  1.3744  0.1455
  744TIP3    H223724   3.113   1.992  12.330 -0.5495  1.0783 -0.1590
  745TIP3   OH223725   3.322   6.425  12.021 -0.5716 -0.1514 -0.7460
  745TIP3    H123726   3.415   6.432  12.043 -0.0024 -3.3808 -1.6247
  745TIP3    H223727   3.305   6.500  11.964  1.9605 -0.3920 -1.9410
  746TIP3   OH223728   4.573   5.433  12.299 -0.0670  0.1769 -0.1957
  746TIP3    H123729   4.477   5.435  12.294 -0.1120 -1.0034 -0.1833
  746TIP3    H223730   4.601   5.518  12.264 -1.2065  1.8964  2.7106
  747TIP3   OH223731   5.949   0.245  15.063 -0.0150 -0.2108  0.3645
  747TIP3    H123732   5.878   0.263  15.000  0.3354 -0.9555 -0.2526
  747TIP3    H223733   5.936   0.154  15.088  0.2576 -0.1155  0.8630
  748TIP3   OH223734   5.062   6.762   6.507  0.2111 -0.1526 -0.2309
  748TIP3    H123735   4.995   6.822   6.538 -1.0983 -1.0791 -1.1469
  748TIP3    H223736   5.114   6.741   6.585 -0.8994  0.1620  0.6131
  749TIP3   OH223737   6.770   4.996  11.551  0.1079  0.0613 -0.3293
  749TIP3    H123738   6.760   4.994  11.647  0.3491 -1.4072 -0.3029
  749TIP3    H223739   6.860   4.966  11.537  0.7835  2.2446 -0.9620
  750TIP3   OH223740   0.705   0.132  15.519 -0.1471 -0.0795 -0.2740
  750TIP3    H123741   0.743   0.048  15.495  1.0893  0.0044  1.2980
  750TIP3    H223742   0.659   0.116  15.601 -0.6371  0.6058 -0.4010
  751TIP3   OH223743   3.410   0.826  17.264  0.4820  0.4767 -0.4641
  751TIP3    H123744   3.351   0.782  17.325 -1.2042  1.1051 -1.5661
  751TIP3    H223745   3.403   0.919  17.287  1.8947  0.4726  0.0768
  752TIP3   OH223746   1.485   0.327  16.095  0.4828 -0.6523  0.2416
  752TIP3    H123747   1.461   0.405  16.145  0.6730 -0.5162  0.1211
  752TIP3    H223748   1.410   0.310  16.038  1.8082  1.6128 -2.4244
  753TIP3   OH223749   0.550   3.781   2.823 -0.1086 -0.5124 -0.1542
  753TIP3    H123750   0.479   3.782   2.759 -0.4508  1.3374  0.1770
  753TIP3    H223751   0.629   3.772   2.771 -0.4613 -0.2440 -0.7509
  754TIP3   OH223752   1.325   3.728  15.517 -0.4221 -1.2631 -0.5049
  754TIP3    H123753   1.378   3.742  15.596 -0.1409  0.4713 -0.9454
  754TIP3    H223754   1.361   3.649  15.477  2.2441  0.1070 -1.0657
  755TIP3   OH223755   6.145   2.265  15.913 -0.4378  0.0721  0.4668
  755TIP3    H123756   6.106   2.331  15.971  0.3673  0.5695  0.4501
  755TIP3    H223757   6.070   2.232  15.862 -0.8440  1.0686  0.3793
  756TIP3   OH223758   3.211   6.105   6.258  0.0131 -0.3990 -0.2032
  756TIP3    H123759   3.145   6.120   6.190 -0.7738 -1.3111  0.3473
  756TIP3    H223760   3.178   6.151   6.334 -0.4465 -1.5959  0.3377
  757TIP3   OH223761   4.415   3.939  13.757  0.2096 -0.0368 -0.6000
  757TIP3    H123762   4.472   3.869  13.790  2.4871  2.6823  1.8799
  757TIP3    H223763   4.467   3.981  13.688  0.6430  1.4889  0.5933
  758TIP3   OH223764   5.500   0.495   3.713 -0.2774  0.1803  0.6108
  758TIP3    H123765   5.419   0.545   3.698 -0.6524 -0.3280  0.9035
  758TIP3    H223766   5.481   0.441   3.790  0.4454  0.2655  0.8598
  759TIP3   OH223767   3.276   5.850  11.929 -0.0610 -0.6372 -0.4113
  759TIP3    H123768   3.339   5.920  11.944 -0.3872 -0.3571 -0.3387
  759TIP3    H223769   3.313   5.774  11.974 -0.0187 -0.3426  0.0614
  760TIP3   OH223770   1.144   0.642  13.391  0.4408  0.1660 -0.3938
  760TIP3    H123771   1.074   0.608  13.448  0.1319 -0.2476 -0.9982
  760TIP3    H223772   1.216   0.580  13.401  0.4364  0.1686 -0.3471
  761TIP3   OH223773   2.403   2.534  13.275 -0.2026 -0.8004 -0.8236
  761TIP3    H123774   2.350   2.614  13.274  1.5393  0.4043 -2.5880
  761TIP3    H223775   2.432   2.522  13.185  2.7364 -1.2413  0.0788
  762TIP3   OH223776   5.238   3.443   3.285  0.0252  0.3941  0.7387
  762TIP3    H123777   5.149   3.443   3.319  0.3109  0.6347  1.5058
  762TIP3    H223778   5.294   3.443   3.363  0.6986  0.0141  0.2720
  763TIP3   OH223779   4.214   5.618   2.297  0.1920  0.7312  0.1389
  763TIP3    H123780   4.299   5.582   2.322 -1.0137 -1.9940  0.7468
  763TIP3    H223781   4.177   5.553   2.237 -2.0848  0.9922  1.1369
  764TIP3   OH223782   6.365   0.057  12.690 -0.0606  0.0565  0.2640
  764TIP3    H123783   6.303   0.029  12.623  0.0592  2.2442 -0.8279
  764TIP3    H223784   6.444   0.081  12.642  0.6913 -0.0753  1.3810
  765TIP3   OH223785   5.379   0.243  15.552 -0.2535  0.4155  0.1804
  765TIP3    H123786   5.320   0.276  15.619 -0.2364 -0.3251  0.5741
  765TIP3    H223787   5.327   0.181  15.501 -0.5138  1.6091 -1.0545
  766TIP3   OH223788   2.532   3.740  15.839  0.1518 -0.2815 -0.2330
  766TIP3    H123789   2.545   3.693  15.757  0.8400  0.9291 -0.8425
  766TIP3    H223790   2.482   3.679  15.894  0.2676 -1.3677 -1.2947
  767TIP3   OH223791   5.962   6.810  11.248  0.0728 -0.3910  0.5119
  767TIP3    H123792   5.984   6.754  11.322 -1.1744 -2.9910 -0.9371
  767TIP3    H223793   5.874   6.783  11.223 -0.1281  1.4643 -0.9957
  768TIP3   OH223794   1.251   3.416  12.178  0.7336 -0.1045 -0.8278
  768TIP3    H123795   1.297   3.469  12.112  1.3981  0.2389 -0.0946
  768TIP3    H223796   1.317   3.397  12.244 -0.3553  1.1864  0.7213
  769TIP3   OH223797   6.490   3.585  13.652 -0.1111  0.1806  0.1271
  769TIP3    H123798   6.580   3.616  13.650 -0.3840  0.9654 -0.3672
  769TIP3    H223799   6.492   3.503  13.602  0.2314  0.4614 -0.3252
  770TIP3   OH223800   5.034   0.068  11.422 -0.2910  0.1771 -0.8442
  770TIP3    H123801   5.055   0.160  11.438  0.6371 -0.1738  0.0205
  770TIP3    H223802   4.952   0.053  11.470  0.0797  0.3023 -0.1639
  771TIP3   OH223803   0.233   1.307   4.914  0.3505 -0.5679  0.0758
  771TIP3    H123804   0.144   1.319   4.881 -0.3875 -0.6314  1.9069
  771TIP3    H223805   0.222   1.293   5.008  2.3081 -0.5280  0.3598
  772TIP3   OH223806   0.965   3.595  16.099 -0.1902 -0.5354 -0.2744
  772TIP3    H123807   0.972   3.502  16.121 -0.9124 -1.1202 -2.3078
  772TIP3    H223808   1.052   3.619  16.067  0.0337 -0.4591  0.3748
  773TIP3   OH223809   1.022   3.344   3.289 -0.0344  0.0418  0.3392
  773TIP3    H123810   1.083   3.368   3.219  1.2842  0.8478  1.6844
  773TIP3    H223811   1.065   3.272   3.335 -1.6004 -1.5409 -0.5502
  774TIP3   OH223812   3.237   4.774   5.424  0.3234  0.2808  0.2755
  774TIP3    H123813   3.320   4.815   5.398 -0.3831  1.1090 -0.7596
  774TIP3    H223814   3.179   4.848   5.441 -0.6632 -0.2769 -0.5588
  775TIP3   OH223815   4.802   1.544   1.584 -0.0863  0.1646 -0.5071
  775TIP3    H123816   4.770   1.633   1.573  0.8139  0.3840 -1.5543
  775TIP3    H223817   4.744   1.491   1.529 -1.2300 -0.0616  0.8701
  776TIP3   OH223818   3.756   3.433  15.643  0.3669  0.3654 -0.2713
  776TIP3    H123819   3.800   3.501  15.593 -1.1677  2.1102  0.6410
  776TIP3    H223820   3.666   3.464  15.652 -0.2787 -1.5941  0.5572
  777TIP3   OH223821   4.148   6.261   2.256  0.3309  0.3525  0.0422
  777TIP3    H123822   4.238   6.229   2.261 -0.7234 -2.9948  1.2045
  777TIP3    H223823   4.114   6.226   2.174 -0.7639 -1.4805  1.1780
  778TIP3   OH223824   4.633   3.073   5.348 -0.2789  0.2580  0.2789
  778TIP3    H123825   4.707   3.081   5.288 -0.4219 -0.5585 -0.0202
  778TIP3    H223826   4.634   2.981   5.374 -2.2963 -0.2351 -1.1720
  779TIP3   OH223827   1.776   0.882   4.874 -0.3036 -0.8141 -0.1871
  779TIP3    H123828   1.818   0.934   4.941 -0.6018 -0.0822 -0.5510
  779TIP3    H223829   1.822   0.905   4.793 -1.3215 -0.0554 -0.5764
  780TIP3   OH223830   0.942   2.030  13.185  0.3082  0.3272  0.5671
  780TIP3    H123831   0.918   2.014  13.276 -1.1658  2.6915  0.6504
  780TIP3    H223832   0.993   2.111  13.187  1.9662 -0.6088 -0.5421
  781TIP3   OH223833   1.000   1.794   3.741 -0.3223 -0.5793  0.6395
  781TIP3    H123834   1.023   1.751   3.658  0.8477  0.2148  0.5157
  781TIP3    H223835   0.933   1.858   3.717  2.9949  2.8397 -0.7324
  782TIP3   OH223836   3.962   1.815  12.704  0.2428 -0.7835 -0.5747
  782TIP3    H123837   4.031   1.803  12.769 -0.7988  0.0591  0.7563
  782TIP3    H223838   3.977   1.904  12.670  0.1528 -0.8177 -0.7034
  783TIP3   OH223839   2.355   3.232  11.316 -0.5923 -0.1758 -0.5021
  783TIP3    H123840   2.372   3.298  11.248  1.3839  0.9584  0.9748
  783TIP3    H223841   2.427   3.170  11.308 -1.0411 -0.7361 -0.2442
  784TIP3   OH223842   6.810   6.747   2.882 -0.1825 -0.4145 -0.3308
  784TIP3    H123843   6.751   6.821   2.897  0.2728  0.0377 -0.7825
  784TIP3    H223844   6.851   6.765   2.798 -0.0404 -1.1639 -0.4299
  785TIP3   OH223845   3.227   6.768  15.431  0.3952  0.1555  0.3284
  785TIP3    H123846   3.201   6.837  15.491 -0.8434 -0.2292  0.2590
  785TIP3    H223847   3.146   6.742  15.388  1.1462 -0.0487 -1.0180
  786TIP3   OH223848   6.682   5.880   0.291 -0.8336 -0.2313  0.3249
  786TIP3    H123849   6.632   5.841   0.219 -0.0348  0.7748 -0.8248
  786TIP3    H223850   6.619   5.891   0.362 -2.2856  1.0623 -1.0966
  787TIP3   OH223851   2.986   3.650  13.300 -0.1145  0.6076  0.4936
  787TIP3    H123852   2.971   3.680  13.210  1.2636  0.7416  0.2950
  787TIP3    H223853   2.900   3.656  13.341 -1.0443 -0.5743 -1.1421
  788TIP3   OH223854   0.798   5.327   2.757 -0.1077  0.4164 -0.4705
  788TIP3    H123855   0.864   5.391   2.784  0.1360 -0.3704  0.9417
  788TIP3    H223856   0.715   5.373   2.766  0.0226  0.4037  1.0694
  789TIP3   OH223857   4.655   4.735  14.346 -1.0174  0.1842  0.2121
  789TIP3    H123858   4.656   4.822  14.305 -0.8052  0.3138  0.4876
  789TIP3    H223859   4.572   4.696  14.318 -0.9346  0.3209 -0.2308
  790TIP3   OH223860   4.348   0.890   5.278  0.1563  0.0239 -0.4889
  790TIP3    H123861   4.379   0.960   5.221 -2.2449  2.1902  0.6766
  790TIP3    H223862   4.262   0.866   5.243 -1.1643  1.0721  1.8251
  791TIP3   OH223863   1.051   5.697  13.764  0.4356  0.4418  0.8201
  791TIP3    H123864   1.142   5.724  13.776  0.4150  2.0244 -1.8166
  791TIP3    H223865   1.001   5.779  13.772 -0.7406 -0.3395  1.8204
  792TIP3   OH223866   2.855   4.974  16.928 -0.7942  0.3821  0.3952
  792TIP3    H123867   2.889   4.948  17.014 -0.2052 -3.5425 -0.7910
  792TIP3    H223868   2.762   4.988  16.943 -0.8097 -0.7814  1.6147
  793TIP3   OH223869   0.921   3.074   5.266 -0.3194  0.0526  0.3535
  793TIP3    H123870   0.907   3.018   5.190 -1.2975 -1.7251  1.7630
  793TIP3    H223871   0.898   3.019   5.341 -0.1163  1.9702  1.9045
  794TIP3   OH223872   1.830   3.222  11.568 -0.1127  0.4743  0.3219
  794TIP3    H123873   1.784   3.236  11.651  1.1909  0.7365  1.0263
  794TIP3    H223874   1.763   3.190  11.508 -1.2174  0.9282  1.2894
  795TIP3   OH223875   4.000   6.315   4.110  0.1238 -0.1453  0.3011
  795TIP3    H123876   4.052   6.274   4.041  1.3641  0.0022  1.1081
  795TIP3    H223877   3.911   6.317   4.075  0.7836  0.2997 -1.4560
  796TIP3   OH223878   1.521   3.208   1.270  0.2758 -0.8933  0.1802
  796TIP3    H123879   1.539   3.289   1.223  2.3787 -0.3274  1.7774
  796TIP3    H223880   1.533   3.139   1.205 -1.6429  0.0229 -1.2211
  797TIP3   OH223881   6.582   1.311   1.856  0.1350  0.2115  0.0721
  797TIP3    H123882   6.643   1.286   1.786  0.7003  0.4407  0.4778
  797TIP3    H223883   6.634   1.307   1.936 -0.1705  1.1849  0.3331
  798TIP3   OH223884   4.280   1.203   0.866 -0.5600  0.4305 -0.2487
  798TIP3    H123885   4.282   1.289   0.908  0.9267 -1.0042  2.9381
  798TIP3    H223886   4.214   1.154   0.915 -0.2722 -0.7279 -0.9800
  799TIP3   OH223887   4.461   6.777   5.347 -0.0428  0.5062 -0.3803
  799TIP3    H123888   4.518   6.701   5.360  0.3923  0.8204 -0.4029
  799TIP3    H223889   4.504   6.848   5.396  0.7060  1.2815 -2.0723
  800TIP3   OH223890   0.320   6.660  14.045 -0.5277 -0.1617 -0.3608
  800TIP3    H123891   0.240   6.702  14.015 -0.4402 -1.3783 -2.5314
  800TIP3    H223892   0.304   6.567  14.034  1.4841 -0.4006 -1.8429
  801TIP3   OH223893   1.244   4.768  17.075  0.4674  0.0314  0.0417
  801TIP3    H123894   1.307   4.762  17.003 -0.3590 -0.5639 -0.6573
  801TIP3    H223895   1.225   4.677  17.097 -0.1069  0.2001  0.2717
  802TIP3   OH223896   3.503   6.117  16.422 -0.1656 -0.0703  0.3711
  802TIP3    H123897   3.418   6.148  16.392 -0.2235  0.2890  0.8910
  802TIP3    H223898   3.508   6.027  16.392 -1.1955 -0.4419  1.2740
  803TIP3   OH223899   3.595   0.571   3.283  0.2641 -0.1121  0.1453
  803TIP3    H123900   3.683   0.607   3.280 -0.3795  1.4865 -1.0103
  803TIP3    H223901   3.545   0.625   3.221 -1.4621 -1.1278  0.5926
  804TIP3   OH223902   2.618   4.111  13.034  0.2127 -0.1668 -0.1452
  804TIP3    H123903   2.578   4.159  13.107 -1.5350 -1.4448 -0.2109
  804TIP3    H223904   2.573   4.143  12.956  0.8631 -0.0627 -0.4878
  805TIP3   OH223905   2.437   2.509   5.631 -0.5381 -0.2598  0.1667
  805TIP3    H123906   2.445   2.506   5.726 -0.1249 -1.5018  0.1048
  805TIP3    H223907   2.479   2.429   5.600  0.8412  0.9040 -1.1759
  806TIP3   OH223908   0.059   1.621   2.042 -0.0526  0.2600 -0.3052
  806TIP3    H123909   0.123   1.636   1.972 -0.1234  0.9678 -0.2226
  806TIP3    H223910   0.110   1.629   2.123 -0.0468 -0.1801 -0.2630
  807TIP3   OH223911   2.151   4.594  11.106  0.0543 -0.1660 -0.0585
  807TIP3    H123912   2.190   4.606  11.019 -0.7027  0.6367 -0.3002
  807TIP3    H223913   2.187   4.510  11.137  0.8942 -0.1110 -0.8335
  808TIP3   OH223914   2.658   3.329  13.952 -0.2197  0.4132 -0.9431
  808TIP3    H123915   2.593   3.384  13.995  0.6323  0.3122  0.5467
  808TIP3    H223916   2.608   3.255  13.916 -0.8265 -0.2783  1.1835
  809TIP3   OH223917   4.428   2.431   5.189 -0.2894  0.1669 -0.6766
  809TIP3    H123918   4.338   2.460   5.204 -0.2495  0.6046 -1.2726
  809TIP3    H223919   4.481   2.510   5.202  0.4592 -0.8107  3.5611
  810TIP3   OH223920   0.090   0.695  11.492 -0.0598 -0.2364 -0.0111
  810TIP3    H123921   0.142   0.753  11.547  0.4251 -0.3599 -0.3340
  810TIP3    H223922   0.115   0.606  11.518 -2.9087 -0.4482  2.5584
  811TIP3   OH223923   3.218   6.594   6.554  0.0163 -0.1210 -0.0472
  811TIP3    H123924   3.271   6.558   6.483 -0.1502  1.7031 -1.1378
  811TIP3    H223925   3.276   6.654   6.599 -0.0503 -0.8503  1.0475
  812TIP3   OH223926   4.535   3.384  13.521  0.5330  0.0217 -0.0454
  812TIP3    H123927   4.616   3.334  13.532  0.8601  0.1280 -1.7606
  812TIP3    H223928   4.559   3.473  13.545  0.8854  0.0161 -0.3623
  813TIP3   OH223929   5.458   6.482   1.837  0.0653  0.4313  0.3294
  813TIP3    H123930   5.507   6.552   1.795  0.6355 -1.3672 -2.2464
  813TIP3    H223931   5.468   6.498   1.931  1.1206  3.0759 -0.1558
  814TIP3   OH223932   5.176   3.016   1.669  0.1361 -0.6324  0.0164
  814TIP3    H123933   5.100   2.984   1.717 -1.3788  0.3905 -1.5712
  814TIP3    H223934   5.149   3.015   1.577  1.5699  0.9519 -0.4840
  815TIP3   OH223935   4.704   1.160  12.152 -0.5474 -0.3068  0.0848
  815TIP3    H123936   4.694   1.065  12.143  0.3446 -0.3305 -0.7196
  815TIP3    H223937   4.797   1.174  12.164 -0.5835  0.5242 -0.5243
  816TIP3   OH223938   0.467   0.911  16.544  0.1904  0.6902 -1.0385
  816TIP3    H123939   0.550   0.948  16.576  0.1796 -0.2281  0.1254
  816TIP3    H223940   0.434   0.977  16.483  0.8049  2.0095 -0.0151
  817TIP3   OH223941   4.124   0.340  15.382  0.3739 -0.2837  0.0110
  817TIP3    H123942   4.064   0.326  15.455  1.6515 -1.3457  0.8812
  817TIP3    H223943   4.187   0.405  15.414  0.4898 -0.1659 -0.4367
  818TIP3   OH223944   6.337   6.483  11.126 -0.0892 -0.2949 -0.0159
  818TIP3    H123945   6.298   6.421  11.188 -1.0694  0.4314  0.1122
  818TIP3    H223946   6.278   6.481  11.050  0.5291 -0.3986 -0.4981
  819TIP3   OH223947   6.135   0.687   1.704 -0.0724  0.5569  0.2453
  819TIP3    H123948   6.094   0.702   1.788 -0.7338 -0.0560  0.0372
  819TIP3    H223949   6.218   0.735   1.709  0.3640 -0.2891  1.6070
  820TIP3   OH223950   3.314   5.487   6.557 -0.1863 -0.3166 -0.3299
  820TIP3    H123951   3.292   5.559   6.617 -0.5236 -0.3433 -0.4180
  820TIP3    H223952   3.231   5.442   6.542  0.0213 -0.7165 -0.2885
  821TIP3   OH223953   3.549   5.939  11.216 -0.2492  0.4816 -0.5308
  821TIP3    H123954   3.602   5.887  11.155 -1.0714  0.9049 -1.6296
  821TIP3    H223955   3.573   6.030  11.198 -0.5665  0.6173 -0.2851
  822TIP3   OH223956   2.758   6.026  15.940  0.0003  0.1619  0.1612
  822TIP3    H123957   2.692   5.958  15.924 -0.4511  0.0158  2.3026
  822TIP3    H223958   2.713   6.108  15.921 -1.2115  0.1291  2.5221
  823TIP3   OH223959   1.069   4.186   0.820  0.2322  0.0346 -0.4797
  823TIP3    H123960   1.054   4.253   0.753 -0.3217  0.5945  0.1931
  823TIP3    H223961   1.141   4.133   0.785  0.4499  0.7694 -1.1772
  824TIP3   OH223962   3.053   2.221  16.234 -0.1619  0.2881  0.2950
  824TIP3    H123963   3.066   2.293  16.172  0.3087  0.4608  0.5873
  824TIP3    H223964   2.973   2.244  16.281 -0.9928 -0.2578 -0.8093
  825TIP3   OH223965   0.163   3.404   0.527 -0.0882 -0.0961 -0.6717
  825TIP3    H123966   0.254   3.433   0.525  0.4559 -1.7126 -1.7208
  825TIP3    H223967   0.160   3.331   0.464 -1.8091 -0.9087  0.2842
  826TIP3   OH223968   4.769   0.664  15.675 -0.4976  0.2090  0.0350
  826TIP3    H123969   4.799   0.746  15.636  1.3986 -0.1878  0.5613
  826TIP3    H223970   4.836   0.643  15.740 -1.3611 -1.3623  0.4541
  827TIP3   OH223971   1.160   0.418  15.652  0.2064 -0.7859 -0.8166
  827TIP3    H123972   1.238   0.457  15.692 -0.6778 -0.7372  0.9533
  827TIP3    H223973   1.087   0.467  15.689 -0.8043 -2.5809 -0.3163
  828TIP3   OH223974   1.666   6.373  13.983  0.4842 -0.0691  0.7879
  828TIP3    H123975   1.669   6.464  14.011  0.8997  0.4706 -0.9072
  828TIP3    H223976   1.758   6.347  13.976  0.4438  0.2200 -1.2285
  829TIP3   OH223977   3.302   3.661   4.644 -0.2722  0.0646  0.0696
  829TIP3    H123978   3.215   3.695   4.664  0.3183  1.8095 -0.1078
  829TIP3    H223979   3.289   3.602   4.571 -1.5833 -1.4485  1.4445
  830TIP3   OH223980   1.430   6.790  12.173 -0.6530 -0.3297  0.6033
  830TIP3    H123981   1.420   6.868  12.227 -0.8522  1.1524 -1.4523
  830TIP3    H223982   1.412   6.717  12.232 -0.3838  1.1467  2.6163
  831TIP3   OH223983   0.027   2.082   3.180 -0.6536 -0.4017  0.0685
  831TIP3    H123984  -0.022   2.003   3.155  2.5265 -2.1937 -0.9980
  831TIP3    H223985   0.107   2.049   3.220 -0.2798  2.4023  1.9249
  832TIP3   OH223986   4.925   6.044  11.747 -0.0495  0.2236  0.3527
  832TIP3    H123987   4.849   5.987  11.759 -0.5719  0.8355  0.0072
  832TIP3    H223988   4.994   5.986  11.714 -0.1481 -0.4667  1.3403
  833TIP3   OH223989   1.017   6.036  13.073  0.1800 -0.1508  0.3427
  833TIP3    H123990   0.997   5.992  13.155 -0.6474 -2.4974 -1.0060
  833TIP3    H223991   0.932   6.056  13.034  0.4677 -1.4454 -1.0655
  834TIP3   OH223992   0.826   3.816   3.539  1.0384  0.0470 -0.6921
  834TIP3    H123993   0.899   3.878   3.539  0.1259  1.1961  0.8621
  834TIP3    H223994   0.814   3.794   3.631 -0.1733 -0.6080 -0.9912
  835TIP3   OH223995   1.620   5.758  13.322 -0.2997  0.0457 -0.1347
  835TIP3    H123996   1.692   5.794  13.374 -0.4877  0.1146  0.0823
  835TIP3    H223997   1.541   5.787  13.368 -0.4541 -1.1005  0.3455
  836TIP3   OH223998   2.214   4.129  16.262 -0.9498 -0.7665 -0.4092
  836TIP3    H123999   2.276   4.060  16.238 -0.0665 -0.7371  1.5450
  836TIP3    H224000   2.204   4.182  16.183  1.5830 -0.7424 -0.7951
  837TIP3   OH224001   5.440   2.603  16.069 -0.4401  0.0690 -0.0782
  837TIP3    H124002   5.372   2.539  16.090 -0.3433 -0.0797 -0.2151
  837TIP3    H224003   5.395   2.688  16.073 -0.1918  0.1537  1.7637
  838TIP3   OH224004   0.426   4.839   5.137  0.3699  0.1773  0.1951
  838TIP3    H124005   0.387   4.850   5.051  2.4206 -0.1966 -0.8520
  838TIP3    H224006   0.389   4.909   5.190  0.5960  1.6928 -1.5726
  839TIP3   OH224007   5.028   6.721  13.970 -0.4015 -0.6749  0.1460
  839TIP3    H124008   5.088   6.680  13.909  0.4555  1.1046 -0.2603
  839TIP3    H224009   4.979   6.785  13.918  1.4353  2.0174  1.4729
  840TIP3   OH224010   2.265   1.501  16.156 -0.0889  0.0617 -0.1191
  840TIP3    H124011   2.275   1.589  16.120 -0.3434  0.8204  1.5792
  840TIP3    H224012   2.296   1.443  16.086  0.1058  1.4798 -1.2647
  841TIP3   OH224013   0.581   6.376  14.076  0.3719  0.0551 -0.0973
  841TIP3    H124014   0.546   6.435  14.143 -0.4758  0.8874 -1.2362
  841TIP3    H224015   0.672   6.403  14.066  0.9894 -1.1240  1.8093
  842TIP3   OH224016   6.215   1.958   2.708 -0.1672  0.3579  0.8669
  842TIP3    H124017   6.160   2.030   2.740 -1.1407 -0.1951  0.4910
  842TIP3    H224018   6.155   1.884   2.700  0.5540 -0.1583  0.0426
  843TIP3   OH224019   5.699   6.606   2.006  0.9325  0.4060  0.3395
  843TIP3    H124020   5.698   6.616   1.911  0.7112 -0.5898  0.2256
  843TIP3    H224021   5.738   6.519   2.020  0.8507  0.4971  1.1477
  844TIP3   OH224022   3.728   2.201  17.186 -0.4079  0.1056 -0.1652
  844TIP3    H124023   3.782   2.279  17.200  0.2870 -0.6701  1.9194
  844TIP3    H224024   3.791   2.130  17.174 -0.8367 -0.8665  2.5988
  845TIP3   OH224025   5.400   4.199   1.428  0.3526  0.2223  0.1866
  845TIP3    H124026   5.495   4.210   1.431  0.3743  0.4225 -0.8950
  845TIP3    H224027   5.368   4.283   1.395 -0.0736 -0.3612 -0.9230
  846TIP3   OH224028   4.980   3.761   3.204  0.0069 -0.6601  0.0839
  846TIP3    H124029   5.061   3.804   3.176 -0.2871 -0.0700  0.1409
  846TIP3    H224030   4.948   3.717   3.125 -0.3988  0.3430 -0.3162
  847TIP3   OH224031   4.398   0.468   2.391 -0.0369  0.1655  0.1436
  847TIP3    H124032   4.450   0.548   2.382  0.3931 -0.2785 -1.6323
  847TIP3    H224033   4.463   0.398   2.397 -0.3994 -0.2773 -0.8523
  848TIP3   OH224034   4.555   4.787  14.854  0.0321 -0.3616  0.7300
  848TIP3    H124035   4.641   4.746  14.844 -0.0690 -0.4767  0.3291
  848TIP3    H224036   4.532   4.817  14.766  0.3669  1.0773  1.0896
  849TIP3   OH224037   4.167   2.397  13.152 -0.1607  0.3041  0.5030
  849TIP3    H124038   4.114   2.451  13.093  2.3968  3.8497  1.1330
  849TIP3    H224039   4.130   2.414  13.239  0.5705  0.9951  0.6890
  850TIP3   OH224040   5.333   4.757  16.326 -0.4640  0.1218 -0.2907
  850TIP3    H124041   5.296   4.831  16.277 -1.9325  0.1896  0.8424
  850TIP3    H224042   5.269   4.687  16.315 -0.6209  0.0089  1.1416
  851TIP3   OH224043   4.517   3.584   2.852 -0.0298  0.4663  0.0476
  851TIP3    H124044   4.535   3.524   2.779  0.1549  0.3525  0.1870
  851TIP3    H224045   4.423   3.601   2.846 -0.6638 -1.9372  1.5843
  852TIP3   OH224046   5.433   3.402   3.003  0.2729 -0.0234 -0.3754
  852TIP3    H124047   5.523   3.413   3.035  0.1817  1.2912 -0.5022
  852TIP3    H224048   5.381   3.462   3.057 -0.7550 -1.6782  0.5419
  853TIP3   OH224049   4.382   4.359  14.504  0.4783 -1.2108 -0.1289
  853TIP3    H124050   4.325   4.283  14.492 -0.3037 -0.7729  0.6303
  853TIP3    H224051   4.352   4.398  14.586 -1.3487  1.7508 -1.9893
  854TIP3   OH224052   1.843   5.960   2.794 -0.6467 -0.8082  0.0924
  854TIP3    H124053   1.816   5.878   2.753 -0.3402 -1.1261  0.5217
  854TIP3    H224054   1.871   5.935   2.882 -0.8398 -0.2000  0.3332
  855TIP3   OH224055   5.518   6.561   4.696 -0.2236  0.7382 -0.5056
  855TIP3    H124056   5.510   6.585   4.789  1.0025 -0.1115 -0.1539
  855TIP3    H224057   5.607   6.527   4.688  0.3957  2.5825 -2.4242
  856TIP3   OH224058   3.802   5.364  11.497 -0.2190  0.0266  0.1733
  856TIP3    H124059   3.731   5.406  11.544  0.0157  1.0508 -0.3563
  856TIP3    H224060   3.878   5.371  11.556 -0.0164  0.9724 -0.1819
  857TIP3   OH224061   6.602   3.931   3.934 -0.1264 -0.1546 -0.8003
  857TIP3    H124062   6.522   3.903   3.979 -0.0684  0.6028 -0.2042
  857TIP3    H224063   6.628   3.855   3.881 -0.5285 -0.8641 -0.0091
  858TIP3   OH224064   4.336   6.000  15.535 -0.6669 -0.8487 -0.3143
  858TIP3    H124065   4.338   6.080  15.484 -1.1565 -0.6644 -0.0541
  858TIP3    H224066   4.243   5.980  15.545 -0.5489 -2.1801 -1.4964
  859TIP3   OH224067   0.117   6.149  14.640  0.2034 -0.7643 -0.4224
  859TIP3    H124068   0.154   6.067  14.608 -0.6645 -0.7324 -1.5482
  859TIP3    H224069   0.063   6.182  14.568  0.7706  0.9672 -0.1213
  860TIP3   OH224070   2.779   4.951   4.934  0.0146 -0.1943  0.0421
  860TIP3    H124071   2.750   4.910   4.852 -1.7889 -1.6067  1.3034
  860TIP3    H224072   2.712   5.017   4.952  0.4061  0.1112  0.3806
  861TIP3   OH224073   1.473   3.572   2.178  0.7916  0.3000 -0.2570
  861TIP3    H124074   1.472   3.615   2.093  0.9013  0.9205  0.0480
  861TIP3    H224075   1.500   3.640   2.239  1.1396 -0.2493  0.2148
  862TIP3   OH224076   3.222   3.883   1.874 -0.3147  0.6305  0.2788
  862TIP3    H124077   3.222   3.795   1.911 -1.0239  0.6298  0.2833
  862TIP3    H224078   3.209   3.870   1.780 -2.6931  0.8043  0.5208
  863TIP3   OH224079   5.780   3.077   4.233  0.4469  0.4123  0.3455
  863TIP3    H124080   5.709   3.038   4.183 -1.3152  4.2326 -0.5482
  863TIP3    H224081   5.745   3.086   4.321  1.2571 -0.9114  0.8221
  864TIP3   OH224082   2.926   6.471   0.573 -0.1246  0.2035 -0.6843
  864TIP3    H124083   2.831   6.461   0.581 -0.1024  1.0526  1.3727
  864TIP3    H224084   2.940   6.490   0.480 -2.0279  0.5765 -0.9538
  865TIP3   OH224085   4.328   6.769   4.072 -0.5440 -0.6106 -0.7815
  865TIP3    H124086   4.294   6.840   4.017  1.2227  0.5123 -0.5105
  865TIP3    H224087   4.364   6.706   4.010  0.8288  0.3300 -1.0003
  866TIP3   OH224088   3.721   5.364  11.140  0.0040 -0.3607  0.2854
  866TIP3    H124089   3.750   5.426  11.207 -0.4483  0.4396 -0.2325
  866TIP3    H224090   3.738   5.409  11.057 -0.3900 -0.9051 -0.0983
  867TIP3   OH224091   5.091   3.522  15.238  1.2772  0.1931  0.0921
  867TIP3    H124092   5.152   3.548  15.308  0.8921  0.9772  0.1461
  867TIP3    H224093   5.071   3.603  15.192 -0.1211  0.0422  0.3934
  868TIP3   OH224094   3.851   3.020   4.845 -0.1414  0.6810 -0.6284
  868TIP3    H124095   3.761   3.052   4.842 -0.0247  0.9908 -2.6053
  868TIP3    H224096   3.871   2.997   4.754  2.0174  1.3092 -0.3764
  869TIP3   OH224097   3.920   4.772  16.923  0.4668  0.1531  0.5337
  869TIP3    H124098   3.980   4.845  16.909  1.5512 -0.8706 -0.3583
  869TIP3    H224099   3.871   4.796  17.002  3.7770 -0.0270  2.8604
  870TIP3   OH224100   6.344   4.305  10.587 -0.3767  0.3350  0.0303
  870TIP3    H124101   6.427   4.258  10.579  0.3579  1.5886  0.0644
  870TIP3    H224102   6.278   4.236  10.590  0.6750 -0.6970  0.2494
  871TIP3   OH224103   2.721   0.151  17.057  0.5362  0.6480 -0.1687
  871TIP3    H124104   2.701   0.104  17.138 -1.9668  2.5315  0.3984
  871TIP3    H224105   2.812   0.179  17.067  1.2744 -1.7399  0.5753
  872TIP3   OH224106   6.280   0.461  17.151  0.1529 -0.4434 -0.0108
  872TIP3    H124107   6.211   0.458  17.085  0.7093 -2.4327 -0.5786
  872TIP3    H224108   6.263   0.542  17.200 -1.8796 -0.2985 -0.8447
  873TIP3   OH224109   3.141   6.356   5.579 -0.2947  0.4285  0.0778
  873TIP3    H124110   3.191   6.413   5.637 -0.2360 -1.0436  1.5373
  873TIP3    H224111   3.049   6.374   5.599 -0.2721 -0.7588  1.3773
  874TIP3   OH224112   5.782   2.569  10.550 -0.1588  0.6458  0.1571
  874TIP3    H124113   5.723   2.528  10.486  0.5108 -0.8210  0.4302
  874TIP3    H224114   5.867   2.570  10.506  0.1695  0.2310  0.7765
  875TIP3   OH224115   4.119   1.070  13.309 -0.2077 -0.4619  0.2093
  875TIP3    H124116   4.118   1.023  13.393 -0.4555  1.1604  1.1722
  875TIP3    H224117   4.029   1.102  13.299 -0.2334 -0.8420 -0.8038
  876TIP3   OH224118   5.919   4.541   2.426  0.1199  0.1423  0.0059
  876TIP3    H124119   5.823   4.543   2.432  0.0580 -0.6327 -0.5606
  876TIP3    H224120   5.940   4.599   2.353  0.1286  0.7401  0.4730
  877TIP3   OH224121   0.355   5.753   3.614 -0.1834  0.0558 -1.0248
  877TIP3    H124122   0.298   5.724   3.685 -0.5241  1.2054 -0.8122
  877TIP3    H224123   0.417   5.681   3.602 -1.7557 -1.2868 -1.3557
  878TIP3   OH224124   3.409   2.791   4.780  0.1961 -0.3186  0.2894
  878TIP3    H124125   3.366   2.706   4.794 -0.2845 -0.0987  0.1850
  878TIP3    H224126   3.487   2.770   4.730 -0.4016 -0.5973 -0.5496
  879TIP3   OH224127   6.739   6.292   6.408 -0.0943 -0.1193 -0.5530
  879TIP3    H124128   6.699   6.234   6.343  1.4149 -1.8768  0.0092
  879TIP3    H224129   6.682   6.286   6.484  0.1452 -1.0448 -0.4343
  880TIP3   OH224130   1.619   2.757   2.292 -0.0572  0.2238  0.7769
  880TIP3    H124131   1.659   2.686   2.243 -0.3954 -0.5238  1.5706
  880TIP3    H224132   1.544   2.717   2.337  0.3178  0.8533  2.0138
  881TIP3   OH224133   0.855   6.040  14.771 -0.0551 -0.0787 -0.3063
  881TIP3    H124134   0.883   6.131  14.762  0.6498 -0.5122 -3.6222
  881TIP3    H224135   0.856   6.025  14.866  0.2932  3.1693  0.3412
  882TIP3   OH224136   5.948   6.116   2.430 -0.5757  0.3886 -0.1718
  882TIP3    H124137   5.884   6.053   2.396  1.0150 -0.5439 -1.6589
  882TIP3    H224138   5.973   6.168   2.353 -0.4228  1.5427  0.6383
  883TIP3   OH224139   4.092   6.353   3.421  0.1235 -0.2075 -0.0484
  883TIP3    H124140   4.010   6.350   3.470  1.1755  0.8111  1.9316
  883TIP3    H224141   4.095   6.441   3.384 -0.7969 -1.0647 -2.3181
  884TIP3   OH224142   0.326   3.964  12.387  0.2407  0.2851 -0.1717
  884TIP3    H124143   0.395   3.979  12.452  0.4362  0.6615 -0.4608
  884TIP3    H224144   0.277   4.047  12.385 -1.1476 -0.4697  1.1166
  885TIP3   OH224145   1.234   1.645   0.357  0.0062  0.5111 -0.0007
  885TIP3    H124146   1.232   1.581   0.286 -1.1937  1.4089 -0.8071
  885TIP3    H224147   1.307   1.617   0.412  0.3437 -0.7697 -1.0487
  886TIP3   OH224148   1.214   2.474   4.668  0.3158 -0.3520 -0.3025
  886TIP3    H124149   1.307   2.495   4.682  0.8716 -2.1079 -1.0856
  886TIP3    H224150   1.181   2.547   4.616  1.3166  0.1870 -0.2229
  887TIP3   OH224151   3.358   5.005  10.977 -0.1705  0.5899 -0.3185
  887TIP3    H124152   3.280   5.039  10.934  0.1248  0.4571 -0.9712
  887TIP3    H224153   3.421   5.077  10.974  0.2372  0.2125 -1.1320
  888TIP3   OH224154   0.256   2.216   0.618 -0.0020  0.0070  0.2900
  888TIP3    H124155   0.281   2.295   0.665 -0.9072  1.1090 -1.0000
  888TIP3    H224156   0.176   2.186   0.661 -0.0347  0.1914  0.3579
  889TIP3   OH224157   4.385   0.416  13.570 -0.5050 -0.0632  0.5464
  889TIP3    H124158   4.468   0.394  13.529 -0.4387  0.4265  0.4154
  889TIP3    H224159   4.393   0.381  13.659  0.4926  1.3861  1.0687
  890TIP3   OH224160   3.577   2.724   1.552  0.2991  0.4276 -0.3544
  890TIP3    H124161   3.608   2.643   1.592 -0.7690 -0.7957 -1.9086
  890TIP3    H224162   3.483   2.723   1.568 -0.1120  0.0486 -2.5639
  891TIP3   OH224163   3.378   4.168   2.550  0.1819  0.7420 -0.2314
  891TIP3    H124164   3.399   4.193   2.460  1.0526  1.7571  0.2473
  891TIP3    H224165   3.410   4.240   2.604  0.8862 -0.4557  1.0112
  892TIP3   OH224166   0.745   3.300   5.412  0.1116  0.3351 -0.1690
  892TIP3    H124167   0.703   3.214   5.409 -0.2177  0.4816  0.1226
  892TIP3    H224168   0.714   3.339   5.494 -0.0862  0.9066 -0.5080
  893TIP3   OH224169   5.297   2.440  11.310 -0.0602 -0.1346  0.7455
  893TIP3    H124170   5.252   2.522  11.291  0.1042 -0.5812 -1.9537
  893TIP3    H224171   5.228   2.380  11.337 -0.3402  0.5198  1.5410
  894TIP3   OH224172   5.612   5.393   6.146 -0.0999 -0.5473  0.1820
  894TIP3    H124173   5.616   5.401   6.241 -0.3350  0.4478  0.1284
  894TIP3    H224174   5.650   5.308   6.127  2.2231  0.2125  1.0081
  895TIP3   OH224175   4.468   1.540   5.514 -0.6656 -0.0039  0.4144
  895TIP3    H124176   4.512   1.529   5.429  2.3440 -0.7802  1.9478
  895TIP3    H224177   4.424   1.625   5.507  0.1504  0.3170 -1.6336
  896TIP3   OH224178   2.079   6.758   3.656  0.0845 -0.2216 -0.3584
  896TIP3    H124179   2.090   6.832   3.596  1.3500 -0.7653 -0.8348
  896TIP3    H224180   1.987   6.760   3.680  0.2340  1.9538  0.2342
  897TIP3   OH224181   4.886   0.246  14.556  0.2771  0.0235  0.1047
  897TIP3    H124182   4.916   0.230  14.466  0.7284 -0.4798  0.3382
  897TIP3    H224183   4.797   0.278  14.546  0.6331  0.8587 -0.5736
  898TIP3   OH224184   6.761   0.873   2.730  0.1058 -0.0256 -0.2191
  898TIP3    H124185   6.741   0.836   2.816  0.1411  0.5807  0.0576
  898TIP3    H224186   6.676   0.877   2.686 -0.1377  0.9519  0.3145
  899TIP3   OH224187   0.705   1.037  13.878  0.3555 -0.4717  0.0804
  899TIP3    H124188   0.725   1.025  13.971  0.9955 -1.5737 -0.1834
  899TIP3    H224189   0.612   1.014  13.871  0.0317  0.5920  0.5974
  900TIP3   OH224190   3.434   5.160   5.778  1.0554  0.2629  0.0324
  900TIP3    H124191   3.497   5.230   5.762 -1.1864  2.1248 -1.2670
  900TIP3    H224192   3.408   5.173   5.869  0.9224  0.8926 -0.0908
  901TIP3   OH224193   2.985   0.630   4.093  0.3736  0.0711  0.0639
  901TIP3    H124194   2.946   0.710   4.058  0.0236  0.6607  1.6862
  901TIP3    H224195   2.990   0.571   4.019  1.2357  1.8069 -1.3433
  902TIP3   OH224196   6.304   0.325   5.656 -0.0982 -0.1598 -0.2351
  902TIP3    H124197   6.316   0.313   5.750 -0.4331 -2.0199 -0.3811
  902TIP3    H224198   6.378   0.378   5.629  0.6807 -0.6181  0.8960
  903TIP3   OH224199   2.089   3.171   1.395 -0.2223  0.8510 -0.1057
  903TIP3    H124200   2.005   3.170   1.348  0.5398 -1.0173 -1.5418
  903TIP3    H224201   2.094   3.259   1.432 -1.5430  1.9567 -2.3438
  904TIP3   OH224202   6.418   5.208  14.933 -0.2073 -0.0414 -0.2869
  904TIP3    H124203   6.470   5.207  15.013 -0.7104 -0.3642  0.0360
  904TIP3    H224204   6.338   5.255  14.956 -0.6472 -0.7130 -0.4074
  905TIP3   OH224205   3.347   2.608  14.591  0.0718  0.4448  0.8257
  905TIP3    H124206   3.280   2.558  14.545  0.5852 -1.1318  1.6887
  905TIP3    H224207   3.304   2.642  14.669  0.2347 -0.6099  1.4058
  906TIP3   OH224208   1.160   1.956  16.789 -0.6115  0.6258 -0.3294
  906TIP3    H124209   1.083   1.922  16.744 -1.1094  2.2133 -0.7216
  906TIP3    H224210   1.228   1.961  16.722  0.4812 -2.4576  0.3653
  907TIP3   OH224211   3.678   2.910  13.236 -0.1419 -0.0347  0.4000
  907TIP3    H124212   3.726   2.868  13.308 -0.6391 -1.0439  0.1550
  907TIP3    H224213   3.722   2.994  13.224  0.3084 -0.0940  1.5060
  908TIP3   OH224214   4.417   3.834   3.717 -0.1839 -0.0501  0.4820
  908TIP3    H124215   4.360   3.805   3.646  0.3618  1.9986 -0.8549
  908TIP3    H224216   4.501   3.853   3.675 -0.0387  1.8590  1.5226
  909TIP3   OH224217   2.566   2.526  13.042 -1.0663  0.4589 -0.5079
  909TIP3    H124218   2.601   2.437  13.053 -3.1847 -0.3163  0.6220
  909TIP3    H224219   2.636   2.574  12.997  0.9484 -1.2332  0.6110
  910TIP3   OH224220   4.063   5.394   4.482 -0.0110 -0.5135 -0.1128
  910TIP3    H124221   4.005   5.363   4.413 -0.8680 -0.6909  0.6734
  910TIP3    H224222   4.034   5.348   4.560  0.7856 -0.1271  0.4181
  911TIP3   OH224223   5.612   5.213   1.520 -0.4311 -0.5265 -0.2844
  911TIP3    H124224   5.524   5.201   1.558 -0.7712 -0.7229 -1.1132
  911TIP3    H224225   5.656   5.271   1.582 -0.7436 -1.3621  0.7556
  912TIP3   OH224226   6.507   3.281   3.575  0.2239 -0.3035  0.0755
  912TIP3    H124227   6.453   3.360   3.586 -0.7535 -0.4977 -2.5794
  912TIP3    H224228   6.524   3.251   3.665 -0.8611  1.9076  1.1135
  913TIP3   OH224229   5.672   3.815   2.916 -0.2277 -0.2692 -0.1959
  913TIP3    H124230   5.724   3.765   2.853 -0.1504  1.3323 -1.4778
  913TIP3    H224231   5.733   3.882   2.948 -0.6365 -0.2956  0.6482
  914TIP3   OH224232   2.683   2.538  13.366 -0.3386 -0.6425 -0.0412
  914TIP3    H124233   2.696   2.632  13.350  0.1587 -0.7834 -0.4571
  914TIP3    H224234   2.594   2.521  13.335  0.5177 -0.8741 -2.5607
  915TIP3   OH224235   5.165   3.787   5.008  0.0721 -0.6182  0.1500
  915TIP3    H124236   5.165   3.853   5.077 -1.1854 -0.7934  0.3328
  915TIP3    H224237   5.211   3.712   5.047 -0.8266 -0.7988  0.9049
  916TIP3   OH224238   2.449   3.113  11.987  0.4280  0.6486 -0.6767
  916TIP3    H124239   2.384   3.113  11.917 -0.3776  1.0651  0.0569
  916TIP3    H224240   2.488   3.025  11.983 -3.0086 -1.1758  1.4389
  917TIP3   OH224241   3.025   3.611   0.780 -0.9796  0.3254  0.3284
  917TIP3    H124242   2.987   3.634   0.865  0.6002  0.7072  0.9718
  917TIP3    H224243   3.065   3.692   0.749  0.1601 -0.2782  0.1656
  918TIP3   OH224244   3.119   2.613  15.140  0.1492  0.1023  0.1694
  918TIP3    H124245   3.024   2.617  15.129  0.1158  1.2465  0.8115
  918TIP3    H224246   3.139   2.683  15.201  1.2844 -0.8813  0.9559
  919TIP3   OH224247   3.762   2.499  16.793  0.0043  0.3833  0.2484
  919TIP3    H124248   3.716   2.495  16.877  0.0846 -0.3485  0.2655
  919TIP3    H224249   3.793   2.589  16.787 -2.5005  1.2823 -0.3481
  920TIP3   OH224250   2.979   4.200  11.916  0.4680  0.4163  0.5703
  920TIP3    H124251   2.957   4.289  11.945 -0.8554 -0.6171  3.0525
  920TIP3    H224252   2.916   4.144  11.962  1.6038 -1.8670 -0.5010
  921TIP3   OH224253   3.184   4.292   5.982 -0.1777  0.4266  0.4632
  921TIP3    H124254   3.267   4.338   5.997  0.2945 -0.5395  0.9114
  921TIP3    H224255   3.128   4.318   6.055 -0.1605  0.8313  0.3339
  922TIP3   OH224256   6.024   5.993   1.707 -0.1304  0.3601  0.3036
  922TIP3    H124257   6.065   6.080   1.710 -1.7700  1.1394  0.9250
  922TIP3    H224258   5.935   6.010   1.675 -1.1761 -0.7912  2.4373
  923TIP3   OH224259   3.789   3.624   5.639 -0.2108  0.2196 -0.3180
  923TIP3    H124260   3.700   3.631   5.675 -1.5597  0.2327 -3.3917
  923TIP3    H224261   3.789   3.541   5.591  1.9809 -0.5080  0.7991
  924TIP3   OH224262   1.925   6.479   4.048 -0.1866 -0.3238 -0.2948
  924TIP3    H124263   1.918   6.407   4.111  0.1236  0.1199  0.2571
  924TIP3    H224264   1.854   6.464   3.986 -0.3640 -0.8871  0.0411
  925TIP3   OH224265   0.300   3.919  16.908  0.2012 -0.0508 -0.1288
  925TIP3    H124266   0.320   4.002  16.866  2.2276 -0.7007 -0.5723
  925TIP3    H224267   0.326   3.931  16.999  1.4912 -0.4989 -0.4231
  926TIP3   OH224268   3.515   0.741   3.070 -0.0357  0.6131  0.0147
  926TIP3    H124269   3.451   0.776   3.008  0.0448 -1.4314 -1.3170
  926TIP3    H224270   3.591   0.799   3.062 -0.4757  1.0805 -0.9176
  927TIP3   OH224271   6.773   5.177   5.839 -0.4921  0.1478 -0.6355
  927TIP3    H124272   6.810   5.211   5.757 -2.0082  0.0198 -1.4021
  927TIP3    H224273   6.679   5.189   5.830 -0.6725  0.5411  1.2989
  928TIP3   OH224274   3.685   4.042   4.016 -0.2265 -0.2160  0.0869
  928TIP3    H124275   3.761   4.092   3.983 -0.4681  0.5091  0.5918
  928TIP3    H224276   3.691   3.958   3.972  1.5798 -0.6389  1.0045
  929TIP3   OH224277   2.653   3.697   4.516  0.1180 -0.2237 -0.7279
  929TIP3    H124278   2.568   3.733   4.544  1.1717  0.7461  1.4521
  929TIP3    H224279   2.678   3.751   4.441  0.4202  1.9712  0.8579
  930TIP3   OH224280   5.289   5.333   4.018 -0.3400 -0.2586  0.4745
  930TIP3    H124281   5.219   5.284   4.061 -1.0467  1.5030  1.4209
  930TIP3    H224282   5.314   5.279   3.943 -1.3436 -1.8473  1.2348
  931TIP3   OH224283   4.067   5.788  11.591  0.0693  0.1972  0.7998
  931TIP3    H124284   4.136   5.721  11.590  0.7061  0.8311  0.4230
  931TIP3    H224285   4.076   5.832  11.506 -1.4370 -0.3283  0.3538
  932TIP3   OH224286   5.524   0.399   4.122 -0.1166 -0.6025 -0.0708
  932TIP3    H124287   5.492   0.485   4.095 -1.2966 -0.0851  2.6283
  932TIP3    H224288   5.519   0.345   4.043 -2.0121  1.0883 -1.1982
  933TIP3   OH224289   4.360   6.807  16.386 -0.2155  0.0477  0.3039
  933TIP3    H124290   4.287   6.794  16.447  0.1464 -3.2822  0.2402
  933TIP3    H224291   4.438   6.789  16.438  0.3358  0.3845 -0.3882
  934TIP3   OH224292   4.134   1.985  16.085  0.0193  0.6873  0.4595
  934TIP3    H124293   4.181   1.918  16.035 -2.5286  0.1301 -1.3633
  934TIP3    H224294   4.110   2.051  16.021 -1.4872  1.0289  1.3344
  935TIP3   OH224295   4.988   3.358  13.968 -0.1843  0.0169  0.3299
  935TIP3    H124296   4.926   3.378  13.898  2.2198 -2.2934 -2.7506
  935TIP3    H224297   5.053   3.429  13.963 -1.0321  0.9416  1.6985
  936TIP3   OH224298   5.166   4.662  13.065 -0.1489  0.3572 -0.0807
  936TIP3    H124299   5.218   4.738  13.040  0.0231  0.1133 -0.4639
  936TIP3    H224300   5.162   4.666  13.161  0.8455  0.1962 -0.0256
  937TIP3   OH224301   5.701   1.168   0.164  0.0810  0.1826 -0.3777
  937TIP3    H124302   5.649   1.218   0.228  0.6405 -0.9502  1.0256
  937TIP3    H224303   5.654   1.178   0.082 -1.8686 -0.0654  0.6504
  938TIP3   OH224304   2.590   5.059  13.108 -0.4586  0.6180 -0.3791
  938TIP3    H124305   2.654   5.005  13.062  0.0793  2.1368 -1.5059
  938TIP3    H224306   2.534   4.997  13.155 -1.1232 -1.0758 -3.1707
  939TIP3   OH224307   3.973   4.833   3.471 -0.1008 -0.2718  0.5852
  939TIP3    H124308   4.030   4.905   3.443 -1.3814  0.0847 -1.2459
  939TIP3    H224309   4.033   4.759   3.483  0.7438 -0.1500 -2.1341
  940TIP3   OH224310   2.032   4.863  16.278  0.3597  0.2326  0.2225
  940TIP3    H124311   1.988   4.780  16.299  1.2662 -0.8517 -1.8954
  940TIP3    H224312   2.099   4.871  16.346 -0.0878 -0.4771  0.7752
  941TIP3   OH224313   4.062   6.495  15.640  0.7207 -0.4882 -0.3035
  941TIP3    H124314   4.009   6.505  15.720  0.9004 -1.0366 -0.1111
  941TIP3    H224315   4.053   6.579  15.595 -0.2334 -0.5382 -0.2216
  942TIP3   OH224316   5.471   4.793  17.191 -0.5741  0.1215  0.2903
  942TIP3    H124317   5.522   4.718  17.160 -0.6119  0.2543 -0.0887
  942TIP3    H224318   5.537   4.860  17.207 -0.6170  0.2606 -0.1068
  943TIP3   OH224319   6.774   6.288   4.800 -0.1420  0.0237 -0.3578
  943TIP3    H124320   6.719   6.218   4.765  0.0520 -0.4151  0.2024
  943TIP3    H224321   6.746   6.296   4.892  0.8475 -0.3184 -0.0205
  944TIP3   OH224322   0.638   4.702   5.275 -0.0217  0.3878 -0.0195
  944TIP3    H124323   0.673   4.785   5.243  1.9296 -0.3741  0.0179
  944TIP3    H224324   0.548   4.700   5.243 -0.1589  2.5559  0.0894
  945TIP3   OH224325   3.429   6.736  13.879 -0.1252 -0.0947 -0.2282
  945TIP3    H124326   3.489   6.789  13.826  0.5906  0.9025  1.5205
  945TIP3    H224327   3.479   6.657  13.899 -0.9861 -1.2744 -2.3377
  946TIP3   OH224328   5.188   5.728  14.062  0.0174  0.0388 -0.2909
  946TIP3    H124329   5.120   5.782  14.102 -0.0095 -1.8928  2.5168
  946TIP3    H224330   5.260   5.789  14.046 -0.1535  1.0713  2.3923
  947TIP3   OH224331   0.235   4.584   2.269 -0.0917 -0.0312  0.0893
  947TIP3    H124332   0.157   4.528   2.270 -0.9853  1.1637  0.1430
  947TIP3    H224333   0.307   4.525   2.288 -1.1426 -0.9473  1.4173
  948TIP3   OH224334   5.297   4.107   3.561 -0.0667 -0.0669 -0.3174
  948TIP3    H124335   5.336   4.053   3.630  2.7187  2.7910  0.5808
  948TIP3    H224336   5.247   4.173   3.609 -1.4439 -0.4039 -1.2640
  949TIP3   OH224337   5.804   6.781   4.752  0.0491 -0.2601 -0.1339
  949TIP3    H124338   5.854   6.699   4.749  0.4184 -0.0251 -0.3716
  949TIP3    H224339   5.795   6.807   4.660  0.8833  0.5415 -0.0063
  950TIP3   OH224340   0.676   3.365   2.894 -0.5127  0.3138  0.2665
  950TIP3    H124341   0.751   3.321   2.933  1.0578  1.5160 -1.2354
  950TIP3    H224342   0.626   3.296   2.851  3.0407 -0.0243 -3.9334
  951TIP3   OH224343   6.773   5.284   0.141 -0.5657  0.1531 -0.6756
  951TIP3    H124344   6.818   5.318   0.218 -0.0688 -0.7613 -0.5528
  951TIP3    H224345   6.681   5.307   0.154 -0.2240  1.6208 -0.7000
  952TIP3   OH224346   2.853   6.740   4.984  0.8996  1.1738  0.1014
  952TIP3    H124347   2.855   6.645   4.997  0.6397  1.0973 -0.4022
  952TIP3    H224348   2.866   6.776   5.072 -3.7274  0.6718  1.2839
  953TIP3   OH224349   0.905   4.499  12.187  0.1871  0.4995 -0.1388
  953TIP3    H124350   0.842   4.431  12.212 -0.6278  1.4524  0.5149
  953TIP3    H224351   0.916   4.487  12.092  1.4175 -1.6128  0.2088
  954TIP3   OH224352   5.335   0.072  10.863  0.0874 -0.5128  0.3816
  954TIP3    H124353   5.265   0.063  10.797 -0.5214  0.6599  0.8444
  954TIP3    H224354   5.345  -0.016  10.899 -1.4459 -0.6222  0.5951
  955TIP3   OH224355   6.172   5.641  12.322  0.1497 -0.0360 -0.3933
  955TIP3    H124356   6.139   5.729  12.342  0.0914 -0.1312 -0.0795
  955TIP3    H224357   6.245   5.657  12.262  1.9918  0.4361  1.8372
  956TIP3   OH224358   5.475   1.189   0.383  0.3348  0.0353 -0.4052
  956TIP3    H124359   5.424   1.263   0.416  0.4924  0.0614 -0.2159
  956TIP3    H224360   5.480   1.128   0.456 -0.6125 -0.6027 -0.8606
  957TIP3   OH224361   0.209   5.538  11.188  0.0564 -0.0206 -0.3565
  957TIP3    H124362   0.254   5.564  11.107 -1.0626 -0.3324 -1.1033
  957TIP3    H224363   0.133   5.595  11.193  0.1832  0.0848  0.5610
  958TIP3   OH224364   0.676   2.743   4.412 -0.2351  0.3226 -0.5854
  958TIP3    H124365   0.646   2.657   4.444 -0.5334  1.3072  2.0400
  958TIP3    H224366   0.597   2.785   4.379 -0.4285  0.2248 -0.2565
  959TIP3   OH224367   3.401   5.584  11.432  0.0261  0.1911 -0.1387
  959TIP3    H124368   3.317   5.539  11.442  0.3386 -0.5787 -0.8361
  959TIP3    H224369   3.379   5.677  11.436 -1.0499  0.0280 -1.5809
  960TIP3   OH224370   0.137   3.209  12.078 -0.3407  0.8357 -0.0073
  960TIP3    H124371   0.046   3.239  12.068 -0.7309 -0.0205  0.7690
  960TIP3    H224372   0.176   3.271  12.140  0.2218  2.3767 -1.7974
  961TIP3   OH224373   0.094   5.645  12.530 -0.2458  0.9084 -0.8604
  961TIP3    H124374   0.090   5.558  12.491  0.4493 -0.1719  1.2860
  961TIP3    H224375   0.017   5.650  12.586  1.1518  0.4385  1.2503
  962TIP3   OH224376   0.718   4.568  12.785 -0.0141 -0.3704 -0.0363
  962TIP3    H124377   0.622   4.571  12.778  0.0150  1.2793 -0.0702
  962TIP3    H224378   0.736   4.576  12.878  0.0901 -1.2117  0.0213
  963TIP3   OH224379   0.154   2.906  12.824 -0.2056  0.0546  0.4923
  963TIP3    H124380   0.199   2.875  12.746  0.1661  1.0533  0.2985
  963TIP3    H224381   0.078   2.848  12.832 -0.2138 -0.1084 -0.5730
  964TIP3   OH224382   6.547   1.877   0.264 -0.1570 -0.3249 -0.3087
  964TIP3    H124383   6.581   1.790   0.243  0.8380 -0.3652  1.2712
  964TIP3    H224384   6.624   1.934   0.259 -0.4169  0.1155  0.5044
  965TIP3   OH224385   2.307   3.080   2.247  0.1895 -0.2132  0.6067
  965TIP3    H124386   2.389   3.070   2.295 -0.9056 -2.0408  2.2441
  965TIP3    H224387   2.317   3.022   2.171 -0.3564 -2.2637  2.0058
  966TIP3   OH224388   3.372   6.197  12.192  0.2638  0.7891 -0.3535
  966TIP3    H124389   3.291   6.248  12.198  0.4982  1.1249  0.0049
  966TIP3    H224390   3.372   6.163  12.103 -0.5399  0.3357 -0.1881
  967TIP3   OH224391   4.107   2.663   2.303  0.2503  0.0908  0.0592
  967TIP3    H124392   4.115   2.585   2.358  0.6700 -0.2021 -0.4102
  967TIP3    H224393   4.023   2.701   2.329  0.3647 -0.1305  0.7816
  968TIP3   OH224394   3.734   6.209   4.770 -0.1337  0.0254 -0.0828
  968TIP3    H124395   3.651   6.223   4.724  0.3401  0.2048 -0.9129
  968TIP3    H224396   3.731   6.267   4.845 -0.6786  0.1747 -0.2185
  969TIP3   OH224397   0.575   0.073  12.541 -0.6954 -0.2108 -0.0953
  969TIP3    H124398   0.616   0.041  12.621 -0.9516  0.0091  0.1241
  969TIP3    H224399   0.493   0.112  12.570 -1.4147 -1.2968 -0.5997
  970TIP3   OH224400   1.321   1.641  12.406 -0.0441  0.1247  0.0016
  970TIP3    H124401   1.258   1.575  12.378 -1.9858  0.8266  2.3729
  970TIP3    H224402   1.301   1.718  12.353 -2.2488  0.7845  1.6486
  971TIP3   OH224403   5.691   3.843  12.541  0.1034 -0.1843  0.4042
  971TIP3    H124404   5.727   3.754  12.536  0.7001  0.0952 -0.3960
  971TIP3    H224405   5.749   3.889  12.601  0.6466  0.0546 -0.2934
  972TIP3   OH224406   0.519   3.637   5.518 -0.0521 -0.0092 -0.6218
  972TIP3    H124407   0.491   3.638   5.427  0.8998  0.5035 -0.9267
  972TIP3    H224408   0.537   3.545   5.537  0.8472  0.0020 -1.3204
  973TIP3   OH224409   1.856   1.438   0.021 -0.0857  0.1443  0.5297
  973TIP3    H124410   1.928   1.410  -0.035 -0.9051 -0.8843 -0.0465
  973TIP3    H224411   1.877   1.529   0.043 -0.1275  0.8657 -2.0921
  974TIP3   OH224412   1.956   1.625  12.401  0.7172  0.0223 -0.2289
  974TIP3    H124413   2.022   1.575  12.450  0.5222 -0.3080 -0.3004
  974TIP3    H224414   2.007   1.679  12.341  0.9669  0.5488  0.4452
  975TIP3   OH224415   0.626   4.386  13.598  0.6423 -0.2338 -0.4155
  975TIP3    H124416   0.646   4.471  13.558  0.7873  0.4366  1.0392
  975TIP3    H224417   0.530   4.379  13.591  0.3942  0.9736  1.1701
  976TIP3   OH224418   5.608   3.387  14.138  0.3110  0.5257  0.4421
  976TIP3    H124419   5.647   3.331  14.071 -1.2353  0.5090 -0.4773
  976TIP3    H224420   5.516   3.393  14.114 -0.4791 -0.1188  3.0138
  977TIP3   OH224421   4.340   4.337  14.054 -0.2731 -0.4588 -0.0477
  977TIP3    H124422   4.424   4.383  14.050  0.3369 -1.4399  0.8281
  977TIP3    H224423   4.326   4.305  13.965 -1.1576  2.0857 -0.9246
  978TIP3   OH224424   2.699   2.837   5.428 -0.3174 -0.0738 -0.5147
  978TIP3    H124425   2.732   2.864   5.343 -0.5120  0.4226 -0.4316
  978TIP3    H224426   2.656   2.753   5.412  0.8028 -0.6393 -0.6626
  979TIP3   OH224427   5.065   1.395   2.599  0.4282 -0.1288 -1.0198
  979TIP3    H124428   5.074   1.448   2.678 -0.9721 -0.4140 -0.6313
  979TIP3    H224429   5.090   1.453   2.528  1.5304  0.1912 -0.3960
  980TIP3   OH224430   1.583   5.252  15.780  0.4447 -0.1650 -0.3340
  980TIP3    H124431   1.675   5.225  15.779  0.1875 -1.1083 -0.0444
  980TIP3    H224432   1.546   5.210  15.702 -0.0520 -1.0196  0.3373
  981TIP3   OH224433   3.491   4.227   2.047 -0.4720 -0.0503 -0.1798
  981TIP3    H124434   3.399   4.240   2.069 -0.7932  2.3299 -2.3589
  981TIP3    H224435   3.522   4.315   2.024  2.7820 -0.5153  1.7761
  982TIP3   OH224436   1.706   0.688   4.661  0.0585 -0.2161 -0.2474
  982TIP3    H124437   1.642   0.691   4.590 -0.7047 -0.8802  0.3829
  982TIP3    H224438   1.657   0.653   4.736  1.5723 -2.4533 -0.2086
  983TIP3   OH224439   4.919   0.496   0.300  0.2013  0.0441 -0.1573
  983TIP3    H124440   5.007   0.472   0.273  0.1639  1.8901 -2.1766
  983TIP3    H224441   4.863   0.474   0.226 -0.7113  0.7718  0.2832
  984TIP3   OH224442   0.065   6.261  16.742 -0.1974  0.2045 -0.4310
  984TIP3    H124443   0.133   6.202  16.710  0.2657  0.6119 -0.2203
  984TIP3    H224444   0.082   6.344  16.698  0.4384  0.7649  0.8203
  985TIP3   OH224445   2.164   0.504   4.620 -0.2125  0.2635  0.4593
  985TIP3    H124446   2.093   0.567   4.610 -0.3699  0.0953  0.5076
  985TIP3    H224447   2.221   0.520   4.545  0.1277  0.9409  0.8469
  986TIP3   OH224448   1.406   5.267   0.565 -0.1213  0.0302  0.0682
  986TIP3    H124449   1.405   5.184   0.518 -0.0593 -0.3832  0.7804
  986TIP3    H224450   1.447   5.247   0.649 -1.0590  0.5457  0.6698
  987TIP3   OH224451   3.359   4.418   2.449  0.5383 -0.4493  0.5284
  987TIP3    H124452   3.417   4.480   2.404  2.2930 -1.8333  0.7574
  987TIP3    H224453   3.302   4.473   2.502  1.4395  1.0190  0.0541
  988TIP3   OH224454   6.655   1.279   5.791  0.0465 -0.2518  0.2415
  988TIP3    H124455   6.736   1.301   5.744  0.0418 -0.3562  0.1841
  988TIP3    H224456   6.598   1.355   5.778 -0.3124 -0.6634 -0.7169
  989TIP3   OH224457   2.842   3.723  14.703 -0.4588  0.3188  0.0479
  989TIP3    H124458   2.853   3.640  14.657  1.5396  0.9343 -0.6825
  989TIP3    H224459   2.747   3.730  14.717 -0.8293 -1.3241 -1.2824
  990TIP3   OH224460   2.937   5.650   0.743 -0.2445 -1.2427 -0.4087
  990TIP3    H124461   2.866   5.702   0.703 -0.2604 -1.0670 -0.1536
  990TIP3    H224462   2.896   5.566   0.764 -0.2162 -1.3691 -0.8322
  991TIP3   OH224463   0.218   5.514   1.784 -0.2228 -0.6710  0.1799
  991TIP3    H124464   0.134   5.472   1.802 -1.0272  0.8955  0.2345
  991TIP3    H224465   0.205   5.605   1.809  1.6359 -0.4752  0.5804
  992TIP3   OH224466   1.850   1.643   4.141  0.4759  0.3175  0.1034
  992TIP3    H124467   1.867   1.554   4.172 -1.1889  0.4007  1.4560
  992TIP3    H224468   1.798   1.631   4.061  0.1169  0.0537  0.3692
  993TIP3   OH224469   6.034   5.639   0.956 -0.0672  0.1597  0.1404
  993TIP3    H124470   6.114   5.622   1.006  0.6139  1.1786 -0.5725
  993TIP3    H224471   5.976   5.566   0.978  1.1226 -0.6934  0.5402
  994TIP3   OH224472   1.016   3.555   4.597  0.1553 -0.4766  0.2082
  994TIP3    H124473   1.041   3.466   4.573 -0.3767 -0.9603  1.3575
  994TIP3    H224474   1.053   3.568   4.684 -1.2557 -0.2488  0.8091
  995TIP3   OH224475   4.826   5.980  10.618  0.0355 -0.0055  0.0075
  995TIP3    H124476   4.794   5.914  10.556  0.2771  0.0034 -0.1272
  995TIP3    H224477   4.835   5.932  10.700 -2.5675  0.5034  0.6926
  996TIP3   OH224478   1.543   1.331   5.342 -0.2643 -0.2808 -0.1394
  996TIP3    H124479   1.504   1.389   5.407  0.5817 -0.3718  0.4571
  996TIP3    H224480   1.557   1.249   5.388  2.9527  0.4804  0.4704
  997TIP3   OH224481   0.913   4.234   4.175 -0.7619  0.2045  0.2686
  997TIP3    H124482   0.851   4.234   4.248 -1.2245 -0.0894 -0.1191
  997TIP3    H224483   0.868   4.281   4.105 -1.4057 -1.8151 -0.7249
  998TIP3   OH224484   0.185   5.217   4.195  0.1366 -0.4083 -1.1509
  998TIP3    H124485   0.178   5.238   4.288 -0.4374  1.2920 -1.5506
  998TIP3    H224486   0.100   5.239   4.158  0.7643  0.1774 -2.3029
  999TIP3   OH224487   1.246   5.346   4.321 -0.1034 -0.0122 -0.0726
  999TIP3    H124488   1.338   5.329   4.343  0.4687  0.4927 -1.8743
  999TIP3    H224489   1.223   5.276   4.260 -0.9484 -0.1731  0.4224
 1000TIP3   OH224490   5.558   1.160   1.824 -0.1717  0.0901 -0.1424
 1000TIP3    H124491   5.501   1.083   1.823 -0.1001  0.0269  0.3900
 1000TIP3    H224492   5.498   1.233   1.807 -0.2176 -0.0948 -0.7872
 1001TIP3   OH224493   2.876   6.260  13.412  0.4148 -0.4086 -0.8252
 1001TIP3    H124494   2.969   6.262  13.434 -0.0234  2.0888  1.3198
 1001TIP3    H224495   2.843   6.344  13.443 -2.0062  0.0996 -4.2395
 1002TIP3   OH224496   4.946   2.977   5.020 -0.1100  0.2042 -0.4262
 1002TIP3    H124497   4.937   2.883   5.003 -2.0317  0.6222 -2.2343
 1002TIP3    H224498   5.033   2.999   4.986 -0.4959 -0.5904 -2.0617
 1003TIP3   OH224499   2.910   4.561   4.401 -0.0650  0.4084 -0.0709
 1003TIP3    H124500   2.963   4.612   4.340 -0.0467  1.2848  0.6489
 1003TIP3    H224501   2.845   4.517   4.346  1.1539 -0.3756 -0.9240
 1004TIP3   OH224502   2.612   2.930   4.524 -0.6727  0.5761  0.7157
 1004TIP3    H124503   2.527   2.932   4.480 -0.6168  0.7791  0.6190
 1004TIP3    H224504   2.674   2.906   4.455 -0.2941  2.8128  0.2168
 1005TIP3   OH224505   5.506   4.900  16.069 -0.3166  0.0133 -0.2576
 1005TIP3    H124506   5.582   4.842  16.063  0.2349  0.8167 -1.3123
 1005TIP3    H224507   5.439   4.846  16.112  1.5686  0.0697  3.1301
 1006TIP3   OH224508   5.522   5.781  11.904  0.1424  0.3782 -0.2355
 1006TIP3    H124509   5.441   5.730  11.899 -0.2120  0.7976  0.9383
 1006TIP3    H224510   5.500   5.865  11.862 -0.2575  0.7562  0.7093
 1007TIP3   OH224511   3.185   0.926  11.599  0.1492  0.2391 -0.3312
 1007TIP3    H124512   3.123   0.931  11.527  1.1870  0.7190 -1.2244
 1007TIP3    H224513   3.262   0.975  11.568  0.3617  1.0547  1.3681
 1008TIP3   OH224514   5.203   2.657  12.796 -0.3108  0.1820  0.0550
 1008TIP3    H124515   5.208   2.561  12.796  0.6883  0.2200 -0.6259
 1008TIP3    H224516   5.217   2.682  12.705  0.1534  0.9984  0.3407
 1009TIP3   OH224517   2.646   6.354   2.341 -0.6438 -0.5219  0.4204
 1009TIP3    H124518   2.627   6.435   2.388 -2.0177  0.1972 -1.2557
 1009TIP3    H224519   2.737   6.334   2.363 -0.5079  1.0852  1.4368
 1010TIP3   OH224520   0.303   2.259   5.925 -0.3943  0.7473 -0.1664
 1010TIP3    H124521   0.354   2.311   5.987 -0.4544 -0.9405  1.3591
 1010TIP3    H224522   0.216   2.300   5.925 -0.2203  1.1203  0.4097
 1011TIP3   OH224523   3.396   3.311  12.116 -0.1033 -0.5417  0.6317
 1011TIP3    H124524   3.488   3.334  12.106  0.1038 -1.4797  0.1929
 1011TIP3    H224525   3.348   3.380  12.070  0.4439 -0.5647  0.0079
 1012TIP3   OH224526   0.289   5.594  11.670  0.3029 -0.1636 -0.3139
 1012TIP3    H124527   0.196   5.575  11.685  0.2973  0.0625 -0.0487
 1012TIP3    H224528   0.299   5.685  11.696  0.2850  0.2787 -1.7997
 1013TIP3   OH224529   3.234   0.546  13.767 -0.0685  0.0345  0.5134
 1013TIP3    H124530   3.227   0.641  13.757 -1.1746 -0.1327 -0.6208
 1013TIP3    H224531   3.313   0.523  13.718 -0.1772  0.3078  0.1968
 1014TIP3   OH224532   0.935   0.612   3.140 -0.3581  0.4663 -0.0529
 1014TIP3    H124533   1.018   0.595   3.184 -1.7065 -1.2190  2.0666
 1014TIP3    H224534   0.869   0.579   3.201 -2.5730  1.3380 -1.8478
 1015TIP3   OH224535   3.509   0.732   4.664 -0.2310 -0.5216  0.1832
 1015TIP3    H124536   3.603   0.744   4.650 -0.2395  0.3467  0.8178
 1015TIP3    H224537   3.493   0.640   4.640  0.3339 -0.0786 -2.1328
 1016TIP3   OH224538   4.940   0.007  15.404 -0.1320  0.3328 -0.2335
 1016TIP3    H124539   4.932  -0.079  15.444  1.0453  0.2629 -0.1205
 1016TIP3    H224540   4.852   0.045  15.411  0.1660  0.7178  3.3227
 1017TIP3   OH224541   0.617   5.755   1.078 -0.3806  0.8311  0.1634
 1017TIP3    H124542   0.567   5.759   1.159 -0.8090 -0.7947  0.0227
 1017TIP3    H224543   0.709   5.750   1.106 -0.5456 -0.0439  0.5674
 1018TIP3   OH224544   3.774   0.717  15.222 -0.1074 -0.3131 -0.7700
 1018TIP3    H124545   3.751   0.655  15.153 -0.9583  0.4886 -1.2295
 1018TIP3    H224546   3.870   0.723  15.218 -0.1210 -0.5606 -1.6308
 1019TIP3   OH224547   1.239   6.650  14.675  0.0670  0.5104  0.4666
 1019TIP3    H124548   1.257   6.622  14.585 -2.5658  0.5019 -0.1484
 1019TIP3    H224549   1.269   6.740  14.679 -0.3784  0.7312 -0.6731
 1020TIP3   OH224550   2.224   2.552   1.671  0.6631 -0.0748 -0.1362
 1020TIP3    H124551   2.274   2.625   1.708  1.8939 -0.7279 -0.4380
 1020TIP3    H224552   2.182   2.589   1.593 -1.9304  1.3036  1.7743
 1021TIP3   OH224553   6.081   2.673   3.084 -0.6862 -0.0561  0.2361
 1021TIP3    H124554   6.104   2.766   3.074  1.9028 -0.6977 -0.5518
 1021TIP3    H224555   6.161   2.626   3.060 -1.9070 -2.5138  0.6873
 1022TIP3   OH224556   3.731   4.799  15.656 -0.0564  0.1063  0.4189
 1022TIP3    H124557   3.780   4.763  15.582  0.8671 -1.2688  1.6510
 1022TIP3    H224558   3.654   4.742  15.663 -1.9821  2.2480 -1.5058
 1023TIP3   OH224559   0.419   2.221   0.324  0.7594  0.0337 -0.2164
 1023TIP3    H124560   0.405   2.266   0.241  2.0306  0.2168 -0.3568
 1023TIP3    H224561   0.462   2.138   0.299 -0.3747 -0.6854  0.1372
 1024TIP3   OH224562   6.365   5.938  13.544  0.1081 -0.1326  0.1981
 1024TIP3    H124563   6.301   5.968  13.609 -0.2118 -0.8249  0.2116
 1024TIP3    H224564   6.356   6.000  13.472  0.1220  0.3586  0.6161
 1025TIP3   OH224565   5.789   0.997   3.653 -0.3928 -0.9436  0.3596
 1025TIP3    H124566   5.759   0.908   3.637 -1.8513 -0.0533 -2.4799
 1025TIP3    H224567   5.872   0.986   3.701  1.4548 -4.0320 -3.0187
 1026TIP3   OH224568   6.273   4.077   1.751 -0.2776  0.1631  0.2641
 1026TIP3    H124569   6.222   4.064   1.830  1.6734 -0.1610  1.5401
 1026TIP3    H224570   6.273   3.992   1.708  1.3753 -0.6248  1.6878
 1027TIP3   OH224571   3.713   5.490   1.307  0.1401  0.6254  0.2987
 1027TIP3    H124572   3.780   5.543   1.350 -1.1433  1.0065  1.9188
 1027TIP3    H224573   3.633   5.508   1.356 -0.8136 -1.0839 -0.5462
 1028TIP3   OH224574   1.501   6.693   1.039 -0.3131 -0.3957  0.2796
 1028TIP3    H124575   1.454   6.624   1.085 -0.5103 -0.7285 -0.4065
 1028TIP3    H224576   1.446   6.714   0.964 -0.4116  0.7402  0.6453
 1029TIP3   OH224577   5.382   2.765   4.548 -0.0561  0.8334  0.4401
 1029TIP3    H124578   5.393   2.789   4.456  0.8178  1.5859  0.7245
 1029TIP3    H224579   5.420   2.838   4.597  0.2919  0.0470  1.3883
 1030TIP3   OH224580   2.278   1.644  14.192 -0.3380  0.4012  0.2956
 1030TIP3    H124581   2.285   1.713  14.258 -3.5103  1.3020 -0.0979
 1030TIP3    H224582   2.284   1.691  14.108 -0.4043 -0.1179 -0.0039
 1031TIP3   OH224583   2.820   4.871  17.207  0.0016  1.0176  0.3056
 1031TIP3    H124584   2.847   4.962  17.215  2.6641  0.2543  1.5361
 1031TIP3    H224585   2.820   4.839  17.298  0.5253 -0.5130 -0.1997
 1032TIP3   OH224586   2.379   5.172  16.982 -0.1715  0.2141 -0.4793
 1032TIP3    H124587   2.405   5.218  17.062  0.5094  0.0983 -0.6284
 1032TIP3    H224588   2.449   5.191  16.919 -0.9071  0.6368 -1.1768
 1033TIP3   OH224589   4.576   5.415  11.863  0.1178  0.1081  0.5519
 1033TIP3    H124590   4.631   5.362  11.805 -3.0313 -2.1352 -0.6667
 1033TIP3    H224591   4.557   5.358  11.937 -1.3552  0.4126  0.4387
 1034TIP3   OH224592   2.670   4.960   5.991  0.1066  0.2341 -0.2437
 1034TIP3    H124593   2.752   5.001   5.964 -0.3897 -0.2003 -2.5911
 1034TIP3    H224594   2.696   4.901   6.062  1.4645  1.5625  0.4357
 1035TIP3   OH224595   3.762   3.374  16.427 -0.0026 -0.1410 -0.0963
 1035TIP3    H124596   3.706   3.305  16.391  0.5787 -0.3299 -0.6659
 1035TIP3    H224597   3.730   3.387  16.516 -0.6115 -0.6104 -0.2366
 1036TIP3   OH224598   0.243   4.982   5.316  0.0991 -0.1329 -0.0810
 1036TIP3    H124599   0.287   5.053   5.363  1.3313 -1.0004  0.1383
 1036TIP3    H224600   0.182   4.945   5.380  1.6083 -1.1654  0.8066
 1037TIP3   OH224601   4.329   2.881  13.498 -0.2326 -0.7352  0.2719
 1037TIP3    H124602   4.258   2.937  13.527  0.5347 -0.0218  0.8079
 1037TIP3    H224603   4.325   2.884  13.402 -2.8083 -3.1270  0.1660
 1038TIP3   OH224604   3.262   5.257  14.258  0.6135 -0.3270 -0.6078
 1038TIP3    H124605   3.221   5.245  14.172  2.1923 -0.5972 -1.3588
 1038TIP3    H224606   3.314   5.336  14.249  1.6615 -0.9611 -0.2704
 1039TIP3   OH224607   4.141   3.800   2.384  0.0365  0.3532 -0.1092
 1039TIP3    H124608   4.082   3.724   2.378 -1.5074  1.4087  0.8875
 1039TIP3    H224609   4.176   3.797   2.473  0.0374  0.7477 -0.0935
 1040TIP3   OH224610   0.246   3.979  10.423 -0.5966 -0.4971 -0.2993
 1040TIP3    H124611   0.159   4.019  10.432 -0.6654 -1.0225  2.4573
 1040TIP3    H224612   0.307   4.051  10.441 -0.5981 -0.7721  0.8793
 1041TIP3   OH224613   4.798   5.742  15.983 -0.2334 -0.3680  0.4703
 1041TIP3    H124614   4.760   5.654  15.975 -1.6634  0.2683 -0.1844
 1041TIP3    H224615   4.833   5.761  15.896 -1.2827  0.2811  0.1757
 1042TIP3   OH224616   3.086   1.107   0.829  0.1058  0.5223 -0.0912
 1042TIP3    H124617   3.127   1.185   0.865  1.0822  0.3917 -0.8491
 1042TIP3    H224618   3.132   1.092   0.746  0.4194 -1.2282  0.3434
 1043TIP3   OH224619   4.445   1.014  16.761 -0.7377  0.8976 -0.1494
 1043TIP3    H124620   4.492   0.937  16.791  0.0374  1.0664 -0.8733
 1043TIP3    H224621   4.363   1.013  16.809 -0.2533  0.2502  0.6878
 1044TIP3   OH224622   1.019   3.324   6.129 -0.0238  0.1782  0.7096
 1044TIP3    H124623   1.066   3.241   6.132 -0.2168 -0.0091 -0.8958
 1044TIP3    H224624   1.013   3.346   6.036  0.5666  2.3186  1.1115
 1045TIP3   OH224625   0.041   3.755  14.438 -0.6509 -0.0609 -0.0332
 1045TIP3    H124626   0.130   3.779  14.411  0.2914 -0.1191  2.6976
 1045TIP3    H224627   0.033   3.662  14.413  1.7897 -1.3869  3.3056
 1046TIP3   OH224628   6.525   0.085  13.588 -0.1044 -0.3399  0.4831
 1046TIP3    H124629   6.505  -0.007  13.608  0.5752 -0.4468  0.6668
 1046TIP3    H224630   6.485   0.099  13.502 -0.8952 -0.5805  0.7968
 1047TIP3   OH224631   0.305   4.110   3.256 -0.2402  0.3241 -0.2668
 1047TIP3    H124632   0.325   4.053   3.330 -0.8822  1.3492  0.7429
 1047TIP3    H224633   0.238   4.063   3.206  1.4563 -1.1655 -1.2238
 1048TIP3   OH224634   3.272   1.650   5.742  0.2843  0.0285  0.3937
 1048TIP3    H124635   3.201   1.597   5.777  0.1458  0.5556  0.9379
 1048TIP3    H224636   3.332   1.662   5.816  0.2083  0.7851  0.3468
 1049TIP3   OH224637   4.254   2.187  16.549  0.1629 -0.1270 -0.3229
 1049TIP3    H124638   4.249   2.102  16.506  2.1912 -0.3574 -0.1830
 1049TIP3    H224639   4.163   2.209  16.570 -0.5471 -1.5117 -1.7736
 1050TIP3   OH224640   5.432   3.943  15.254 -0.2013 -0.2471  0.1644
 1050TIP3    H124641   5.456   3.903  15.170 -0.8168 -1.4211  0.5403
 1050TIP3    H224642   5.411   4.034  15.231  2.3035  0.2563 -0.5233
 1051TIP3   OH224643   0.994   0.724  12.311  0.3226 -0.2929  0.1916
 1051TIP3    H124644   0.994   0.801  12.369  0.8734 -0.6881  0.7173
 1051TIP3    H224645   0.907   0.727  12.269  1.4970  2.6120 -2.5060
 1052TIP3   OH224646   5.098   0.136   1.249  0.7161 -0.5195  0.1572
 1052TIP3    H124647   5.123   0.228   1.255 -0.8769  0.0079 -0.7277
 1052TIP3    H224648   5.004   0.138   1.232  0.9814 -2.2554 -1.8820
 1053TIP3   OH224649   4.198   4.796   5.741 -0.0857 -0.4545  0.2503
 1053TIP3    H124650   4.177   4.837   5.657 -0.2124 -0.2322  0.3925
 1053TIP3    H224651   4.227   4.868   5.797  1.7527 -0.8131 -0.1488
 1054TIP3   OH224652   0.535   3.707  12.398 -0.2255 -0.2598 -0.3313
 1054TIP3    H124653   0.514   3.614  12.410 -0.1691 -0.4529 -1.5968
 1054TIP3    H224654   0.590   3.710  12.320 -4.3158  1.2511 -3.5550
 1055TIP3   OH224655   4.991   4.972  12.371  0.5649 -0.3312 -0.2402
 1055TIP3    H124656   4.960   4.895  12.420 -0.5320  1.4761  2.0861
 1055TIP3    H224657   5.081   4.949  12.345  0.5267 -2.1197  1.0325
 1056TIP3   OH224658   2.738   6.267  10.649  0.5224 -0.0395  0.5179
 1056TIP3    H124659   2.700   6.290  10.564  0.2717  0.1467  0.6803
 1056TIP3    H224660   2.751   6.172  10.644  1.5327  0.1196 -0.1432
 1057TIP3   OH224661   2.228   3.551  16.390 -0.1509  0.0245 -0.0020
 1057TIP3    H124662   2.224   3.548  16.485  0.1376 -0.6349 -0.0042
 1057TIP3    H224663   2.274   3.633  16.370  1.1263 -0.5392  0.4783
 1058TIP3   OH224664   6.722   1.369  14.043  0.1902  0.3767 -0.4733
 1058TIP3    H124665   6.691   1.320  13.967 -1.4424 -0.5818  0.7293
 1058TIP3    H224666   6.784   1.310  14.086 -1.2418 -0.4292  0.5861
 1059TIP3   OH224667   0.898   1.402   1.623 -0.1351  0.2139  0.3440
 1059TIP3    H124668   0.948   1.348   1.684  0.6859  0.1840 -0.3438
 1059TIP3    H224669   0.809   1.402   1.659 -0.0036 -1.0336  0.7211
 1060TIP3   OH224670   3.958   5.505  13.831  0.0868 -0.0005  0.0008
 1060TIP3    H124671   3.890   5.523  13.896 -0.7329 -0.0780 -0.8187
 1060TIP3    H224672   3.929   5.553  13.753  0.7006 -0.4684 -0.5213
 1061TIP3   OH224673   5.399   3.455  10.528 -0.9965 -0.3816 -0.0820
 1061TIP3    H124674   5.474   3.430  10.474 -0.7664 -2.9205  1.2264
 1061TIP3    H224675   5.331   3.480  10.466  0.6926  1.4473 -1.3147
 1062TIP3   OH224676   0.323   5.864  14.356  0.2015  0.0182 -0.1865
 1062TIP3    H124677   0.417   5.855  14.338  0.4853  1.9314  0.0301
 1062TIP3    H224678   0.316   5.855  14.451  0.2464  0.3563 -0.1493
 1063TIP3   OH224679   2.186   4.349  11.200  0.0086  0.5224 -0.2172
 1063TIP3    H124680   2.271   4.310  11.216  0.3474  1.1339 -0.4834
 1063TIP3    H224681   2.123   4.280  11.220  0.5086  0.4797  1.3333
 1064TIP3   OH224682   2.455   4.740  17.013  0.8261 -0.4391  0.2413
 1064TIP3    H124683   2.379   4.789  17.044  0.7740  0.3756 -1.0837
 1064TIP3    H224684   2.424   4.650  17.006  0.6217 -0.4975  1.7345
 1065TIP3   OH224685   4.949   1.374   3.729 -0.4858  0.4713 -0.6197
 1065TIP3    H124686   5.044   1.384   3.735 -0.5918  0.6251  1.4080
 1065TIP3    H224687   4.919   1.456   3.690  0.2341  0.1735 -1.8610
 1066TIP3   OH224688   6.200   5.564   1.772 -0.2205 -0.3152  0.4816
 1066TIP3    H124689   6.191   5.654   1.804 -1.1764 -0.4286  0.5581
 1066TIP3    H224690   6.184   5.509   1.848 -1.3661 -0.5650  0.0928
 1067TIP3   OH224691   0.015   0.341   4.913  0.0070  0.8417 -0.0321
 1067TIP3    H124692   0.058   0.395   4.846  1.9734  1.3723  1.5561
 1067TIP3    H224693   0.011   0.398   4.990  3.1225 -1.4550  2.0608
 1068TIP3   OH224694   1.980   5.641   5.347  0.0740 -0.0720  0.9289
 1068TIP3    H124695   1.887   5.620   5.350 -0.0103  0.3258  1.2550
 1068TIP3    H224696   2.018   5.595   5.422  0.1548 -0.3108  0.7405
 1069TIP3   OH224697   3.037   1.312   5.818  0.0553  0.5022 -0.0120
 1069TIP3    H124698   3.029   1.383   5.881  1.3079  1.0419 -0.4442
 1069TIP3    H224699   3.034   1.232   5.872  1.0735  0.9516  0.7428
 1070TIP3   OH224700   2.399   5.299   3.371 -0.0505  0.1268 -0.1281
 1070TIP3    H124701   2.354   5.245   3.306 -1.0998  0.2437  0.4836
 1070TIP3    H224702   2.365   5.269   3.455 -0.4608  1.5452  0.2366
 1071TIP3   OH224703   6.511   0.405  16.828 -0.1258 -0.3935 -0.5166
 1071TIP3    H124704   6.481   0.425  16.916  1.5477  0.3165 -0.0660
 1071TIP3    H224705   6.431   0.399  16.776 -1.1148 -0.3381  0.9418
 1072TIP3   OH224706   6.160   4.179  13.431  0.0096  0.1288 -0.0155
 1072TIP3    H124707   6.082   4.144  13.476 -1.7444  1.5513 -1.7764
 1072TIP3    H224708   6.127   4.254  13.381  2.4024  0.3414 -1.4124
 1073TIP3   OH224709   1.075   3.277  16.411  0.1702  0.0649  0.5960
 1073TIP3    H124710   1.144   3.277  16.477  0.4821  0.2314  0.2732
 1073TIP3    H224711   1.068   3.369  16.384  1.9331 -0.3584 -1.5470
 1074TIP3   OH224712   1.999   2.385   1.112  0.0900  0.0314 -0.1498
 1074TIP3    H124713   2.009   2.480   1.120  1.8647 -0.0873 -0.4558
 1074TIP3    H224714   1.951   2.359   1.191  2.1342  0.8729  1.4723
 1075TIP3   OH224715   6.195   2.610  12.924 -0.1473 -0.0648 -0.3453
 1075TIP3    H124716   6.129   2.581  12.987 -0.2748 -1.0774 -0.9222
 1075TIP3    H224717   6.243   2.530  12.901  2.2012  0.8513  1.0702
 1076TIP3   OH224718   4.468   0.521   1.968 -0.2791  0.3586 -0.3891
 1076TIP3    H124719   4.415   0.457   2.016 -1.3835  1.5041 -0.0071
 1076TIP3    H224720   4.473   0.597   2.026  0.9195  0.6719 -0.8646
 1077TIP3   OH224721   0.730   4.145   3.430 -0.1995  0.1940 -0.0221
 1077TIP3    H124722   0.676   4.212   3.388  1.7668  2.1198  0.4024
 1077TIP3    H224723   0.820   4.168   3.408  0.6169 -1.7576  0.9840
 1078TIP3   OH224724   4.911   4.193   3.240 -0.0246 -0.7554  0.8312
 1078TIP3    H124725   5.000   4.161   3.257 -1.0037 -3.1853  1.7057
 1078TIP3    H224726   4.869   4.124   3.189 -1.4573  0.3338  0.4670
 1079TIP3   OH224727   0.788   4.216   0.503  0.3763  0.3372 -0.3698
 1079TIP3    H124728   0.738   4.289   0.539  0.5357  0.4523 -0.3817
 1079TIP3    H224729   0.879   4.244   0.509  0.4385  0.1403 -0.3771
 1080TIP3   OH224730   6.470   5.678  11.247 -0.1460 -0.0222  0.1995
 1080TIP3    H124731   6.512   5.592  11.245  3.3927  1.5030  1.8943
 1080TIP3    H224732   6.473   5.708  11.156  0.4945 -0.8385 -0.0615
 1081TIP3   OH224733   1.740   4.165   0.767 -0.2321  0.3647 -0.5492
 1081TIP3    H124734   1.798   4.237   0.744 -0.0945  0.2612 -0.5229
 1081TIP3    H224735   1.796   4.101   0.811  0.1424 -0.7975 -2.5969
 1082TIP3   OH224736   4.332   2.120   2.369  0.9080 -0.2160  0.2096
 1082TIP3    H124737   4.304   2.168   2.447  0.5963  2.1034 -1.2275
 1082TIP3    H224738   4.273   2.045   2.364 -1.4251  1.5077  0.3259
 1083TIP3   OH224739   2.299   0.032   4.225  0.3966  0.0454 -0.2014
 1083TIP3    H124740   2.260   0.000   4.144  1.0631  2.0353 -1.3729
 1083TIP3    H224741   2.387  -0.007   4.226  0.6778  0.6311 -0.8773
 1084TIP3   OH224742   5.780   4.061  15.045 -0.0979 -0.0632  0.3514
 1084TIP3    H124743   5.849   4.031  14.986 -1.2446 -0.9946 -0.5792
 1084TIP3    H224744   5.812   4.039  15.132  1.0650  0.1312 -0.0080
 1085TIP3   OH224745   2.810   4.348  13.058 -0.0119 -0.1504  0.0944
 1085TIP3    H124746   2.905   4.346  13.047 -0.1052 -0.0260 -0.7963
 1085TIP3    H224747   2.778   4.267  13.018 -0.3620  0.3039 -0.5707
 1086TIP3   OH224748   0.225   0.027  14.580 -0.1229  0.4483 -0.2214
 1086TIP3    H124749   0.275   0.095  14.535 -0.1153  0.8796  0.4102
 1086TIP3    H224750   0.133   0.047  14.559 -0.0315 -0.4288 -1.4949
 1087TIP3   OH224751   2.528   6.309   3.016 -0.3341  0.3728 -0.6314
 1087TIP3    H124752   2.524   6.230   3.070 -0.2509  0.3293 -0.6905
 1087TIP3    H224753   2.436   6.334   3.005 -0.4014 -0.1130 -1.2019
 1088TIP3   OH224754   6.497   6.139  11.113  0.4063  0.7785  0.6492
 1088TIP3    H124755   6.545   6.093  11.045  0.5549  1.7977  0.0298
 1088TIP3    H224756   6.449   6.071  11.160  1.1957 -0.0671  0.2504
 1089TIP3   OH224757   4.251   3.114  15.497 -0.4994  0.5809  0.4896
 1089TIP3    H124758   4.254   3.129  15.403 -0.9494 -1.0319  0.1921
 1089TIP3    H224759   4.158   3.116  15.519 -0.4759 -0.2155  0.6823
 1090TIP3   OH224760   3.751   3.835   4.286  0.8541 -0.5345  0.6027
 1090TIP3    H124761   3.825   3.810   4.231  0.5998 -0.5034  0.2458
 1090TIP3    H224762   3.694   3.886   4.229  1.1384  0.4757  1.2034
 1091TIP3   OH224763   3.056   0.057   4.550  0.1389  0.1294 -0.3356
 1091TIP3    H124764   2.995   0.026   4.618 -0.5771  1.7562 -0.2083
 1091TIP3    H224765   3.074   0.147   4.574 -0.5004  0.9090 -2.5646
 1092TIP3   OH224766   5.209   6.180  16.187  0.5359  0.1428  0.3317
 1092TIP3    H124767   5.155   6.236  16.131 -1.0958 -0.5331  1.1604
 1092TIP3    H224768   5.147   6.120  16.228  1.3516  1.5396  4.0575
 1093TIP3   OH224769   3.699   4.430  16.113 -0.7425  0.3243  0.0537
 1093TIP3    H124770   3.634   4.380  16.064 -0.1934 -0.2506 -0.1026
 1093TIP3    H224771   3.671   4.423  16.204  1.3087 -3.5092  0.5929
 1094TIP3   OH224772   5.644   5.651  13.197 -0.1908  0.3931 -0.6816
 1094TIP3    H124773   5.691   5.568  13.193  0.4620  0.5486  2.0310
 1094TIP3    H224774   5.664   5.694  13.114  1.1844 -1.2577 -1.2455
 1095TIP3   OH224775   5.882   5.252  14.838 -0.7525  0.2884  0.2934
 1095TIP3    H124776   5.895   5.186  14.770 -1.3218  0.4042  0.0637
 1095TIP3    H224777   5.955   5.313  14.827 -1.7271  1.2442 -1.3309
 1096TIP3   OH224778   5.173   1.428   5.268 -0.2226 -0.4572 -0.0276
 1096TIP3    H124779   5.217   1.372   5.331 -0.6880 -1.3436 -0.4740
 1096TIP3    H224780   5.084   1.438   5.302 -0.1221  0.0721  0.0870
 1097TIP3   OH224781   6.364   5.918  16.419 -0.0907 -0.1609  0.2770
 1097TIP3    H124782   6.431   5.850  16.408  1.3112  1.2748 -0.4524
 1097TIP3    H224783   6.292   5.873  16.463  1.0640 -1.9425  0.4696
 1098TIP3   OH224784   1.188   3.972  16.884  0.0575  0.4121 -0.1772
 1098TIP3    H124785   1.273   3.941  16.851  0.5463 -0.9117  2.0465
 1098TIP3    H224786   1.145   3.893  16.916 -0.8942  1.3950  1.0619
 1099TIP3   OH224787   2.450   4.493  15.951 -0.0732  0.1072  0.4706
 1099TIP3    H124788   2.442   4.589  15.944  0.6412  0.1197 -0.3955
 1099TIP3    H224789   2.431   4.475  16.043 -1.7949  0.8980  0.3103
 1100TIP3   OH224790   5.328   1.617   5.113 -0.5053 -0.3413 -0.7403
 1100TIP3    H124791   5.412   1.577   5.134 -1.1444 -1.8047 -0.7688
 1100TIP3    H224792   5.272   1.596   5.188 -0.9919  0.1230 -0.9697
 1101TIP3   OH224793   2.660   3.417  17.255 -0.7087 -0.0850 -0.2600
 1101TIP3    H124794   2.710   3.384  17.180 -0.7087 -0.0562 -0.2732
 1101TIP3    H224795   2.568   3.403  17.231 -0.7237  0.3105 -0.4494
 1102TIP3   OH224796   2.626   6.054  15.417 -0.0446  0.1494 -0.0167
 1102TIP3    H124797   2.600   6.073  15.327  1.0621  0.1087 -0.3683
 1102TIP3    H224798   2.622   6.139  15.462  1.7393  0.6653 -0.7476
 1103TIP3   OH224799   3.572   0.877   5.678  0.1291  0.4498 -0.3290
 1103TIP3    H124800   3.664   0.863   5.700 -0.4903 -1.0728  1.4880
 1103TIP3    H224801   3.549   0.959   5.721  0.0831 -0.2981  1.1216
 1104TIP3   OH224802   1.659   2.217   0.014  0.2543 -0.1334  0.1079
 1104TIP3    H124803   1.714   2.251   0.085  1.4499 -0.4210 -0.6480
 1104TIP3    H224804   1.695   2.257  -0.065 -0.8476 -0.0738 -0.3807
 1105TIP3   OH224805   5.375   4.500   5.842  0.0251 -0.7806  0.3581
 1105TIP3    H124806   5.373   4.459   5.755 -0.9630 -1.3387  0.6293
 1105TIP3    H224807   5.340   4.433   5.901  1.2866 -0.6444  1.3005
 1106TIP3   OH224808   1.549   1.284  14.053  0.0848 -0.2785 -0.9181
 1106TIP3    H124809   1.457   1.285  14.025  0.1521  0.7511 -1.1455
 1106TIP3    H224810   1.549   1.232  14.133 -0.8878  0.5773 -0.3287
 1107TIP3   OH224811   3.997   4.803  11.618  0.0605  0.5864  0.3370
 1107TIP3    H124812   3.943   4.781  11.542 -0.7000  0.4823  0.8974
 1107TIP3    H224813   4.042   4.722  11.640 -1.5117 -0.0392  1.4149
 1108TIP3   OH224814   1.232   3.131   4.741 -0.6278 -0.2703  0.7925
 1108TIP3    H124815   1.214   3.210   4.793 -1.9372 -0.3217  0.4669
 1108TIP3    H224816   1.327   3.121   4.745 -0.5848  0.3301  2.2977
 1109TIP3   OH224817   5.080   1.080  12.411 -0.1896 -0.3197 -0.9533
 1109TIP3    H124818   5.034   1.080  12.496 -0.9219  1.9001 -1.2879
 1109TIP3    H224819   5.093   0.987  12.392  0.8321 -0.8917  2.0052
 1110TIP3   OH224820   2.815   0.804   1.775 -0.3910 -0.6466 -0.4112
 1110TIP3    H124821   2.867   0.868   1.823 -0.5673  0.5017 -1.6731
 1110TIP3    H224822   2.764   0.758   1.842  1.2449 -0.8940  0.7122
 1111TIP3   OH224823   1.296   1.893   4.212 -0.1657  0.2590  0.3638
 1111TIP3    H124824   1.292   1.987   4.226 -1.5441  0.2674  0.0833
 1111TIP3    H224825   1.205   1.864   4.219  0.1399 -0.9360 -0.3229
 1112TIP3   OH224826   2.929   2.301   3.732  0.0358  0.2890 -0.1541
 1112TIP3    H124827   2.917   2.377   3.675 -1.5147  1.5542  1.7539
 1112TIP3    H224828   3.014   2.316   3.773  1.0620 -0.5208 -1.8500
 1113TIP3   OH224829   5.843   1.045   4.677 -0.0233  0.4144  0.4553
 1113TIP3    H124830   5.931   1.065   4.645 -0.1376 -0.8049 -0.6756
 1113TIP3    H224831   5.850   0.956   4.712 -0.6233  0.6201  1.1190
 1114TIP3   OH224832   2.096   0.522   2.569 -0.4075 -0.0675  0.3795
 1114TIP3    H124833   2.156   0.589   2.601 -0.9183  0.5945 -0.0136
 1114TIP3    H224834   2.100   0.452   2.634  2.5727 -1.1322 -0.7593
 1115TIP3   OH224835   3.143   3.657   2.044 -0.1754 -0.3751  0.3400
 1115TIP3    H124836   3.062   3.638   1.997  0.4350  0.7081 -1.2687
 1115TIP3    H224837   3.120   3.729   2.103 -0.6530 -0.8986  0.8073
 1116TIP3   OH224838   2.022   1.443   1.260  0.8174 -0.0604  0.3588
 1116TIP3    H124839   2.001   1.482   1.175 -0.1132 -0.0355  0.5865
 1116TIP3    H224840   1.976   1.499   1.324 -1.1591 -1.9096  0.6531
 1117TIP3   OH224841   3.995   3.299  15.764  0.1992  0.4563 -0.2412
 1117TIP3    H124842   3.933   3.342  15.706 -0.5763  0.4825  0.5984
 1117TIP3    H224843   4.058   3.367  15.786  0.1629  0.6006 -0.5715
 1118TIP3   OH224844   0.271   0.061  16.558 -0.1910 -1.0555 -0.5580
 1118TIP3    H124845   0.352   0.027  16.598 -0.3899 -1.3733 -0.4245
 1118TIP3    H224846   0.244  -0.007  16.496 -0.4764 -1.0460 -0.4446
 1119TIP3   OH224847   5.678   2.802   3.775 -0.1515  0.2994  0.1944
 1119TIP3    H124848   5.765   2.765   3.786 -0.5511 -0.7239  0.0685
 1119TIP3    H224849   5.623   2.754   3.838 -0.7375  0.4853 -0.1622
 1120TIP3   OH224850   0.721   0.089   3.187 -0.7096  0.2105 -0.0132
 1120TIP3    H124851   0.752   0.007   3.227 -0.1926 -0.4676 -1.7039
 1120TIP3    H224852   0.630   0.095   3.213 -1.2176 -1.7839 -1.1208
 1121TIP3   OH224853   4.706   6.373  12.596 -0.2285  0.1052  0.0607
 1121TIP3    H124854   4.618   6.340  12.576 -0.7397  2.0467 -1.0908
 1121TIP3    H224855   4.691   6.450  12.650  0.7198  1.0640 -1.0083
 1122TIP3   OH224856   6.684   4.039   0.483  0.0292  0.4404  0.4843
 1122TIP3    H124857   6.661   4.077   0.568 -2.0472  0.2831  0.0664
 1122TIP3    H224858   6.632   4.089   0.420  2.2995  1.2453 -0.8689
 1123TIP3   OH224859   2.678   4.247  16.340  0.6025  0.4427  0.2128
 1123TIP3    H124860   2.601   4.220  16.390  0.0891 -0.1111 -0.8348
 1123TIP3    H224861   2.694   4.337  16.367 -0.8843  0.8248 -0.0851
 1124TIP3   OH224862   1.861   5.828   4.743 -0.2516  0.3756  0.2080
 1124TIP3    H124863   1.844   5.784   4.826  1.5312 -1.5348 -0.3474
 1124TIP3    H224864   1.816   5.775   4.677 -0.7096  1.2258 -0.1879
 1125TIP3   OH224865   4.171   0.710  13.632 -0.1365  0.2314 -0.3429
 1125TIP3    H124866   4.101   0.759  13.677 -0.8319 -0.1698 -0.9705
 1125TIP3    H224867   4.141   0.619  13.635  1.9926 -0.5311  2.4678
 1126TIP3   OH224868   3.784   6.617  12.852  0.1029 -0.2676  0.0891
 1126TIP3    H124869   3.791   6.694  12.796 -0.7229  1.0652  1.7283
 1126TIP3    H224870   3.841   6.635  12.926 -0.7781 -0.8144  0.9335
 1127TIP3   OH224871   2.433   3.742   2.975 -0.4606  0.2568  0.0101
 1127TIP3    H124872   2.400   3.764   2.888  1.1145 -2.7278 -1.4635
 1127TIP3    H224873   2.528   3.749   2.968 -0.2480 -1.0174  1.1627
 1128TIP3   OH224874   1.445   1.127  12.328  0.3322  0.2800  0.0021
 1128TIP3    H124875   1.412   1.071  12.398  2.3866 -2.2477 -0.8837
 1128TIP3    H224876   1.536   1.099  12.316  0.3233  1.2119 -3.0792
 1129TIP3   OH224877   3.142   6.237  13.243 -0.1723  0.0729 -0.0660
 1129TIP3    H124878   3.195   6.317  13.241 -0.0343 -0.0302 -1.2335
 1129TIP3    H224879   3.121   6.220  13.151  1.5379 -2.3644 -0.0857
 1130TIP3   OH224880   2.413   2.750  16.372  0.3969 -0.4806 -0.0102
 1130TIP3    H124881   2.331   2.799  16.363  0.9506  0.7742  1.4253
 1130TIP3    H224882   2.408   2.710  16.458  1.3047 -0.3701  0.1048
 1131TIP3   OH224883   2.262   4.134  12.654 -0.5030 -0.8062 -0.0029
 1131TIP3    H124884   2.339   4.105  12.605  1.6862  2.2855  1.2718
 1131TIP3    H224885   2.284   4.118  12.746 -0.7869  1.1523  0.4574
 1132TIP3   OH224886   0.543   1.364   0.606  0.1919 -0.0980 -0.0645
 1132TIP3    H124887   0.452   1.335   0.607  0.0799  0.2346 -0.2532
 1132TIP3    H224888   0.540   1.451   0.564  0.5066  0.2012  0.5185
 1133TIP3   OH224889   0.301   6.041   1.980 -0.1278  0.1282 -0.6123
 1133TIP3    H124890   0.332   6.110   2.039  0.9712 -1.6679  1.0562
 1133TIP3    H224891   0.267   5.974   2.039 -0.8989 -0.8759 -2.1521
 1134TIP3   OH224892   3.240   3.460   4.438  0.0560 -0.4537 -0.4846
 1134TIP3    H124893   3.164   3.404   4.424 -0.3377  0.2292 -1.1192
 1134TIP3    H224894   3.270   3.484   4.350 -1.0185  1.9544 -0.2727
 1135TIP3   OH224895   3.324   5.703   4.583 -0.3658  0.4564  0.3384
 1135TIP3    H124896   3.398   5.699   4.522  0.1375  0.7823  0.9107
 1135TIP3    H224897   3.341   5.632   4.645 -0.3595  0.7316  0.6550
 1136TIP3   OH224898   5.506   6.756  14.807  0.3483  0.0945 -0.1184
 1136TIP3    H124899   5.468   6.758  14.895  2.0414  2.3773  0.6649
 1136TIP3    H224900   5.459   6.686  14.762 -1.5186 -0.2444  2.1681
 1137TIP3   OH224901   4.523   1.643   5.235  0.1216  0.2830 -0.1044
 1137TIP3    H124902   4.535   1.696   5.156 -1.3676  0.3159 -0.3231
 1137TIP3    H224903   4.475   1.566   5.205 -0.3981  0.2660  0.7616
 1138TIP3   OH224904   3.350   0.179   0.241  0.1226  0.0529  0.2154
 1138TIP3    H124905   3.383   0.097   0.204 -0.9644 -1.2391  1.9197
 1138TIP3    H224906   3.391   0.184   0.327  0.0860  1.2698  0.1780
 1139TIP3   OH224907   0.415   5.227  16.969 -0.4146  0.2541 -0.1269
 1139TIP3    H124908   0.439   5.312  16.932 -0.2976 -0.1686 -1.0701
 1139TIP3    H224909   0.320   5.227  16.970 -0.4155  0.3689 -0.2110
 1140TIP3   OH224910   2.463   0.831  16.829 -0.0030 -0.2900 -0.0575
 1140TIP3    H124911   2.506   0.752  16.798  0.3932 -0.4606  0.9011
 1140TIP3    H224912   2.535   0.892  16.847 -0.3412  0.8767 -2.2180
 1141TIP3   OH224913   5.213   3.948  13.754 -0.2033  0.3408  0.5745
 1141TIP3    H124914   5.160   3.886  13.704 -0.7695  1.0080  0.3156
 1141TIP3    H224915   5.189   4.034  13.717  1.2157  0.6449  0.3141
 1142TIP3   OH224916   5.513   3.929   1.240  0.0614  0.1436  0.0715
 1142TIP3    H124917   5.501   3.854   1.299 -0.0866  0.6027  0.6317
 1142TIP3    H224918   5.430   3.975   1.242  0.0774  0.1992 -0.4547
 1143TIP3   OH224919   0.626   1.459  13.770 -0.6409  0.1992  0.4810
 1143TIP3    H124920   0.688   1.527  13.796  0.0105 -0.4307  0.6147
 1143TIP3    H224921   0.617   1.404  13.848 -1.1405  0.1214  0.3682
 1144TIP3   OH224922   1.080   1.035  14.734  0.5286 -0.7267  0.2335
 1144TIP3    H124923   1.084   0.976  14.809  0.8588 -1.2915 -0.2170
 1144TIP3    H224924   0.987   1.056  14.724  0.6812  1.2769  2.2457
 1145TIP3   OH224925   6.474   3.586   2.120 -0.8742  0.3383 -0.0663
 1145TIP3    H124926   6.487   3.500   2.080 -1.6145 -0.1485  0.7008
 1145TIP3    H224927   6.553   3.600   2.173  0.2889  1.1528 -1.9085
 1146TIP3   OH224928   2.100   2.736   0.632  0.8021  0.2162  0.3290
 1146TIP3    H124929   2.093   2.830   0.616 -0.2328  0.1383  0.2770
 1146TIP3    H224930   2.121   2.728   0.725  0.6915  0.4937  0.3782
 1147TIP3   OH224931   4.109   2.694   3.616  0.0123  0.3083  0.6665
 1147TIP3    H124932   4.041   2.702   3.549 -0.5278 -1.4225  0.9434
 1147TIP3    H224933   4.191   2.709   3.569 -0.4541  0.6173 -0.0612
 1148TIP3   OH224934   3.273   2.787   4.220 -0.3697  0.2417 -0.2243
 1148TIP3    H124935   3.218   2.710   4.211  0.5357 -0.3272 -1.1282
 1148TIP3    H224936   3.330   2.767   4.294  1.3338 -0.9444 -1.7637
 1149TIP3   OH224937   5.708   1.856  11.267  0.3689  0.6863  0.9482
 1149TIP3    H124938   5.726   1.820  11.180 -0.1587  0.8592  0.7619
 1149TIP3    H224939   5.616   1.885  11.263 -0.5929 -1.8127  2.4046
 1150TIP3   OH224940   3.712   2.536  15.751 -0.4144 -0.4406  0.4841
 1150TIP3    H124941   3.760   2.553  15.671 -0.6117  0.4680  0.5509
 1150TIP3    H224942   3.779   2.512  15.815  0.1774  2.1616  0.9574
 1151TIP3   OH224943   5.493   0.641   5.900 -0.1643 -0.1546  0.1615
 1151TIP3    H124944   5.524   0.587   5.973  0.3995  1.4478  1.1390
 1151TIP3    H224945   5.572   0.658   5.848 -0.4374 -0.6827 -0.4489
 1152TIP3   OH224946   5.718   4.173   0.622  0.1577  0.1402 -0.5866
 1152TIP3    H124947   5.810   4.150   0.638 -0.0925  0.1285  0.9927
 1152TIP3    H224948   5.691   4.220   0.701 -1.1091  0.4599 -1.1799
 1153TIP3   OH224949   2.333   4.069   4.674  0.5798 -0.9126  0.6611
 1153TIP3    H124950   2.350   4.046   4.765  0.9241 -0.7994  0.6275
 1153TIP3    H224951   2.239   4.086   4.671  0.8736  1.3135  1.5209
 1154TIP3   OH224952   0.217   2.979  16.614  0.2883 -0.6812 -0.2901
 1154TIP3    H124953   0.143   2.919  16.630 -0.8672  0.6445 -0.5136
 1154TIP3    H224954   0.295   2.924  16.628 -0.7023 -1.7766  1.3275
 1155TIP3   OH224955   0.086   1.791   0.135 -0.3191  0.1040 -0.1476
 1155TIP3    H124956   0.005   1.741   0.149  0.0242 -0.6864 -0.9086
 1155TIP3    H224957   0.153   1.725   0.117  0.2328  0.8130 -0.7737
 1156TIP3   OH224958   5.158   5.502   1.336  0.0210 -0.2588  0.5161
 1156TIP3    H124959   5.180   5.594   1.319 -0.3025 -0.2759 -0.0172
 1156TIP3    H224960   5.087   5.483   1.275 -0.3261 -0.6910  1.0432
 1157TIP3   OH224961   1.816   4.140  15.994  0.4219  0.3602 -0.3679
 1157TIP3    H124962   1.860   4.224  15.983 -0.6377  0.8787 -0.7878
 1157TIP3    H224963   1.885   4.075  15.980  0.9850  1.1397 -1.3645
 1158TIP3   OH224964   5.843   2.138  14.282  0.1294 -0.0408  0.1982
 1158TIP3    H124965   5.880   2.052  14.266 -0.7870 -0.3860 -0.1249
 1158TIP3    H224966   5.855   2.185  14.199  0.6899  0.1796  0.3954
 1159TIP3   OH224967   1.586   3.525  11.793 -0.0694 -0.2874  0.1801
 1159TIP3    H124968   1.663   3.553  11.744 -1.2048  1.8710 -0.5010
 1159TIP3    H224969   1.512   3.557  11.741 -1.7267 -5.3433 -1.1804
 1160TIP3   OH224970   4.669   4.974  14.213  0.1278 -0.1427 -0.3857
 1160TIP3    H124971   4.736   4.957  14.147  1.1104  1.4920  0.1518
 1160TIP3    H224972   4.598   5.015  14.163 -1.0241 -2.8187 -1.1504
 1161TIP3   OH224973   5.410   6.699  16.298 -0.3705 -0.4443 -0.2201
 1161TIP3    H124974   5.424   6.755  16.221 -1.0692 -0.1570 -0.1503
 1161TIP3    H224975   5.487   6.643  16.301  1.3680  1.8460  0.8567
 1162TIP3   OH224976   4.429   0.789  14.931 -0.2891  0.1504 -0.1588
 1162TIP3    H124977   4.524   0.791  14.917 -0.3957  1.0425 -0.7959
 1162TIP3    H224978   4.400   0.879  14.917 -1.5905 -0.5863 -2.6475
 1163TIP3   OH224979   0.909   1.365  11.754  0.3832  0.2384 -0.1765
 1163TIP3    H124980   0.902   1.320  11.670  1.0343 -1.1044  0.4680
 1163TIP3    H224981   0.981   1.321  11.799 -0.5295  0.3661  1.4487
 1164TIP3   OH224982   2.771   3.465  16.173  0.0738  0.0341 -0.5031
 1164TIP3    H124983   2.686   3.484  16.213  1.1502 -0.5055  2.2353
 1164TIP3    H224984   2.834   3.512  16.227  1.7717 -1.9479 -0.6261
 1165TIP3   OH224985   4.812   2.520  15.706 -0.4325  0.9049  0.0134
 1165TIP3    H124986   4.756   2.543  15.632  0.3126 -0.4631 -1.0286
 1165TIP3    H224987   4.752   2.483  15.771 -0.9491  1.0242 -0.3900
 1166TIP3   OH224988   2.303   1.120   0.994  0.1228  0.1856 -0.4287
 1166TIP3    H124989   2.320   1.123   0.899  0.6582 -0.4156 -0.3574
 1166TIP3    H224990   2.215   1.156   1.004 -0.0943 -0.1192 -1.1949
 1167TIP3   OH224991   3.044   0.371  11.282 -0.2843 -0.3953 -0.5882
 1167TIP3    H124992   3.047   0.286  11.238  2.7656 -0.0418 -1.3409
 1167TIP3    H224993   3.118   0.368  11.343 -1.7089  0.8070  1.3039
 1168TIP3   OH224994   1.806   0.369   5.804  0.3796 -0.2867 -0.3453
 1168TIP3    H124995   1.755   0.420   5.867  2.2269  0.7228  0.4044
 1168TIP3    H224996   1.745   0.302   5.772 -1.3866  0.8810  0.4695
 1169TIP3   OH224997   4.419   2.643  15.426 -0.5802  0.0567 -0.0562
 1169TIP3    H124998   4.397   2.696  15.503  0.8261 -1.4146  1.4189
 1169TIP3    H224999   4.335   2.606  15.398 -1.1913  1.0294  0.4237
 1170TIP3   OH225000   5.436   5.037  15.706 -0.1697  0.0144  1.1529
 1170TIP3    H125001   5.370   5.099  15.737  0.6326  1.0445  0.8597
 1170TIP3    H225002   5.467   4.993  15.786 -0.5237  0.2083  1.4001
 1171TIP3   OH225003   1.461   0.743  13.205  0.0357 -0.2185  0.6781
 1171TIP3    H125004   1.417   0.666  13.168 -0.1791 -0.1034  0.6982
 1171TIP3    H225005   1.409   0.817  13.176  1.6953  0.1767 -1.6121
 1172TIP3   OH225006   4.728   5.967   4.182  0.5647  0.9326 -0.0111
 1172TIP3    H125007   4.798   5.972   4.247  0.2308 -0.6464  0.5256
 1172TIP3    H225008   4.715   5.873   4.169 -0.8608  1.2071 -0.7552
 1173TIP3   OH225009   6.819   2.393  10.485  0.3043 -0.0926  0.1185
 1173TIP3    H125010   6.776   2.333  10.424 -1.7884  0.6218  0.8024
 1173TIP3    H225011   6.811   2.479  10.444  1.8874 -0.0385 -0.1255
 1174TIP3   OH225012   0.238   3.762  11.048 -0.3118  0.2422  0.1481
 1174TIP3    H125013   0.150   3.766  11.012 -0.5638  2.7430  0.8969
 1174TIP3    H225014   0.227   3.777  11.142  0.8506 -0.4579  0.4231
 1175TIP3   OH225015   6.416   3.194   2.856 -0.2779 -0.2922 -0.0963
 1175TIP3    H125016   6.476   3.126   2.825 -0.9581 -1.4186  0.9826
 1175TIP3    H225017   6.354   3.206   2.784 -0.4057 -1.1390 -0.1407
 1176TIP3   OH225018   0.490   3.856  10.945  0.6386  0.3011 -0.1527
 1176TIP3    H125019   0.535   3.775  10.966  0.8917  1.3489  4.1812
 1176TIP3    H225020   0.397   3.833  10.945  0.7709 -0.4914 -2.2243
 1177TIP3   OH225021   2.425   4.134  13.243  1.2195  0.7647 -0.2267
 1177TIP3    H125022   2.397   4.132  13.335 -1.6027  0.7672 -0.9807
 1177TIP3    H225023   2.432   4.042  13.218  1.5978  0.7648 -0.1290
 1178TIP3   OH225024   3.355   6.402  16.448 -0.5700  0.3024  0.0506
 1178TIP3    H125025   3.296   6.453  16.504 -1.4473 -0.7440  0.1087
 1178TIP3    H225026   3.373   6.322  16.497 -0.5757 -0.2028 -0.7519
 1179TIP3   OH225027   6.735   5.044   9.923 -0.2586  0.4349 -0.2827
 1179TIP3    H125028   6.821   5.072   9.954 -0.4339 -0.7916  1.4560
 1179TIP3    H225029   6.674   5.108   9.959 -0.2027  0.5461 -0.3860
 1180TIP3   OH225030   2.297   5.348  16.105 -0.1333 -0.4722  0.1977
 1180TIP3    H125031   2.321   5.424  16.052  1.1695  0.2595  1.7363
 1180TIP3    H225032   2.309   5.378  16.196 -1.3313 -1.9663  0.8870
 1181TIP3   OH225033   2.855   3.326   6.489 -0.4640  0.2349  0.8666
 1181TIP3    H125034   2.832   3.333   6.397 -0.1074  2.1431  0.8801
 1181TIP3    H225035   2.798   3.257   6.523 -0.7078 -0.3941 -0.7289
 1182TIP3   OH225036   4.783   1.617  12.410  0.4429  0.3888  0.2784
 1182TIP3    H125037   4.791   1.523  12.396 -0.0506  0.5452 -1.2150
 1182TIP3    H225038   4.873   1.650  12.410  0.6788 -0.1791  1.7623
 1183TIP3   OH225039   3.492   0.590   0.194 -0.1222  0.2761  0.0014
 1183TIP3    H125040   3.399   0.612   0.187  0.6046  3.3820 -1.5171
 1183TIP3    H225041   3.524   0.588   0.104  1.3441 -0.5885  0.4997
 1184TIP3   OH225042   3.258   6.592   2.853  0.2651  0.1556 -0.4181
 1184TIP3    H125043   3.252   6.656   2.924  1.7914  1.5199 -1.4341
 1184TIP3    H225044   3.352   6.584   2.837  0.1187 -2.2992 -0.4135
 1185TIP3   OH225045   5.331   3.044   3.916  0.3397 -0.6999  0.0336
 1185TIP3    H125046   5.287   2.973   3.870 -0.3604 -0.6617  0.6315
 1185TIP3    H225047   5.268   3.073   3.983  1.7832 -1.6197  1.9012
 1186TIP3   OH225048   0.344   0.618  13.278 -0.2948  1.0885 -0.1579
 1186TIP3    H125049   0.284   0.688  13.255  0.7675  1.6394 -1.3767
 1186TIP3    H225050   0.350   0.565  13.199 -0.1888  0.2764  0.3785
 1187TIP3   OH225051   2.345   6.440  13.932 -0.0663  0.3514 -0.0227
 1187TIP3    H125052   2.342   6.346  13.949 -2.5718  0.4517  0.4192
 1187TIP3    H225053   2.256   6.462  13.906  0.2600  2.7687  0.7126
 1188TIP3   OH225054   6.407   1.149   1.763  0.2808  0.0144 -0.0589
 1188TIP3    H125055   6.487   1.201   1.762 -0.5698  1.3618 -0.6551
 1188TIP3    H225056   6.369   1.165   1.850 -0.1468  0.6689 -0.3614
 1189TIP3   OH225057   5.889   6.808  15.143  0.7135 -0.2575  0.6630
 1189TIP3    H125058   5.863   6.734  15.088  1.1354  0.6844 -0.8585
 1189TIP3    H225059   5.849   6.789  15.229 -1.8277 -0.6960 -0.5233
 1190TIP3   OH225060   4.878   3.169   5.200  0.0161  0.2623 -0.1554
 1190TIP3    H125061   4.952   3.158   5.259 -0.3192  1.7580  0.6054
 1190TIP3    H225062   4.889   3.100   5.135  1.7944  0.1324  0.2193
 1191TIP3   OH225063   2.676   4.212  13.421  0.3618  0.1458 -0.7881
 1191TIP3    H125064   2.747   4.149  13.437 -0.2801 -0.3308  0.3405
 1191TIP3    H225065   2.639   4.184  13.337 -0.7144 -1.8407  0.2589
 1192TIP3   OH225066   6.359   4.289  11.170 -0.0217 -0.1383  0.2030
 1192TIP3    H125067   6.354   4.225  11.098 -0.5050  2.1989 -1.9885
 1192TIP3    H225068   6.397   4.367  11.130 -0.8345  1.4666  2.3723
 1193TIP3   OH225069   2.928   0.626  15.623 -0.4904 -0.2556 -0.1370
 1193TIP3    H125070   2.913   0.629  15.718 -0.1892  0.4879 -0.1083
 1193TIP3    H225071   3.010   0.578  15.613  0.8938  1.9044  0.1691
 1194TIP3   OH225072   3.970   4.249  16.856  0.3777  0.1374 -0.5950
 1194TIP3    H125073   3.922   4.263  16.775  0.1368  1.2653 -0.2786
 1194TIP3    H225074   3.954   4.158  16.879 -2.9475  0.8368  0.3254
 1195TIP3   OH225075   4.446   3.964  12.970  0.2512  0.4986  0.3345
 1195TIP3    H125076   4.530   3.986  12.931 -0.1480 -1.4549 -1.8509
 1195TIP3    H225077   4.385   4.027  12.932  0.2158 -0.1317 -0.6973
 1196TIP3   OH225078   1.879   6.815  14.373 -0.1175  0.3637  0.5616
 1196TIP3    H125079   1.886   6.856  14.287 -1.5466 -0.1977  0.1503
 1196TIP3    H225080   1.934   6.737  14.367 -0.8899 -0.1494 -0.1619
 1197TIP3   OH225081   0.379   4.561   2.670 -0.3059 -0.6349  0.3159
 1197TIP3    H125082   0.464   4.526   2.643 -1.0453 -2.4907  0.2758
 1197TIP3    H225083   0.392   4.656   2.673  1.9729 -0.9241  1.0547
 1198TIP3   OH225084   2.106   1.196   0.724  0.3287 -0.3195  0.5275
 1198TIP3    H125085   2.067   1.216   0.638  0.6446 -1.0203  0.2136
 1198TIP3    H225086   2.037   1.151   0.772  0.2165 -0.1047  0.5679
 1199TIP3   OH225087   0.818   1.581   0.890  0.0484  0.5657  0.0668
 1199TIP3    H125088   0.816   1.498   0.938  2.0528  0.1887 -0.4032
 1199TIP3    H225089   0.817   1.555   0.798  0.5752  1.0570 -0.0808
 1200TIP3   OH225090   4.014   0.044   3.981 -0.4582  0.3821  0.1264
 1200TIP3    H125091   3.973  -0.039   3.955  0.0007 -0.0234  0.6694
 1200TIP3    H225092   3.973   0.067   4.064 -0.4428  0.5954  0.0756
 1201TIP3   OH225093   0.026   0.724  12.003 -0.2294 -0.3061 -0.3304
 1201TIP3    H125094   0.071   0.667  11.941  0.3542 -0.2445  0.0360
 1201TIP3    H225095  -0.065   0.694  12.001 -0.2507 -0.1954 -1.3335
 1202TIP3   OH225096   0.837   3.339  10.607  0.1280  0.2623  0.1222
 1202TIP3    H125097   0.816   3.328  10.700  0.3045  0.3446  0.1741
 1202TIP3    H225098   0.779   3.279  10.562 -0.0340  0.2986  0.2794
 1203TIP3   OH225099   1.041   2.579  12.905 -0.0306 -0.2174  0.3264
 1203TIP3    H125100   1.012   2.667  12.927  1.7373  1.0352 -1.8605
 1203TIP3    H225101   1.121   2.566  12.956  1.0999  0.5195 -1.1927
 1204TIP3   OH225102   5.273   2.117  11.369  0.1661  0.0924  0.1775
 1204TIP3    H125103   5.247   2.175  11.440  0.7090  0.3838  0.1453
 1204TIP3    H225104   5.328   2.051  11.411  0.1321  0.0136  0.0989
 1205TIP3   OH225105   6.199   2.789   6.185 -0.0672  0.2366  0.6363
 1205TIP3    H125106   6.239   2.857   6.239 -0.5452  0.7983  0.2912
 1205TIP3    H225107   6.272   2.732   6.160  0.3902  0.8106  0.6501
 1206TIP3   OH225108   1.101   3.978   0.488 -0.2751 -0.0623  0.8826
 1206TIP3    H125109   1.138   3.973   0.399  0.7654  1.1456  1.2063
 1206TIP3    H225110   1.041   4.052   0.485 -1.5361 -1.0518  0.7807
 1207TIP3   OH225111   3.672   3.936   2.533  0.0300 -0.1924  0.0472
 1207TIP3    H125112   3.623   4.009   2.495  0.1349 -0.5296 -0.7472
 1207TIP3    H225113   3.764   3.961   2.523  0.0850 -0.6678 -0.7303
 1208TIP3   OH225114   1.534   2.662   5.510  0.1635  0.2762  0.2478
 1208TIP3    H125115   1.522   2.713   5.430  0.5282  2.4515  1.5115
 1208TIP3    H225116   1.464   2.692   5.569  0.1122 -1.0265  0.8984
 1209TIP3   OH225117   3.086   6.472   4.636 -0.5466  0.7459  0.1046
 1209TIP3    H125118   3.019   6.430   4.582  0.2641  1.1304 -1.2554
 1209TIP3    H225119   3.038   6.535   4.689 -1.3595  0.4584 -0.2724
 1210TIP3   OH225120   1.461   5.976   2.191  0.2713 -0.0414  0.1131
 1210TIP3    H125121   1.485   6.054   2.142 -1.2639  0.3780 -0.0408
 1210TIP3    H225122   1.392   6.005   2.250 -3.1124 -1.9004 -2.5357
 1211TIP3   OH225123   4.155   2.645   5.339 -0.5347 -0.7997  0.7732
 1211TIP3    H125124   4.073   2.687   5.365 -0.5991 -0.8835  0.7051
 1211TIP3    H225125   4.150   2.557   5.376 -0.6546 -0.9404  0.4221
 1212TIP3   OH225126   6.581   2.285  12.060  0.0242 -0.2137  0.4984
 1212TIP3    H125127   6.658   2.333  12.031  0.0962  0.0753  1.1663
 1212TIP3    H225128   6.508   2.327  12.014  0.1423  0.2039  0.6900
 1213TIP3   OH225129   4.246   6.565  14.297  0.4789  0.0287  0.2724
 1213TIP3    H125130   4.311   6.593  14.362 -0.0149  1.8328  0.0226
 1213TIP3    H225131   4.299   6.542  14.220  0.9514 -0.5266  0.7495
 1214TIP3   OH225132   0.971   5.306  15.001  0.3891  0.0745 -0.3767
 1214TIP3    H125133   0.996   5.363  15.074 -3.3630 -0.4094  1.5333
 1214TIP3    H225134   1.027   5.334  14.929  2.5243  2.3750  1.9492
 1215TIP3   OH225135   2.929   2.986  14.306  0.3256 -0.1138  0.9704
 1215TIP3    H125136   2.993   2.936  14.255 -1.1595 -4.0674  2.5347
 1215TIP3    H225137   2.844   2.954  14.275 -0.7549  1.4590  2.1444
 1216TIP3   OH225138   5.276   0.981  10.833 -0.1020 -0.5051  0.2129
 1216TIP3    H125139   5.222   1.056  10.810  1.4403  0.9051  0.9866
 1216TIP3    H225140   5.288   0.987  10.928  0.9289 -1.0892  0.1464
 1217TIP3   OH225141   5.738   0.445   0.875  0.4788 -0.4249 -0.2724
 1217TIP3    H125142   5.652   0.410   0.902  0.6132 -1.4285 -1.0997
 1217TIP3    H225143   5.765   0.499   0.949 -1.0692  0.2828 -0.1724
 1218TIP3   OH225144   2.096   3.117  17.242  0.0057  1.0545  0.6501
 1218TIP3    H125145   2.186   3.129  17.274 -0.0550  0.2329  1.1525
 1218TIP3    H225146   2.060   3.048  17.298  0.7795 -2.6339 -2.9861
 1219TIP3   OH225147   5.533   5.508  14.922  0.0029 -0.0813  0.1508
 1219TIP3    H125148   5.573   5.424  14.943  0.1910 -0.5976 -2.0273
 1219TIP3    H225149   5.444   5.486  14.895 -0.8391  0.7462  2.0507
 1220TIP3   OH225150   5.508   2.628   0.451 -0.2773  0.1722  0.3915
 1220TIP3    H125151   5.603   2.614   0.444 -0.2491  0.1480  0.7989
 1220TIP3    H225152   5.482   2.658   0.364  0.0825  0.0455  0.2365
 1221TIP3   OH225153   4.336   1.907   1.491  0.8512 -0.1082  0.2645
 1221TIP3    H125154   4.320   1.853   1.568  0.1773 -0.6047 -0.2118
 1221TIP3    H225155   4.385   1.982   1.524 -0.5773  0.3598  1.4019
 1222TIP3   OH225156   5.802   2.176   5.949  0.0533  0.0705  0.1500
 1222TIP3    H125157   5.735   2.204   5.887  0.5546 -0.3255 -0.5967
 1222TIP3    H225158   5.817   2.083   5.927  1.6204  0.4374 -0.4599
 1223TIP3   OH225159   3.749   4.007  15.862  0.7587  0.0348  0.1981
 1223TIP3    H125160   3.713   4.019  15.774  0.0634  0.0992  0.4902
 1223TIP3    H225161   3.750   3.912  15.875  2.1036 -0.0623 -0.3782
 1224TIP3   OH225162   1.137   5.133  13.033  0.1254 -0.2937  0.3621
 1224TIP3    H125163   1.200   5.070  13.067 -0.1333 -0.6814  0.1332
 1224TIP3    H225164   1.098   5.173  13.111  3.3889  2.8310  0.6555
 1225TIP3   OH225165   3.984   6.471  15.325 -0.3739  0.4779  0.1173
 1225TIP3    H125166   4.073   6.471  15.290 -0.8192  0.3060 -1.0543
 1225TIP3    H225167   3.991   6.517  15.408  0.6818  1.0768 -0.2867
 1226TIP3   OH225168   2.364   3.808   4.557 -0.3806  0.3099  0.7155
 1226TIP3    H125169   2.286   3.763   4.589  0.6253 -1.3272  0.9619
 1226TIP3    H225170   2.396   3.858   4.632 -0.4693 -0.0528  0.9951
 1227TIP3   OH225171   3.940   4.925  13.298  0.7535  0.1910 -0.0527
 1227TIP3    H125172   4.009   4.979  13.338 -0.0584  0.3654  1.1484
 1227TIP3    H225173   3.863   4.939  13.353 -0.0582 -0.5589 -0.9635
 1228TIP3   OH225174   1.836   6.638   5.288  0.2110  0.0461 -0.1161
 1228TIP3    H125175   1.826   6.545   5.306  0.2455 -0.0948 -0.8143
 1228TIP3    H225176   1.848   6.644   5.193  0.6574  0.7213 -0.0281
 1229TIP3   OH225177   6.655   3.195   2.688 -0.0915 -0.3040  0.5145
 1229TIP3    H125178   6.650   3.168   2.596 -1.6950 -0.0713  0.5040
 1229TIP3    H225179   6.739   3.161   2.718  0.3983 -0.5046 -0.9996
 1230TIP3   OH225180   4.984   0.800  16.580 -0.4168 -0.1105 -0.4080
 1230TIP3    H125181   4.976   0.868  16.647 -0.0736  0.7866 -1.2564
 1230TIP3    H225182   4.906   0.746  16.592 -0.8668  0.6254  0.0610
 1231TIP3   OH225183   0.273   2.143  10.932  0.4025 -0.1058 -0.1705
 1231TIP3    H125184   0.269   2.064  10.878  0.4933 -0.3910  0.2270
 1231TIP3    H225185   0.313   2.113  11.014 -0.0067  0.2479  0.1644
 1232TIP3   OH225186   2.138   5.995  11.049 -0.1152 -0.0918  0.5658
 1232TIP3    H125187   2.209   5.960  10.995 -0.9665  0.8119 -1.2154
 1232TIP3    H225188   2.091   6.055  10.992  0.6477  3.2489  3.1320
 1233TIP3   OH225189   4.909   3.765  15.394 -0.7205 -0.0652  0.3696
 1233TIP3    H125190   4.864   3.682  15.411  1.4146 -1.5759 -0.8494
 1233TIP3    H225191   4.951   3.752  15.309 -0.3562  2.3226  0.1225
 1234TIP3   OH225192   3.492   3.647   0.893  0.0614  0.1461  0.2674
 1234TIP3    H125193   3.423   3.583   0.911  1.9993 -1.9355  0.7163
 1234TIP3    H225194   3.488   3.662   0.799 -0.6861 -0.2965  0.2238
 1235TIP3   OH225195   5.863   1.476  11.429 -0.1776 -0.3808  0.3289
 1235TIP3    H125196   5.917   1.401  11.405  0.4884 -0.0575  0.7752
 1235TIP3    H225197   5.830   1.510  11.346  0.7513 -0.2642 -0.0075
 1236TIP3   OH225198   6.775   2.227   1.094  0.0222  0.2850  1.0338
 1236TIP3    H125199   6.720   2.303   1.079 -1.6331 -1.1582 -0.8216
 1236TIP3    H225200   6.740   2.187   1.174 -0.1895  0.5654  1.0804
 1237TIP3   OH225201   0.391   4.536   5.750 -0.1371 -0.6700  0.5654
 1237TIP3    H125202   0.358   4.625   5.733 -0.1027 -0.8035 -0.2433
 1237TIP3    H225203   0.396   4.530   5.845 -1.1354 -0.1589  0.6629
 1238TIP3   OH225204   2.393   1.818   0.083 -0.4993 -0.1318 -0.2844
 1238TIP3    H125205   2.432   1.849   0.165  1.0986  0.3759 -1.1931
 1238TIP3    H225206   2.298   1.821   0.099 -0.2343 -0.4493  1.6731
 1239TIP3   OH225207   2.370   3.392  14.097  0.0830 -0.4122 -0.3661
 1239TIP3    H125208   2.319   3.317  14.067  0.5940 -0.7657 -0.3676
 1239TIP3    H225209   2.429   3.356  14.164 -0.9768  0.3393  1.0188
 1240TIP3   OH225210   3.749   3.695  13.033 -0.2130 -0.5112  0.0723
 1240TIP3    H125211   3.747   3.706  12.937  0.8630 -2.0820 -0.1654
 1240TIP3    H225212   3.660   3.667  13.055 -0.3695 -0.5015 -0.5103
 1241TIP3   OH225213   4.509   2.730  13.645 -0.8096  0.0890 -0.3678
 1241TIP3    H125214   4.503   2.641  13.610 -0.3304 -0.0217 -0.1748
 1241TIP3    H225215   4.452   2.782  13.587  1.3898  0.2799 -2.5147
 1242TIP3   OH225216   1.367   1.491  14.192 -0.0131 -0.1525  0.0083
 1242TIP3    H125217   1.321   1.469  14.272  1.5621 -1.2895  0.6541
 1242TIP3    H225218   1.439   1.547  14.220  2.0009 -2.4751 -0.1643
 1243TIP3   OH225219   3.530   5.208  16.082  0.4235 -0.5024  0.1307
 1243TIP3    H125220   3.552   5.129  16.033 -0.4729 -0.3207 -0.5744
 1243TIP3    H225221   3.470   5.256  16.026 -2.5325 -1.3786  2.2423
 1244TIP3   OH225222   0.455   0.064   3.233  0.3138 -0.2522 -0.0075
 1244TIP3    H125223   0.376   0.087   3.184  1.8037  1.4317 -1.8178
 1244TIP3    H225224   0.471  -0.027   3.210 -0.0557 -0.0342 -1.2234
 1245TIP3   OH225225   0.968   4.241  16.010  0.1410 -0.0696 -0.1012
 1245TIP3    H125226   0.885   4.273  15.976  0.0763 -0.3073 -0.1665
 1245TIP3    H225227   1.030   4.312  15.992 -0.3675  0.8072  1.4129
 1246TIP3   OH225228   4.730   5.299   1.741 -0.3199  0.3275 -0.2913
 1246TIP3    H125229   4.707   5.358   1.669  0.7957 -0.5643 -1.4185
 1246TIP3    H225230   4.767   5.222   1.699  2.1233  0.5228  1.2659
 1247TIP3   OH225231   2.029   6.171  16.768 -0.2455 -0.1218 -0.1921
 1247TIP3    H125232   2.022   6.248  16.712  0.4800  0.2375  0.2029
 1247TIP3    H225233   1.983   6.102  16.719 -0.8727  0.5393 -0.5598
 1248TIP3   OH225234   5.666   1.406   3.555 -0.3131  0.4718 -0.2134
 1248TIP3    H125235   5.700   1.343   3.491 -0.5835 -0.2136  0.3047
 1248TIP3    H225236   5.729   1.403   3.627  0.0143  1.2770 -0.4524
 1249TIP3   OH225237   0.156   5.851  12.283 -0.4390 -0.4776  0.4786
 1249TIP3    H125238   0.180   5.943  12.266  0.1688 -0.8487 -0.7958
 1249TIP3    H225239   0.170   5.840  12.377 -0.9071  0.8419  0.7224
 1250TIP3   OH225240   0.426   6.458   2.296  0.3461  0.2601 -0.2009
 1250TIP3    H125241   0.513   6.423   2.317  1.1723 -0.1220 -3.6088
 1250TIP3    H225242   0.443   6.528   2.233 -1.7725  0.9325 -0.0896
 1251TIP3   OH225243   5.863   0.149  12.341  0.0909  0.0699 -0.2765
 1251TIP3    H125244   5.886   0.105  12.260  2.3179  0.5013  0.0554
 1251TIP3    H225245   5.873   0.083  12.409  1.3995  0.5042 -0.0179
 1252TIP3   OH225246   3.670   3.355  14.116 -0.1851 -0.8086  0.1334
 1252TIP3    H125247   3.733   3.387  14.052 -0.1886 -2.2394 -0.6372
 1252TIP3    H225248   3.585   3.376  14.078 -0.1878  0.2426  0.7023
 1253TIP3   OH225249   6.716   2.251  15.952 -0.5712 -0.0924 -0.0886
 1253TIP3    H125250   6.701   2.247  16.046  1.0163 -1.2464  0.1452
 1253TIP3    H225251   6.686   2.167  15.919 -0.0166 -0.1612 -0.4348
 1254TIP3   OH225252   4.013   2.786  10.786 -0.5062  0.1712  1.1028
 1254TIP3    H125253   3.932   2.837  10.781 -0.4290  0.2213  0.1923
 1254TIP3    H225254   4.067   2.820  10.714 -0.9298 -1.9929 -0.3463
 1255TIP3   OH225255   0.245   5.221  12.404  0.4305 -0.6717 -0.4988
 1255TIP3    H125256   0.241   5.236  12.499  1.3986 -1.9297 -0.2378
 1255TIP3    H225257   0.153   5.218  12.377  0.1062 -1.2907  0.5811
 1256TIP3   OH225258   6.088   6.396  13.491 -0.6186  0.6848 -0.2552
 1256TIP3    H125259   6.027   6.325  13.477  0.3080 -0.4306  1.1265
 1256TIP3    H225260   6.118   6.419  13.403  1.5486 -2.9144 -0.6567
 1257TIP3   OH225261   4.693   0.967  14.673 -0.5319  0.4459 -0.2246
 1257TIP3    H125262   4.630   1.039  14.681 -1.0082 -0.0913  1.1263
 1257TIP3    H225263   4.685   0.919  14.755 -0.8032 -1.6334 -1.3975
 1258TIP3   OH225264   3.119   4.932   1.094  0.1152  0.5268  0.4929
 1258TIP3    H125265   3.173   5.009   1.111  1.5386 -0.2978 -0.1238
 1258TIP3    H225266   3.146   4.904   1.006  1.0492 -1.7993  1.4634
 1259TIP3   OH225267   1.986   3.067  14.164  0.0045  0.1023 -0.3053
 1259TIP3    H125268   1.968   3.109  14.249  0.7103  1.4583 -0.7966
 1259TIP3    H225269   1.904   3.023  14.141 -0.5174  0.5669  0.6025
 1260TIP3   OH225270   4.587   3.030  14.306 -0.1753  0.7553  0.5895
 1260TIP3    H125271   4.667   3.056  14.261  0.0948  1.8962  1.6881
 1260TIP3    H225272   4.572   3.098  14.371 -0.7297 -0.6701  2.0280
 1261TIP3   OH225273   0.484   5.535  13.379 -0.1335  0.0930  0.1978
 1261TIP3    H125274   0.577   5.517  13.389  0.2292  2.0417  0.8324
 1261TIP3    H225275   0.442   5.491  13.453  0.1507 -1.4525 -0.5269
 1262TIP3   OH225276   3.291   5.697   5.210  0.5902 -0.1172  0.1034
 1262TIP3    H125277   3.290   5.607   5.179 -0.2278  0.0193 -0.2930
 1262TIP3    H225278   3.380   5.710   5.244  0.6329 -1.1558  0.4265
 1263TIP3   OH225279   3.573   1.881   6.667  0.4176 -0.0446  0.4451
 1263TIP3    H125280   3.600   1.900   6.577 -2.4069  1.0650 -0.2838
 1263TIP3    H225281   3.539   1.792   6.664  0.3038 -0.0000  0.3940
 1264TIP3   OH225282   5.463   6.533  11.956  0.5011 -0.4387  0.7287
 1264TIP3    H125283   5.418   6.452  11.980  0.3200 -0.6986 -0.4050
 1264TIP3    H225284   5.394   6.589  11.920  0.5943  0.3026  1.6560
 1265TIP3   OH225285   5.454   2.785   4.245  0.2124  0.3619 -0.4002
 1265TIP3    H125286   5.537   2.758   4.286  0.1223 -1.0684 -1.0894
 1265TIP3    H225287   5.477   2.864   4.197  1.1648  0.0487 -0.4957
 1266TIP3   OH225288   1.788   0.086  14.844  0.8584  0.9679 -0.1592
 1266TIP3    H125289   1.771   0.013  14.903 -1.8122  1.4239 -0.2699
 1266TIP3    H225290   1.825   0.046  14.765  0.5193 -0.1221  0.2309
 1267TIP3   OH225291   3.638   2.514   6.069 -0.3661 -0.0245  0.6599
 1267TIP3    H125292   3.579   2.574   6.115 -3.1951 -2.0021 -0.1076
 1267TIP3    H225293   3.682   2.465   6.138 -0.8830  0.3585  1.2701
 1268TIP3   OH225294   4.230   6.621   0.485 -0.3665  0.5333 -0.1556
 1268TIP3    H125295   4.276   6.612   0.401  2.4433  0.6258  1.2527
 1268TIP3    H225296   4.239   6.714   0.506 -0.6124  0.4183  0.4644
 1269TIP3   OH225297   1.191   2.249  16.758  0.2339  0.5152  0.1492
 1269TIP3    H125298   1.232   2.221  16.677 -0.2856  1.1213 -0.3351
 1269TIP3    H225299   1.168   2.168  16.803  0.3062  0.1736 -0.4236
 1270TIP3   OH225300   2.079   4.025  15.006 -0.4441 -0.2346 -0.0214
 1270TIP3    H125301   2.032   4.087  15.062  1.3344  0.0486  1.2471
 1270TIP3    H225302   2.060   3.940  15.044 -0.2931 -0.1668  0.2061
 1271TIP3   OH225303   2.035   0.860  10.825 -0.0594 -0.1927  0.0119
 1271TIP3    H125304   2.025   0.775  10.867  0.4031 -0.5502 -0.5913
 1271TIP3    H225305   2.123   0.889  10.848 -0.6740  0.7528  1.3259
 1272TIP3   OH225306   4.443   1.275  12.893 -0.0313  0.0897  0.1491
 1272TIP3    H125307   4.366   1.249  12.943 -0.7907  0.1937 -0.9266
 1272TIP3    H225308   4.445   1.371  12.899 -0.0054  0.0891  0.1518
 1273TIP3   OH225309   4.364   2.315  10.539 -0.2103  0.3932 -0.3370
 1273TIP3    H125310   4.283   2.266  10.531 -0.3295 -0.6384  4.3022
 1273TIP3    H225311   4.338   2.399  10.577  0.7483  0.7322 -0.3961
 1274TIP3   OH225312   3.889   2.387   5.147 -0.0119  0.1170  0.0792
 1274TIP3    H125313   3.924   2.423   5.066 -0.0246  1.8871  0.7998
 1274TIP3    H225314   3.798   2.363   5.126  0.6422 -1.6122 -0.9830
 1275TIP3   OH225315   2.479   2.196   4.333  0.1827  0.1076 -0.0981
 1275TIP3    H125316   2.446   2.194   4.422 -0.5403  0.4611 -0.3580
 1275TIP3    H225317   2.534   2.117   4.327  1.7411  1.0192  1.2116
 1276TIP3   OH225318   2.563   6.097   0.130  0.2401  0.4336 -0.1367
 1276TIP3    H125319   2.616   6.159   0.179  0.2289  0.5677 -0.2931
 1276TIP3    H225320   2.591   6.107   0.039  0.4003  0.0449 -0.1310
 1277TIP3   OH225321   6.591   0.067   3.605  0.0569  0.0471 -0.1416
 1277TIP3    H125322   6.498   0.072   3.626  0.0750 -0.5763  0.1192
 1277TIP3    H225323   6.603  -0.022   3.570  0.7994 -0.3651  1.0929
 1278TIP3   OH225324   4.760   4.047   1.499 -0.0115 -0.2183  0.2013
 1278TIP3    H125325   4.695   4.072   1.565 -1.4058 -0.2106 -1.1130
 1278TIP3    H225326   4.732   3.960   1.469  1.0151 -0.5360  0.1007
 1279TIP3   OH225327   5.842   6.080  17.114  0.1206 -0.0404 -0.5016
 1279TIP3    H125328   5.870   6.021  17.045  1.5405  0.0365 -0.0148
 1279TIP3    H225329   5.874   6.166  17.088  0.2682  0.0718  0.0277
 1280TIP3   OH225330   2.943   6.097   3.601 -0.1175  0.2678  0.4761
 1280TIP3    H125331   2.929   6.087   3.507  0.6993 -0.7644  0.4417
 1280TIP3    H225332   2.905   6.017   3.639 -0.2993  0.6025  1.0119
 1281TIP3   OH225333   1.512   2.901  11.321 -0.0341 -0.0251  0.3008
 1281TIP3    H125334   1.510   2.872  11.230  0.4880 -2.5110  1.0026
 1281TIP3    H225335   1.454   2.840  11.367 -3.3583  3.3869  1.1771
 1282TIP3   OH225336   3.820   2.294  15.293 -0.2336 -0.1218  0.0110
 1282TIP3    H125337   3.850   2.368  15.345  0.3316  1.0084 -1.8065
 1282TIP3    H225338   3.826   2.219  15.351  1.1030  0.9372  1.3157
 1283TIP3   OH225339   2.012   5.032  14.982 -0.1818  0.2293  0.1367
 1283TIP3    H125340   2.043   5.061  14.897 -0.6526  1.1294  0.2586
 1283TIP3    H225341   1.922   5.004  14.966 -0.7055  1.5946  0.5544
 1284TIP3   OH225342   4.218   0.249   0.646 -0.3676  0.0894 -0.0233
 1284TIP3    H125343   4.305   0.268   0.681 -0.7033 -1.4013  1.7884
 1284TIP3    H225344   4.160   0.251   0.723 -1.8886  0.6604 -1.1238
 1285TIP3   OH225345   5.897   0.401  11.000 -0.0991 -1.1296 -0.0586
 1285TIP3    H125346   5.956   0.392  10.924 -1.2700 -0.5225 -1.0672
 1285TIP3    H225347   5.908   0.319  11.048  2.1142 -0.7621  0.2114
 1286TIP3   OH225348   2.721   1.713  11.354 -0.2071 -0.7321 -0.0274
 1286TIP3    H125349   2.753   1.666  11.431 -0.5593 -3.4288 -1.4109
 1286TIP3    H225350   2.798   1.722  11.298  0.1908  1.7815  0.7788
 1287TIP3   OH225351   0.741   0.898  11.389 -0.7045 -0.4542 -0.0576
 1287TIP3    H125352   0.783   0.831  11.336 -1.6760 -1.4678  0.4061
 1287TIP3    H225353   0.774   0.883  11.478 -2.3761 -1.6144  0.4192
 1288TIP3   OH225354   2.871   2.087   5.319 -0.2025  0.0117  0.1263
 1288TIP3    H125355   2.873   2.067   5.225  1.5511  0.2684  0.0768
 1288TIP3    H225356   2.957   2.059   5.351 -1.1844 -1.1627  1.9089
 1289TIP3   OH225357   2.884   2.501   1.758 -0.4652  0.0560  0.6968
 1289TIP3    H125358   2.915   2.412   1.774 -0.1125 -0.0703 -0.5936
 1289TIP3    H225359   2.792   2.490   1.734 -0.0873 -0.1223 -0.7737
 1290TIP3   OH225360   0.113   5.307   5.173 -0.0897  0.1771 -0.7672
 1290TIP3    H125361   0.155   5.270   5.250 -1.2699 -0.7705 -0.5543
 1290TIP3    H225362   0.123   5.240   5.106  0.5412  0.8144 -1.3260
 1291TIP3   OH225363   3.952   3.854   5.582 -0.2588 -0.2184  0.1704
 1291TIP3    H125364   4.005   3.821   5.655 -1.0652  1.7664  1.7362
 1291TIP3    H225365   3.883   3.790   5.572  1.7684 -2.3401 -1.2454
 1292TIP3   OH225366   3.743   5.205  13.758  0.3475 -0.0722  0.3183
 1292TIP3    H125367   3.748   5.132  13.819  0.3429  0.5231  1.0359
 1292TIP3    H225368   3.724   5.281  13.812  0.2742  0.4561 -0.4311
 1293TIP3   OH225369   3.406   2.454   3.962  0.1657 -0.6200 -0.4725
 1293TIP3    H125370   3.484   2.420   4.004 -1.3380 -2.9016  0.6552
 1293TIP3    H225371   3.421   2.443   3.868  2.1180  1.2810 -0.4653
 1294TIP3   OH225372   6.259   0.893   5.710 -0.3384  0.0773 -0.5034
 1294TIP3    H125373   6.283   0.807   5.744 -0.3227 -0.0103 -0.7397
 1294TIP3    H225374   6.210   0.934   5.782  1.2114  0.5890  0.3266
 1295TIP3   OH225375   5.684   3.467  11.446  0.0458 -0.2093  0.1658
 1295TIP3    H125376   5.686   3.413  11.525  1.5397  1.2939  1.2164
 1295TIP3    H225377   5.630   3.542  11.470  0.3807  0.1805 -0.2913
 1296TIP3   OH225378   6.594   5.313  15.621 -0.4541  0.3436 -0.1602
 1296TIP3    H125379   6.625   5.232  15.581 -1.0970 -0.1336  0.2975
 1296TIP3    H225380   6.666   5.375  15.608  0.6895 -0.7229  0.7963
 1297TIP3   OH225381   2.458   0.144   3.811 -0.8607  0.0150  0.4849
 1297TIP3    H125382   2.393   0.190   3.864 -0.6326  0.0366  0.7463
 1297TIP3    H225383   2.413   0.065   3.781 -0.6558 -0.5417  1.5989
 1298TIP3   OH225384   6.415   6.594   0.084 -0.5380  0.0707  0.3044
 1298TIP3    H125385   6.441   6.686   0.088 -0.9447  0.1615  1.1483
 1298TIP3    H225386   6.471   6.550   0.147  0.2960 -0.4455 -0.7549
 1299TIP3   OH225387   3.715   3.724  15.898  0.5506 -0.5500  0.2479
 1299TIP3    H125388   3.739   3.632  15.906  1.0194 -0.5719 -1.2025
 1299TIP3    H225389   3.619   3.724  15.904  0.5539 -1.1221  0.3609
 1300TIP3   OH225390   5.395   4.082  11.458  0.0442  0.0666  0.1167
 1300TIP3    H125391   5.432   4.132  11.385 -0.3999 -0.5873 -0.5722
 1300TIP3    H225392   5.401   3.990  11.429  0.2088 -0.2264  1.0612
 1301TIP3   OH225393   6.057   5.082   0.206 -0.1771  0.3270  0.1926
 1301TIP3    H125394   5.998   5.104   0.134 -2.0248  0.4756  1.6882
 1301TIP3    H225395   6.002   5.086   0.284  2.6034  4.4571  2.2466
 1302TIP3   OH225396   4.085   2.171  14.185  0.5918 -0.6480  0.4019
 1302TIP3    H125397   4.145   2.112  14.231 -0.2794 -1.3743  0.6407
 1302TIP3    H225398   4.081   2.249  14.241  2.5030  0.0828 -0.4069
 1303TIP3   OH225399   2.854   5.792   4.658  0.3458 -0.0225 -0.0504
 1303TIP3    H125400   2.759   5.784   4.666  0.2046  0.2095 -1.2480
 1303TIP3    H225401   2.874   5.754   4.572  1.5522 -1.6058  0.8723
 1304TIP3   OH225402   6.499   4.772  17.067  0.0926 -0.1624  0.5930
 1304TIP3    H125403   6.547   4.702  17.110 -1.6435 -1.8022  0.0243
 1304TIP3    H225404   6.486   4.838  17.135  1.5760 -0.4788  1.2048
 1305TIP3   OH225405   2.962   2.428   4.590 -0.3142  0.1917 -0.5523
 1305TIP3    H125406   2.900   2.499   4.575 -0.7055  0.1494  0.7889
 1305TIP3    H225407   2.963   2.416   4.685  2.2341  0.5974 -0.4823
 1306TIP3   OH225408   4.589   2.107   4.191  0.0539 -0.6344 -0.7784
 1306TIP3    H125409   4.564   2.124   4.100 -0.4051 -0.9063 -0.7045
 1306TIP3    H225410   4.661   2.044   4.185  0.6490  0.0447 -0.9855
 1307TIP3   OH225411   3.639   5.631   2.289  0.6046 -0.0704  0.2443
 1307TIP3    H125412   3.566   5.689   2.310  1.7630  1.5573  0.0016
 1307TIP3    H225413   3.684   5.674   2.217  0.2455 -2.4526 -1.5126
 1308TIP3   OH225414   0.407   0.543  15.548  0.0705  0.3405  0.4305
 1308TIP3    H125415   0.437   0.500  15.468  0.2378  0.2731  0.5289
 1308TIP3    H225416   0.487   0.575  15.589 -0.0303  0.5084  0.4933
 1309TIP3   OH225417   5.548   1.159  17.228 -0.3544  0.5153 -0.1712
 1309TIP3    H125418   5.584   1.082  17.183  0.7790  1.8893 -1.7642
 1309TIP3    H225419   5.568   1.232  17.169 -1.2556  2.0644  1.3561
 1310TIP3   OH225420   0.549   3.961   4.607 -0.2246 -0.2620 -0.5066
 1310TIP3    H125421   0.485   3.982   4.539  2.1342  1.8320 -2.2796
 1310TIP3    H225422   0.603   3.892   4.568 -0.0489 -0.4498  0.0612
 1311TIP3   OH225423   2.301   3.540  14.342 -0.4355 -0.8316 -0.5800
 1311TIP3    H125424   2.229   3.580  14.390  0.7718  3.2879 -1.7640
 1311TIP3    H225425   2.332   3.470  14.399 -2.7203 -0.0081  1.8677
 1312TIP3   OH225426   1.518   4.866  12.840  0.7986 -0.0468 -0.2538
 1312TIP3    H125427   1.589   4.823  12.792  2.0600  2.1681 -0.5639
 1312TIP3    H225428   1.443   4.863  12.781  1.1691 -0.8487 -0.6906
 1313TIP3   OH225429   6.735   4.994  16.669  0.4759 -0.5098 -0.5741
 1313TIP3    H125430   6.766   4.911  16.633  0.2516 -0.7172 -0.2946
 1313TIP3    H225431   6.669   4.969  16.734  2.2886 -0.2862  1.4952
 1314TIP3   OH225432   2.831   4.735   1.876  0.5151 -0.2703  0.3938
 1314TIP3    H125433   2.759   4.673   1.886  0.8005 -0.5936  0.4404
 1314TIP3    H225434   2.879   4.705   1.799  0.5716 -0.0249  0.3319
 1315TIP3   OH225435   5.500   6.345  15.145  0.2868 -0.0357  0.2229
 1315TIP3    H125436   5.587   6.367  15.179 -0.0587  0.5423  0.7609
 1315TIP3    H225437   5.504   6.371  15.053  0.9121 -0.6838  0.0580
 1316TIP3   OH225438   5.845   2.187  16.748 -0.0945  0.1079 -0.0197
 1316TIP3    H125439   5.867   2.106  16.793  0.8055  0.7286  0.6975
 1316TIP3    H225440   5.802   2.241  16.814  1.9148  1.3208  0.4125
 1317TIP3   OH225441   4.073   0.189   6.535 -0.1220  0.0589  0.0300
 1317TIP3    H125442   3.983   0.199   6.502 -1.1739 -0.5077  2.4543
 1317TIP3    H225443   4.111   0.277   6.528 -1.4874  0.7249  0.5388
 1318TIP3   OH225444   3.693   1.659   2.863  0.5205  0.5594  0.1262
 1318TIP3    H125445   3.727   1.583   2.816  0.5278  0.2948  0.5567
 1318TIP3    H225446   3.640   1.705   2.799 -1.3534 -1.0043  0.4623
 1319TIP3   OH225447   0.648   0.971   5.707  0.2386  0.0529  0.5376
 1319TIP3    H125448   0.641   0.977   5.803  1.2062  0.0576  0.6201
 1319TIP3    H225449   0.736   0.937   5.692  1.0840  2.4613 -0.4169
 1320TIP3   OH225450   1.302   3.154   6.490  0.1774 -0.3173  0.2663
 1320TIP3    H125451   1.243   3.079   6.495 -0.7602  0.4079  0.1810
 1320TIP3    H225452   1.356   3.136   6.413  0.1711 -1.0487  0.4208
 1321TIP3   OH225453   6.126   2.665   3.805 -0.6880  0.0645  0.4357
 1321TIP3    H125454   6.150   2.587   3.856 -1.0614 -1.0457 -1.0059
 1321TIP3    H225455   6.075   2.719   3.865 -0.4087 -0.7975  1.4736
 1322TIP3   OH225456   2.211   5.761   0.678 -0.4084  0.4734 -0.5261
 1322TIP3    H125457   2.188   5.668   0.675 -1.5231  0.7447 -1.3538
 1322TIP3    H225458   2.172   5.797   0.598 -2.9213  2.2525  1.3450
 1323TIP3   OH225459   0.364   1.079  16.378 -0.4534  0.0267 -0.3384
 1323TIP3    H125460   0.334   1.055  16.289  2.2992  1.3043 -1.7241
 1323TIP3    H225461   0.328   1.166  16.392 -0.8600 -0.1606 -0.1991
 1324TIP3   OH225462   1.689   6.661  11.544 -0.2696 -0.5712 -0.2387
 1324TIP3    H125463   1.645   6.687  11.625  0.5371  0.4691 -0.1063
 1324TIP3    H225464   1.729   6.577  11.564  0.9775  0.2409  0.9024
 1325TIP3   OH225465   1.254   4.412   0.472 -0.2599  0.0979  0.4760
 1325TIP3    H125466   1.303   4.485   0.434  2.6825 -1.3285  1.2169
 1325TIP3    H225467   1.267   4.340   0.411 -1.1192 -0.4369  0.9050
 1326TIP3   OH225468   3.075   5.825   6.353 -0.4114 -0.2213 -0.1291
 1326TIP3    H125469   3.164   5.836   6.386  0.7964 -1.5970 -2.6181
 1326TIP3    H225470   3.062   5.898   6.293 -1.9883  1.3854  2.0314
 1327TIP3   OH225471   4.310   3.856   0.240  0.0586  0.5051  0.0681
 1327TIP3    H125472   4.359   3.892   0.314 -1.5746 -0.1409  1.5389
 1327TIP3    H225473   4.313   3.761   0.253 -0.1627  0.3764 -0.7624
 1328TIP3   OH225474   3.793   4.190  11.572  0.2172 -0.3317  0.3586
 1328TIP3    H125475   3.767   4.197  11.664 -0.7971 -0.2220  0.0718
 1328TIP3    H225476   3.864   4.126  11.572 -0.8147 -1.5269  1.0425
 1329TIP3   OH225477   0.600   3.171  12.397  0.2542  0.2225 -0.0809
 1329TIP3    H125478   0.525   3.145  12.450 -2.4591 -0.4533 -3.8471
 1329TIP3    H225479   0.676   3.142  12.447 -1.9544 -0.0600  3.4672
 1330TIP3   OH225480   4.548   3.648  13.472  0.3856  0.0729  0.1249
 1330TIP3    H125481   4.565   3.723  13.415  2.7811  0.5520  1.3127
 1330TIP3    H225482   4.458   3.659  13.501 -0.0588  1.1911 -1.5375
 1331TIP3   OH225483   4.746   4.465   0.199  0.3622  0.0885  0.1030
 1331TIP3    H125484   4.837   4.478   0.224  0.3372  0.4203  0.0264
 1331TIP3    H225485   4.702   4.546   0.225  0.6334  1.1463 -2.4427
 1332TIP3   OH225486   4.648   6.106   4.496  0.5752  0.3285 -0.1212
 1332TIP3    H125487   4.665   6.196   4.467  0.5935  0.4820  0.3653
 1332TIP3    H225488   4.619   6.061   4.416  2.7130  0.1853 -0.8858
 1333TIP3   OH225489   1.207   6.096  13.803 -0.2393 -0.0482  0.2127
 1333TIP3    H125490   1.218   6.167  13.866 -1.6486 -0.2830  0.7526
 1333TIP3    H225491   1.238   6.132  13.720 -0.3122  0.9565  0.6138
 1334TIP3   OH225492   2.995   0.792  13.728 -0.4552  0.0598  0.0028
 1334TIP3    H125493   3.050   0.840  13.665 -0.9359  0.6152 -0.0119
 1334TIP3    H225494   2.994   0.847  13.806 -0.1501 -0.4557  0.3737
 1335TIP3   OH225495   5.428   4.745   2.633  0.1434 -1.0131 -0.0662
 1335TIP3    H125496   5.516   4.755   2.671  0.1581 -1.3938  0.0072
 1335TIP3    H225497   5.430   4.658   2.593  0.9185  0.1892 -2.9772
 1336TIP3   OH225498   1.497   3.709   1.949 -0.4342 -0.9634 -0.1708
 1336TIP3    H125499   1.445   3.782   1.916 -0.3664 -0.1066  1.5102
 1336TIP3    H225500   1.564   3.694   1.882 -1.4106 -0.5468 -1.2703
 1337TIP3   OH225501   4.322   0.706  11.659  0.2249  0.3704 -0.1622
 1337TIP3    H125502   4.255   0.690  11.592 -2.5519  1.5138  2.0908
 1337TIP3    H225503   4.286   0.664  11.738  2.8055  0.0340  0.9221
 1338TIP3   OH225504   4.751   6.356  13.907  0.6340 -0.1544 -0.1373
 1338TIP3    H125505   4.740   6.437  13.957 -0.9462 -0.0868 -0.5520
 1338TIP3    H225506   4.787   6.294  13.970  1.5975  0.7730  0.2602
 1339TIP3   OH225507   6.330   4.987   3.496 -0.0495 -0.0935  0.5519
 1339TIP3    H125508   6.285   5.071   3.502 -1.3724 -0.5571 -1.6548
 1339TIP3    H225509   6.421   5.011   3.478 -0.5086  0.9244 -0.6414
 1340TIP3   OH225510   3.906   6.765   0.791  0.2908 -0.3091  0.4655
 1340TIP3    H125511   3.897   6.783   0.697  1.9858 -0.6045  0.2118
 1340TIP3    H225512   3.921   6.851   0.830  0.8583 -0.3251  0.2874
 1341TIP3   OH225513   2.518   5.852   1.290  0.0287  0.1406 -0.2594
 1341TIP3    H125514   2.578   5.779   1.298  0.6764  0.5339 -1.2447
 1341TIP3    H225515   2.568   5.928   1.320 -0.2203  0.3544 -0.3761
 1342TIP3   OH225516   4.007   0.758   1.174 -0.0040 -0.1412 -0.7377
 1342TIP3    H125517   3.921   0.791   1.200 -0.2973 -1.4399  0.0307
 1342TIP3    H225518   3.991   0.711   1.093 -0.3569 -1.7740  0.2412
 1343TIP3   OH225519   4.569   3.351  14.128 -0.8087 -0.0280 -0.4685
 1343TIP3    H125520   4.647   3.382  14.174 -0.3398  0.7467 -1.7197
 1343TIP3    H225521   4.504   3.336  14.197  0.5546 -1.0733  0.6339
 1344TIP3   OH225522   4.645   1.970  14.391  0.5175  0.0506 -0.3077
 1344TIP3    H125523   4.600   2.050  14.363 -0.7424 -0.8909 -1.0704
 1344TIP3    H225524   4.659   1.921  14.310  0.8262 -0.7172  0.2062
 1345TIP3   OH225525   2.309   1.305   3.756 -0.1528  0.4648  0.3691
 1345TIP3    H125526   2.287   1.277   3.668  0.4344 -0.5852  0.5362
 1345TIP3    H225527   2.238   1.365   3.781 -0.6356  0.3083 -0.5815
 1346TIP3   OH225528   5.766   0.265  16.860  0.7125  0.3752  0.3206
 1346TIP3    H125529   5.704   0.336  16.847  0.3205 -0.1874 -1.0966
 1346TIP3    H225530   5.821   0.294  16.932 -1.7693  0.4683  2.3027
 1347TIP3   OH225531   1.340   2.001  11.509  0.0468  0.8700 -0.2880
 1347TIP3    H125532   1.434   1.997  11.493  0.6871  3.9445  1.7466
 1347TIP3    H225533   1.300   1.995  11.422  2.1517  0.4484 -1.2788
 1348TIP3   OH225534   3.580   0.288   3.740  0.3337 -0.1010  0.2301
 1348TIP3    H125535   3.486   0.303   3.750  0.0479 -0.3149 -1.7440
 1348TIP3    H225536   3.615   0.295   3.829 -1.9129 -2.6282  1.4459
 1349TIP3   OH225537   5.146   4.255   0.765  0.7093 -0.2295 -0.8802
 1349TIP3    H125538   5.228   4.222   0.803  0.0277 -0.2076  0.7058
 1349TIP3    H225539   5.168   4.342   0.732  0.8263  0.8646  1.7985
 1350TIP3   OH225540   0.844   0.372  15.657 -0.4500 -0.4006  0.3374
 1350TIP3    H125541   0.782   0.429  15.613  0.4014 -0.5597 -1.1470
 1350TIP3    H225542   0.794   0.293  15.676 -2.0947  1.3164  3.8854
 1351TIP3   OH225543   3.368   6.064  10.520  0.0489  0.1930  0.1364
 1351TIP3    H125544   3.411   6.106  10.594  0.7992 -0.6462  0.1831
 1351TIP3    H225545   3.294   6.017  10.559  0.4650 -0.2779  0.3629
 1352TIP3   OH225546   1.990   5.564   0.391 -0.6528 -0.3309 -0.4674
 1352TIP3    H125547   2.023   5.513   0.466 -1.3823 -0.1511 -0.0186
 1352TIP3    H225548   2.069   5.587   0.342  0.1460  1.6760  1.5659
 1353TIP3   OH225549   5.938   3.290  12.560  0.3640 -0.2811  0.6675
 1353TIP3    H125550   5.997   3.274  12.485  0.9037 -0.3679  1.1023
 1353TIP3    H225551   5.859   3.241  12.539  1.4454 -2.4245  1.3215
 1354TIP3   OH225552   5.216   2.495  14.347 -0.7483 -0.2073 -0.1984
 1354TIP3    H125553   5.175   2.422  14.299 -0.4190  0.2235 -1.1473
 1354TIP3    H225554   5.290   2.521  14.292 -0.0441 -0.0424  0.8083
 1355TIP3   OH225555   3.421   6.372   0.246 -0.0414 -0.1004  0.5678
 1355TIP3    H125556   3.432   6.339   0.336  0.1833  1.4296  1.1367
 1355TIP3    H225557   3.510   6.395   0.219  0.3563 -3.2178 -1.1963
 1356TIP3   OH225558   3.677   5.457  16.433  0.2052  0.5635 -0.2843
 1356TIP3    H125559   3.586   5.466  16.460  0.3594  1.2867  0.0311
 1356TIP3    H225560   3.722   5.531  16.475  1.2381 -0.6441  0.8066
 1357TIP3   OH225561   3.648   2.794  11.515 -0.4498 -0.0903  0.3415
 1357TIP3    H125562   3.651   2.706  11.477 -1.0929 -0.3835  0.9453
 1357TIP3    H225563   3.563   2.829  11.489  0.4197  0.9887 -1.2293
 1358TIP3   OH225564   0.201   0.237  15.616  0.2819  0.2513 -1.0866
 1358TIP3    H125565   0.132   0.210  15.677  0.9924  0.0537 -0.3484
 1358TIP3    H225566   0.212   0.162  15.557  0.4286 -0.0395 -0.6930
 1359TIP3   OH225567   1.677   5.093   0.225  0.7651 -0.1638  0.5867
 1359TIP3    H125568   1.611   5.160   0.242 -0.1719 -0.6203 -1.0516
 1359TIP3    H225569   1.628   5.019   0.189  2.1214 -0.6474 -0.3505
 1360TIP3   OH225570   2.262   5.900  16.733  0.4804  0.3783  0.1387
 1360TIP3    H125571   2.319   5.836  16.690  2.1438  1.9803 -0.1449
 1360TIP3    H225572   2.286   5.984  16.694 -0.9427  1.3397  1.2125
 1361TIP3   OH225573   6.134   4.178  16.478  0.3817 -0.3498  0.0664
 1361TIP3    H125574   6.109   4.260  16.436  0.1507 -1.3380 -1.8313
 1361TIP3    H225575   6.106   4.188  16.569 -1.7612  0.7716 -0.6645
 1362TIP3   OH225576   0.435   5.952  15.460 -0.1071  0.1623  0.2798
 1362TIP3    H125577   0.423   5.860  15.437  0.9799  0.1201 -0.1923
 1362TIP3    H225578   0.513   5.979  15.411 -0.6122  1.4366  0.1428
 1363TIP3   OH225579   4.396   4.722  16.197  0.1305  0.0624  0.1158
 1363TIP3    H125580   4.329   4.671  16.244 -0.0962  1.2499  1.1620
 1363TIP3    H225581   4.373   4.813  16.216  1.9688  0.5059  0.4023
 1364TIP3   OH225582   3.564   5.863  15.375 -0.1135 -0.5535 -0.0278
 1364TIP3    H125583   3.615   5.942  15.390 -0.1607 -0.4353 -0.4543
 1364TIP3    H225584   3.627   5.792  15.378  0.0129 -0.4472 -0.1413
 1365TIP3   OH225585   6.519   5.537  13.608 -0.3242  0.7702 -0.2094
 1365TIP3    H125586   6.581   5.476  13.568  1.1995  0.4183  2.4597
 1365TIP3    H225587   6.552   5.624  13.581  1.1080  0.5683  0.7505
 1366TIP3   OH225588   1.914   4.009   2.355 -0.7256 -0.1874  0.6273
 1366TIP3    H125589   1.956   4.067   2.291 -0.6309  0.5599  1.3485
 1366TIP3    H225590   1.872   3.942   2.302  0.1148 -0.0995 -0.1813
 1367TIP3   OH225591   5.357   4.916  11.520  0.6875 -0.4268  0.2372
 1367TIP3    H125592   5.364   4.830  11.561 -0.0487 -0.8582 -0.5019
 1367TIP3    H225593   5.402   4.905  11.435  2.3128  0.4820  0.9272
 1368TIP3   OH225594   5.266   1.017  12.786 -0.9769  0.1756  0.1848
 1368TIP3    H125595   5.224   1.092  12.744  1.4904  2.1868  1.0472
 1368TIP3    H225596   5.277   1.043  12.877 -1.1266 -1.7542  0.7999
 1369TIP3   OH225597   0.429   4.496  15.273  0.2284 -0.3699  0.4272
 1369TIP3    H125598   0.411   4.583  15.308  0.8380 -0.7897  1.8393
 1369TIP3    H225599   0.354   4.443  15.300  0.2089 -0.4677  0.1901
 1370TIP3   OH225600   4.814   5.224  13.127 -0.1140 -0.2808  0.2267
 1370TIP3    H125601   4.775   5.297  13.079  0.4487 -0.1518 -0.0339
 1370TIP3    H225602   4.859   5.265  13.201 -1.0089 -0.4790  0.9111
 1371TIP3   OH225603   2.156   1.232  12.487  0.6790 -0.4096  0.0674
 1371TIP3    H125604   2.230   1.172  12.473  0.1791 -0.9128 -0.4726
 1371TIP3    H225605   2.081   1.186  12.451  0.8981  2.3470 -4.9416
 1372TIP3   OH225606   5.439   5.280   5.240  0.1544 -0.3573 -1.0384
 1372TIP3    H125607   5.478   5.244   5.319  1.8502 -1.0638 -2.1437
 1372TIP3    H225608   5.363   5.225   5.224 -1.7549  1.3416  1.4164
 1373TIP3   OH225609   5.816   5.826  14.917  0.4363 -0.2517  0.2371
 1373TIP3    H125610   5.736   5.793  14.957  0.7147  1.6609  2.5353
 1373TIP3    H225611   5.799   5.821  14.823 -1.9108 -0.9327  0.6374
 1374TIP3   OH225612   1.313   4.089   1.574  0.0742 -0.0185 -0.1552
 1374TIP3    H125613   1.277   4.109   1.660 -2.1451 -0.2656 -0.9312
 1374TIP3    H225614   1.334   3.995   1.578  1.2173  0.2557  0.4936
 1375TIP3   OH225615   3.536   6.712   6.360  0.2377  0.3579 -0.3402
 1375TIP3    H125616   3.588   6.768   6.416 -0.5746 -0.5963  1.4552
 1375TIP3    H225617   3.564   6.623   6.381 -1.6418 -0.1539  0.2411
 1376TIP3   OH225618   3.164   5.540  13.765 -0.1631  0.3366  0.9521
 1376TIP3    H125619   3.069   5.540  13.754  0.1200 -0.5111 -3.4347
 1376TIP3    H225620   3.181   5.614  13.823 -3.4397  0.8091  1.5289
 1377TIP3   OH225621   6.393   5.794   2.910  0.2236  0.0227  0.2560
 1377TIP3    H125622   6.336   5.785   2.834 -0.5198 -1.4414  0.9352
 1377TIP3    H225623   6.418   5.886   2.911  1.4520 -0.1935 -2.5850
 1378TIP3   OH225624   6.188   2.956  16.441  0.0892 -0.1123 -0.1304
 1378TIP3    H125625   6.199   2.993  16.529  0.7781 -1.8636  0.5631
 1378TIP3    H225626   6.274   2.918  16.421  0.0354  0.5310 -1.7214
 1379TIP3   OH225627   0.397   0.815  14.167  0.4168 -0.3186 -0.2450
 1379TIP3    H125628   0.420   0.746  14.106  0.1855 -0.3846 -0.2580
 1379TIP3    H225629   0.461   0.808  14.237  0.7494 -0.1735 -0.5342
 1380TIP3   OH225630   0.193   3.954  14.916  0.6882  0.2140  0.2344
 1380TIP3    H125631   0.253   3.879  14.924  0.5570  0.2098  1.3337
 1380TIP3    H225632   0.206   3.985  14.827  1.5286 -0.4694  0.1002
 1381TIP3   OH225633   4.758   4.692  15.942  0.0359  0.0033  0.0728
 1381TIP3    H125634   4.735   4.700  15.849  1.8974 -0.1962 -0.4412
 1381TIP3    H225635   4.782   4.780  15.969  1.1711 -0.2313 -0.1274
 1382TIP3   OH225636   0.478   5.150   5.083  0.7371  0.0182  0.1264
 1382TIP3    H125637   0.444   5.190   5.163  1.4802  3.2738 -1.0333
 1382TIP3    H225638   0.401   5.137   5.028  0.4199 -0.8407  0.7325
 1383TIP3   OH225639   2.263   6.510   0.225 -0.1300  0.3472  0.3625
 1383TIP3    H125640   2.255   6.594   0.270  1.5350  0.8144 -0.1126
 1383TIP3    H225641   2.177   6.469   0.234 -1.1937  2.3663  0.0591
 1384TIP3   OH225642   2.619   6.336   1.126 -0.3385  0.0202  0.0503
 1384TIP3    H125643   2.601   6.429   1.119 -0.0516  0.0491 -0.3170
 1384TIP3    H225644   2.706   6.325   1.088 -0.6983 -0.5190 -0.6351
 1385TIP3   OH225645   5.449   0.525   2.278 -0.3780  0.1320  0.3492
 1385TIP3    H125646   5.412   0.445   2.240 -0.0645  0.1844 -0.0790
 1385TIP3    H225647   5.413   0.596   2.224  0.2209  0.1930  0.0215
 1386TIP3   OH225648   1.979   0.976  13.783  0.1179  0.1036 -0.2108
 1386TIP3    H125649   1.980   0.945  13.874 -1.0826  0.3762 -0.0926
 1386TIP3    H225650   1.888   0.999  13.766 -0.0531 -1.7048 -2.0944
 1387TIP3   OH225651   2.943   6.214  15.700 -0.2475 -0.0475  0.3855
 1387TIP3    H125652   2.875   6.222  15.767 -0.9683 -1.1020 -0.1873
 1387TIP3    H225653   3.023   6.194  15.749 -0.3049  1.2544  1.0705
 1388TIP3   OH225654   4.582   5.480   6.612  0.1292 -0.2119  0.1602
 1388TIP3    H125655   4.561   5.411   6.675 -0.2359  0.1419  0.4319
 1388TIP3    H225656   4.510   5.478   6.548 -0.2349  0.3441  0.5373
 1389TIP3   OH225657   5.439   0.927   1.748 -0.7970 -0.2777 -0.1901
 1389TIP3    H125658   5.399   0.872   1.815 -0.2382 -0.9909 -0.4310
 1389TIP3    H225659   5.525   0.889   1.734 -0.6261  0.3107 -0.7864
 1390TIP3   OH225660   2.739   4.769   4.118  0.4738 -0.3282  0.5855
 1390TIP3    H125661   2.819   4.808   4.082  0.1099 -0.0978  0.0121
 1390TIP3    H225662   2.686   4.843   4.144 -0.3885 -0.3903 -0.8655
 1391TIP3   OH225663   2.190   2.839   4.184  0.3665  0.1035  0.3975
 1391TIP3    H125664   2.234   2.877   4.108  0.6008 -1.4709 -0.2865
 1391TIP3    H225665   2.143   2.764   4.149  0.4497 -0.6298  1.8004
 1392TIP3   OH225666   4.455   0.806  14.023  0.6961 -0.3473 -0.1935
 1392TIP3    H125667   4.476   0.892  13.987 -0.1294  0.2585  0.7057
 1392TIP3    H225668   4.442   0.751  13.946 -0.7324  0.8327 -0.8562
 1393TIP3   OH225669   3.411   2.699   3.502  0.1555  0.2064 -1.1827
 1393TIP3    H125670   3.398   2.791   3.525 -1.6947 -1.0728  4.4740
 1393TIP3    H225671   3.324   2.659   3.509  1.4744 -2.6716  1.6308
 1394TIP3   OH225672   6.090   6.725  13.817  0.2331  0.3771 -0.0722
 1394TIP3    H125673   6.094   6.820  13.810  0.4426  0.3752  0.0172
 1394TIP3    H225674   6.058   6.709  13.906  0.2979  0.3628 -0.0518
 1395TIP3   OH225675   2.015   1.469  11.881  0.1388 -0.3864  0.5588
 1395TIP3    H125676   1.946   1.443  11.942 -0.2555 -0.2784  0.1608
 1395TIP3    H225677   2.083   1.508  11.936  0.3000 -1.3429  1.0598
 1396TIP3   OH225678   6.804   3.976   6.629  0.7477  0.4190  0.4364
 1396TIP3    H125679   6.715   3.944   6.614  1.3805 -0.4433 -1.8422
 1396TIP3    H225680   6.860   3.904   6.601  2.1836  2.1930 -1.5146
 1397TIP3   OH225681   6.299   2.356  12.852  0.4827 -0.2716 -0.1728
 1397TIP3    H125682   6.310   2.337  12.759 -0.3525  0.6549 -0.4761
 1397TIP3    H225683   6.243   2.286  12.884 -0.3459  0.1481 -0.6779
 1398TIP3   OH225684   5.906   6.562  15.520 -0.2052 -1.0605 -0.8979
 1398TIP3    H125685   5.853   6.586  15.596 -0.4061 -1.0686 -1.0351
 1398TIP3    H225686   5.845   6.513  15.464  0.3964 -2.6385 -0.2416
 1399TIP3   OH225687   6.117   4.565  11.025 -0.1861 -0.1575 -0.0075
 1399TIP3    H125688   6.117   4.525  10.938  0.5505  1.2923 -0.7098
 1399TIP3    H225689   6.196   4.619  11.026 -0.5189  0.3279  1.3459
 1400TIP3   OH225690   3.354   1.178  13.124 -0.5574  0.4934  0.0668
 1400TIP3    H125691   3.441   1.150  13.152 -1.4878 -0.6519  2.0467
 1400TIP3    H225692   3.336   1.127  13.045 -0.0890 -0.5536  0.6200
 1401TIP3   OH225693   0.475   4.722  12.553 -0.3565 -0.2232  0.1036
 1401TIP3    H125694   0.472   4.709  12.648 -0.0552 -2.2564 -0.1205
 1401TIP3    H225695   0.389   4.757  12.530 -1.4108 -2.2078  0.8364
 1402TIP3   OH225696   3.586   0.400  12.950  0.1429 -0.0867 -0.1297
 1402TIP3    H125697   3.613   0.315  12.985 -0.5511 -0.6164 -0.8512
 1402TIP3    H225698   3.497   0.412  12.981  1.0804  1.6067  2.1395
 1403TIP3   OH225699   4.188   4.418   6.111  0.3186  0.3913  0.3877
 1403TIP3    H125700   4.276   4.392   6.085 -0.2978 -0.1018 -1.3043
 1403TIP3    H225701   4.174   4.372   6.194  0.2678 -2.7268 -1.1988
 1404TIP3   OH225702   3.818   6.660   2.628 -0.0872 -0.1059 -0.6799
 1404TIP3    H125703   3.848   6.629   2.543 -0.1020 -3.0636  0.2816
 1404TIP3    H225704   3.888   6.719   2.658  1.2457 -1.1709 -1.5897
 1405TIP3   OH225705   5.062   5.247  13.287  0.1495 -0.1388  0.1067
 1405TIP3    H125706   5.115   5.247  13.207  0.3038  0.0518  0.2060
 1405TIP3    H225707   5.034   5.156  13.299  0.1679 -0.1744 -0.1360
 1406TIP3   OH225708   0.168   0.628   5.456  0.5416  0.0438  0.6731
 1406TIP3    H125709   0.215   0.555   5.415 -2.5702 -2.8058  1.7340
 1406TIP3    H225710   0.184   0.702   5.398  1.9053 -2.0481 -1.8611
 1407TIP3   OH225711   5.190   0.602   3.695  0.2483 -0.2362 -0.2020
 1407TIP3    H125712   5.199   0.591   3.600  1.7307 -1.1816  0.0100
 1407TIP3    H225713   5.129   0.533   3.721  1.3372 -1.2597 -0.2550
 1408TIP3   OH225714   3.651   5.189   6.729  0.1601  0.2432 -0.6030
 1408TIP3    H125715   3.614   5.170   6.643 -0.4388  1.7728 -0.7117
 1408TIP3    H225716   3.635   5.282   6.742  1.5051  0.3397  0.5720
 1409TIP3   OH225717   3.238   6.389   1.082 -0.0088 -0.0757 -0.0315
 1409TIP3    H125718   3.163   6.428   1.128 -0.2418 -0.9792  0.3722
 1409TIP3    H225719   3.309   6.390   1.147  0.1394  0.1462 -0.1929
 1410TIP3   OH225720   0.489   2.551   1.263  0.0691  0.0025 -0.4543
 1410TIP3    H125721   0.417   2.613   1.270  0.2748  0.3311 -1.1489
 1410TIP3    H225722   0.448   2.465   1.275  0.0310  0.3145  2.2040
 1411TIP3   OH225723   5.052   3.067   1.395  0.3176  0.0168 -0.3559
 1411TIP3    H125724   5.013   3.155   1.398  1.4905  0.5281  0.3299
 1411TIP3    H225725   5.084   3.059   1.305 -0.7019 -0.1286 -0.7199
 1412TIP3   OH225726   2.478   2.094  11.561  0.8368 -0.5104  0.3836
 1412TIP3    H125727   2.551   2.154  11.575  1.1781 -0.6747 -0.6384
 1412TIP3    H225728   2.457   2.102  11.468 -0.2770 -0.6656  0.6125
 1413TIP3   OH225729   3.324   4.500  12.398  0.0091 -0.0584 -0.3071
 1413TIP3    H125730   3.361   4.566  12.339 -1.6700  0.7731 -0.5126
 1413TIP3    H225731   3.346   4.531  12.486  2.4506 -1.2592 -0.4133
 1414TIP3   OH225732   1.957   5.857  13.034  0.3059 -0.1390  0.0610
 1414TIP3    H125733   1.936   5.950  13.040  0.0359 -0.2023  0.1214
 1414TIP3    H225734   1.889   5.821  12.977  1.9401  0.1818 -2.2289
 1415TIP3   OH225735   1.388   1.761   3.312 -0.1348  0.8137  0.3328
 1415TIP3    H125736   1.406   1.672   3.281 -0.5576  1.5619 -2.3410
 1415TIP3    H225737   1.401   1.757   3.406 -2.0130 -2.5693  0.6246
 1416TIP3   OH225738   1.600   3.136  11.436 -0.4594  0.4919 -0.4137
 1416TIP3    H125739   1.532   3.202  11.442 -1.4153 -0.5823  2.4638
 1416TIP3    H225740   1.555   3.059  11.400  0.4661  1.0729 -3.0290
 1417TIP3   OH225741   0.104   0.880   0.241 -0.1942  0.3879  0.0665
 1417TIP3    H125742   0.060   0.802   0.274  1.1528  0.5029  2.3541
 1417TIP3    H225743   0.153   0.849   0.165  0.6148 -1.1358  1.1426
 1418TIP3   OH225744   3.546   1.947  12.985 -0.1054  0.3910  0.2266
 1418TIP3    H125745   3.531   1.919  13.076 -1.4548  0.3255  0.0010
 1418TIP3    H225746   3.641   1.952  12.977  0.0610 -0.5198  1.3747
 1419TIP3   OH225747   2.457   2.014   5.780 -0.5753  0.3101  0.1143
 1419TIP3    H125748   2.488   2.078   5.844 -0.0462 -0.3443  0.5164
 1419TIP3    H225749   2.420   1.944   5.833 -0.2614 -0.1725 -0.3024
 1420TIP3   OH225750   5.836   5.056  15.159 -0.5353  0.0622  0.3745
 1420TIP3    H125751   5.895   5.131  15.156 -0.8095  0.2939  0.6717
 1420TIP3    H225752   5.882   4.987  15.112 -0.4703  0.5478 -0.2791
 1421TIP3   OH225753   1.741   3.206   4.770 -0.4358  0.1871 -0.2420
 1421TIP3    H125754   1.653   3.198   4.806 -0.2486 -0.1577  0.1511
 1421TIP3    H225755   1.733   3.176   4.680 -0.5152 -0.8604  0.1025
 1422TIP3   OH225756   4.583   2.922   0.099  0.9834  0.1662 -0.4388
 1422TIP3    H125757   4.608   2.882   0.182  0.2992  0.7632  0.0657
 1422TIP3    H225758   4.520   2.861   0.061  1.6612 -0.3494 -0.7666
 1423TIP3   OH225759   5.695   1.819  16.572  0.0386 -0.1572 -0.0347
 1423TIP3    H125760   5.663   1.744  16.622 -1.2600  1.2066  1.3017
 1423TIP3    H225761   5.651   1.894  16.611  2.1537  1.4585 -0.5659
 1424TIP3   OH225762   0.988   5.366   2.135  0.1911  0.3096  0.6318
 1424TIP3    H125763   0.968   5.304   2.065 -1.4260  1.3619  0.1115
 1424TIP3    H225764   0.948   5.328   2.213  1.7629 -0.7268  0.9989
 1425TIP3   OH225765   3.141   4.615   3.049  0.2376  0.1291  0.3725
 1425TIP3    H125766   3.167   4.561   3.123  0.1234 -0.3084  0.0998
 1425TIP3    H225767   3.069   4.669   3.082  1.0905  0.9349  0.9686
 1426TIP3   OH225768   3.810   2.696   0.970 -0.3673 -0.0793 -0.0294
 1426TIP3    H125769   3.894   2.719   1.011 -0.2131 -0.1732 -0.2882
 1426TIP3    H225770   3.744   2.732   1.029 -0.1775 -1.1891  0.9218
 1427TIP3   OH225771   4.599   2.169  15.577 -0.0777 -0.1129 -0.2746
 1427TIP3    H125772   4.548   2.088  15.577 -1.1216  0.5204  0.4367
 1427TIP3    H225773   4.534   2.238  15.559  0.4392  0.7495  0.9973
 1428TIP3   OH225774   5.860   4.445  13.594 -0.1932 -0.7046 -0.4458
 1428TIP3    H125775   5.769   4.455  13.567 -0.2893 -0.1270  0.0693
 1428TIP3    H225776   5.899   4.531  13.581 -0.0485 -0.6148  0.5092
 1429TIP3   OH225777   1.395   2.340   5.257 -0.2299  0.2280 -0.0132
 1429TIP3    H125778   1.479   2.351   5.301 -0.9200 -0.4090  1.5594
 1429TIP3    H225779   1.340   2.296   5.322 -1.8358  0.7904 -0.9332
 1430TIP3   OH225780   6.321   5.545  13.174  0.0171 -0.1922 -0.6361
 1430TIP3    H125781   6.340   5.453  13.190  0.3301 -0.0681 -0.2915
 1430TIP3    H225782   6.308   5.583  13.260  0.0906  0.1280 -0.7623
 1431TIP3   OH225783   2.372   3.259  12.902 -0.3865  0.1697 -0.2708
 1431TIP3    H125784   2.408   3.346  12.918 -0.5228  0.1403  0.1906
 1431TIP3    H225785   2.360   3.221  12.988  0.9433 -0.8445 -0.4974
 1432TIP3   OH225786   5.397   5.935   1.325 -0.6391 -0.4612 -0.5025
 1432TIP3    H125787   5.321   5.931   1.267  0.4831 -2.9449 -1.9613
 1432TIP3    H225788   5.461   5.988   1.277 -1.1293  1.0097  0.3998
 1433TIP3   OH225789   0.244   0.029   4.636  0.3521 -0.0213  0.7806
 1433TIP3    H125790   0.225  -0.042   4.574  0.9218  0.5698 -0.1004
 1433TIP3    H225791   0.304  -0.010   4.699 -0.5741 -0.7592  1.2367
 1434TIP3   OH225792   1.770   3.940   3.526 -0.1868 -0.5256  0.1340
 1434TIP3    H125793   1.848   3.996   3.525 -0.2227 -0.4768  0.0215
 1434TIP3    H225794   1.780   3.887   3.605 -0.0460 -0.5106  0.1276
 1435TIP3   OH225795   3.689   1.976  14.234 -0.0762 -0.2103  0.3121
 1435TIP3    H125796   3.629   1.915  14.191 -0.3561  0.1380  0.2056
 1435TIP3    H225797   3.699   2.048  14.172  0.5205 -0.3048  0.2925
 1436TIP3   OH225798   3.733   6.815   2.359  0.9628 -0.3835  0.5565
 1436TIP3    H125799   3.744   6.747   2.292 -1.6844 -0.6800  0.3247
 1436TIP3    H225800   3.679   6.774   2.426 -0.1480  1.2826  0.7244
 1437TIP3   OH225801   3.855   1.878   5.803  0.0488 -0.4702  0.2758
 1437TIP3    H125802   3.815   1.869   5.716 -0.0089 -1.4842  0.3943
 1437TIP3    H225803   3.782   1.903   5.860 -0.0416 -0.4413  0.1481
 1438TIP3   OH225804   4.151   6.494   4.247  0.4099 -0.0247  0.1066
 1438TIP3    H125805   4.111   6.423   4.198  0.3289  0.5610 -0.6973
 1438TIP3    H225806   4.132   6.572   4.196  0.1501  0.6336  1.1856
 1439TIP3   OH225807   3.460   3.703   1.506  0.0312 -0.2390  0.4301
 1439TIP3    H125808   3.507   3.731   1.428 -0.0426  3.1543  1.4311
 1439TIP3    H225809   3.387   3.651   1.474 -0.4463  1.6990 -1.8560
 1440TIP3   OH225810   2.010   0.788   4.206 -0.1977 -0.2784  0.0930
 1440TIP3    H125811   2.062   0.709   4.218 -0.0670 -0.0581  1.0013
 1440TIP3    H225812   1.937   0.779   4.268  0.3347  0.7515  0.8972
 1441TIP3   OH225813   2.758   1.993   1.588  0.2623  0.2153  0.3100
 1441TIP3    H125814   2.803   1.977   1.671 -1.1161 -2.5229  0.6404
 1441TIP3    H225815   2.769   1.912   1.538  0.4039  1.5082 -1.9370
 1442TIP3   OH225816   6.465   0.178  11.904 -0.0560 -0.1825 -0.5668
 1442TIP3    H125817   6.528   0.122  11.948  0.9971  1.3377 -0.0513
 1442TIP3    H225818   6.418   0.222  11.974 -0.8392 -0.3842 -0.9554
 1443TIP3   OH225819   0.910   3.212  15.841  0.5157  0.0611  0.3931
 1443TIP3    H125820   0.893   3.119  15.850 -1.4822  0.2945 -0.5459
 1443TIP3    H225821   0.824   3.252  15.832  1.3600  1.9321  0.0981
 1444TIP3   OH225822   1.307   2.868   3.807 -0.3176  0.0384 -0.9194
 1444TIP3    H125823   1.372   2.908   3.864  0.1919  0.1782 -1.5867
 1444TIP3    H225824   1.300   2.927   3.732 -3.6897  1.8331  0.6085
 1445TIP3   OH225825   2.474   2.669   3.026 -0.3158  0.2741 -0.3034
 1445TIP3    H125826   2.505   2.641   3.113 -0.3025  1.6323  0.1472
 1445TIP3    H225827   2.527   2.745   3.005 -1.8909  1.3794 -0.4556
 1446TIP3   OH225828   2.224   4.881   0.167 -0.5015  0.3024  0.1073
 1446TIP3    H125829   2.133   4.908   0.174 -0.6642  0.4807 -2.1050
 1446TIP3    H225830   2.220   4.790   0.140 -0.0687  0.7094 -1.4008
 1447TIP3   OH225831   0.893   5.767   3.136  0.3542 -0.3828 -0.7677
 1447TIP3    H125832   0.943   5.686   3.144  0.1015 -0.6164 -1.5558
 1447TIP3    H225833   0.909   5.812   3.219 -0.5592 -1.8274  0.2389
 1448TIP3   OH225834   0.853   0.640  12.680 -0.3624  0.2752  0.1491
 1448TIP3    H125835   0.937   0.624  12.638  1.1517  3.0123  1.8564
 1448TIP3    H225836   0.797   0.674  12.610  1.4867  2.9385 -0.1645
 1449TIP3   OH225837   6.373   3.925  14.148 -0.2350  0.5632 -0.2632
 1449TIP3    H125838   6.384   3.890  14.059 -2.7901  0.8272 -0.7688
 1449TIP3    H225839   6.360   4.019  14.135  2.1566  1.1133  0.7131
 1450TIP3   OH225840   1.727   6.330  16.585  0.1250  0.3932  0.4814
 1450TIP3    H125841   1.691   6.275  16.516  1.4829  0.7594 -0.5601
 1450TIP3    H225842   1.653   6.381  16.617 -0.1941  1.9311 -2.3405
 1451TIP3   OH225843   2.686   5.758   4.312 -0.3162 -0.4777  0.2006
 1451TIP3    H125844   2.719   5.839   4.350 -0.6910 -0.0553 -0.3762
 1451TIP3    H225845   2.708   5.764   4.219 -1.4616 -0.4802 -0.0748
 1452TIP3   OH225846   2.026   5.190  12.279 -0.2356 -0.1815 -0.2917
 1452TIP3    H125847   2.002   5.148  12.196 -1.0870  1.6118 -1.0051
 1452TIP3    H225848   1.993   5.280  12.271 -1.6115 -0.3222  2.5342
 1453TIP3   OH225849   5.394   5.328  15.288 -0.0421  0.1659  0.0568
 1453TIP3    H125850   5.442   5.253  15.252  1.0138  0.8133  0.0684
 1453TIP3    H225851   5.378   5.306  15.379  0.6615  0.1317  0.1773
 1454TIP3   OH225852   6.213   3.452   5.573  0.5013 -0.7556 -0.4617
 1454TIP3    H125853   6.190   3.500   5.653  1.6785 -2.2621  0.8551
 1454TIP3    H225854   6.150   3.483   5.507  0.4451  1.6346  0.6188
 1455TIP3   OH225855   0.061   1.645   3.941  0.1305 -0.2943 -0.2799
 1455TIP3    H125856  -0.007   1.649   4.008 -0.1272  1.2596 -0.5932
 1455TIP3    H225857   0.016   1.667   3.859  0.8675  0.0864 -0.5979
 1456TIP3   OH225858   2.996   0.578   0.732  0.5417  0.2894  0.5751
 1456TIP3    H125859   2.951   0.590   0.816  0.1964 -2.5471  0.8858
 1456TIP3    H225860   3.086   0.603   0.750  0.0096  1.9522  1.1184
 1457TIP3   OH225861   4.268   4.696   1.418  0.3007 -0.0086 -0.0563
 1457TIP3    H125862   4.211   4.756   1.369  0.7032  1.6949  1.4626
 1457TIP3    H225863   4.342   4.681   1.359 -1.1789 -1.4527 -1.6522
 1458TIP3   OH225864   0.677   5.651   0.017 -0.1132  0.2135 -0.1558
 1458TIP3    H125865   0.715   5.625  -0.067 -0.0604  0.1110 -0.1011
 1458TIP3    H225866   0.701   5.580   0.077  0.4571  0.6186  0.1125
 1459TIP3   OH225867   5.082   4.823   0.128  0.0380 -0.0796 -0.0558
 1459TIP3    H125868   5.137   4.749   0.100 -1.2956 -1.0993 -0.0679
 1459TIP3    H225869   5.126   4.855   0.207  1.1290 -0.2990 -0.5445
 1460TIP3   OH225870   4.090   4.694   2.659  0.2024  0.1238 -0.0240
 1460TIP3    H125871   4.153   4.629   2.689  1.7589  2.1217  1.3121
 1460TIP3    H225872   4.140   4.776   2.654 -1.6346  1.2299 -1.7147
 1461TIP3   OH225873   6.394   2.955  17.234 -0.3806  0.0078  0.6452
 1461TIP3    H125874   6.455   2.881  17.239 -0.1283  0.2950  2.2680
 1461TIP3    H225875   6.345   2.952  17.316 -1.5157  0.6911  0.0243
 1462TIP3   OH225876   4.081   0.801   0.884 -0.1715 -0.1753 -0.3315
 1462TIP3    H125877   4.099   0.713   0.918  1.3185 -0.0206 -0.6332
 1462TIP3    H225878   4.144   0.812   0.812  0.8535  1.7638  0.7833
 1463TIP3   OH225879   5.204   5.696   0.477  0.3406  0.0057 -0.0109
 1463TIP3    H125880   5.219   5.786   0.505 -1.9438  0.2158  0.8168
 1463TIP3    H225881   5.218   5.698   0.383 -0.0608  1.3598 -0.0743
 1464TIP3   OH225882   6.513   2.578   0.413 -0.3789 -0.4648 -0.4380
 1464TIP3    H125883   6.598   2.540   0.435 -0.2364 -0.8226 -1.5525
 1464TIP3    H225884   6.523   2.671   0.433 -0.7975 -0.9486  2.5257
 1465TIP3   OH225885   3.045   1.305  12.406 -0.4157  0.2603 -1.1881
 1465TIP3    H125886   3.030   1.218  12.442  2.0541  0.4811  0.6628
 1465TIP3    H225887   3.128   1.297  12.358 -0.7214  1.3306 -1.9223
 1466TIP3   OH225888   1.464   4.325   5.675  0.7111 -0.6286  0.1981
 1466TIP3    H125889   1.379   4.303   5.713  0.9227 -2.0748 -0.1170
 1466TIP3    H225890   1.460   4.291   5.586  0.2912  2.5367 -1.1048
 1467TIP3   OH225891   5.288   0.742  14.883 -0.7056  0.0935 -0.0998
 1467TIP3    H125892   5.329   0.665  14.921 -0.8679  1.2209  2.5602
 1467TIP3    H225893   5.354   0.811  14.892 -1.7966  1.0540  0.8144
 1468TIP3   OH225894   6.307   0.098   5.496  1.0709 -0.4799 -0.2021
 1468TIP3    H125895   6.239   0.051   5.543  0.1989  0.9804  0.0610
 1468TIP3    H225896   6.318   0.180   5.544  2.2420 -0.2107 -0.8738
 1469TIP3   OH225897   6.706   1.674  13.256 -0.3129 -0.2752  0.1987
 1469TIP3    H125898   6.622   1.629  13.252 -0.4683  0.0720 -0.8798
 1469TIP3    H225899   6.767   1.615  13.213 -0.3584  0.1808 -0.5156
 1470TIP3   OH225900   2.480   5.528  15.772  0.4421  0.4720  0.2205
 1470TIP3    H125901   2.406   5.588  15.759 -0.6134 -0.1311  2.8635
 1470TIP3    H225902   2.487   5.481  15.689 -0.4434  2.3204 -0.9880
 1471TIP3   OH225903   5.410   4.072  11.773  0.3481 -0.7532 -0.0577
 1471TIP3    H125904   5.391   4.009  11.703 -1.4275  0.4891 -0.7794
 1471TIP3    H225905   5.359   4.041  11.848 -0.2942 -0.3628 -0.3231
 1472TIP3   OH225906   2.034   4.972  10.617 -0.3302  0.1038  0.0337
 1472TIP3    H125907   2.034   5.061  10.653 -1.6552 -0.2398  0.9504
 1472TIP3    H225908   1.943   4.945  10.620  0.1490 -1.5847  0.5273
 1473TIP3   OH225909   4.617   0.326  17.078 -0.8609 -0.3967  0.6646
 1473TIP3    H125910   4.641   0.238  17.051 -0.4052 -0.0157 -0.2568
 1473TIP3    H225911   4.701   0.372  17.085 -1.1539  0.3722 -0.4559
 1474TIP3   OH225912   3.566   5.401   5.743  0.2103 -0.5584  0.2262
 1474TIP3    H125913   3.619   5.369   5.815 -0.7891 -0.2910  1.1063
 1474TIP3    H225914   3.616   5.474   5.707  1.4613 -1.6773 -0.3881
 1475TIP3   OH225915   3.908   0.044  12.813  0.5779  0.0794  0.2177
 1475TIP3    H125916   3.941  -0.003  12.736  2.2387  0.7246  0.4982
 1475TIP3    H225917   3.946   0.131  12.806 -0.1435  0.4908  1.2162
 1476TIP3   OH225918   5.251   2.025  15.876 -0.4443 -0.1043  0.1371
 1476TIP3    H125919   5.162   2.036  15.909  0.4229 -0.2306  2.7538
 1476TIP3    H225920   5.301   2.097  15.916  1.5055 -2.5857  2.5199
 1477TIP3   OH225921   3.729   5.797   3.453 -0.4171 -1.1669 -0.0949
 1477TIP3    H125922   3.738   5.737   3.527 -0.7214  0.0137  0.9322
 1477TIP3    H225923   3.812   5.789   3.406 -0.5543 -2.5669 -0.1365
 1478TIP3   OH225924   3.913   4.898   0.491 -0.5313  0.2452 -0.3805
 1478TIP3    H125925   3.884   4.825   0.436  0.3146  0.3095 -0.9301
 1478TIP3    H225926   3.992   4.931   0.448 -0.6432  1.1974  0.1123
 1479TIP3   OH225927   4.447   1.230   0.143  0.4514 -0.3773  0.4236
 1479TIP3    H125928   4.532   1.186   0.145  0.3752 -0.6507 -1.2048
 1479TIP3    H225929   4.390   1.171   0.094  0.4619  1.6504 -2.2544
 1480TIP3   OH225930   5.273   4.645   0.008  0.0201  0.3902 -0.6491
 1480TIP3    H125931   5.296   4.560  -0.028  1.4980  1.1041 -1.5098
 1480TIP3    H225932   5.330   4.707  -0.039  0.3813  1.6312  1.2871
 1481TIP3   OH225933   3.999   0.061  14.979  0.5910  0.2666 -0.3470
 1481TIP3    H125934   4.048   0.101  14.907  1.8328  0.4282  0.5413
 1481TIP3    H225935   3.982   0.134  15.039  0.0512  0.0369 -0.2208
 1482TIP3   OH225936   5.373   0.602  15.790  0.6713 -0.4770  0.9121
 1482TIP3    H125937   5.292   0.649  15.771  0.5281  0.7255  4.0004
 1482TIP3    H225938   5.352   0.510  15.773 -1.3060 -0.1764  1.4977
 1483TIP3   OH225939   2.939   6.068  11.138  0.2570  0.3540 -0.0324
 1483TIP3    H125940   2.913   6.066  11.230  0.6205  0.4168  0.0715
 1483TIP3    H225941   3.015   6.010  11.133 -1.3950 -1.8756 -0.8080
 1484TIP3   OH225942   1.439   6.477   6.145 -0.4428  0.1437  0.8113
 1484TIP3    H125943   1.422   6.477   6.239 -0.2652 -0.9592  0.8470
 1484TIP3    H225944   1.353   6.460   6.106 -0.5433  0.7401  0.7572
 1485TIP3   OH225945   2.798   5.354  13.015  0.2916  0.5516 -0.2156
 1485TIP3    H125946   2.707   5.326  13.008  0.0840  1.2431 -0.4023
 1485TIP3    H225947   2.834   5.341  12.927  0.8808 -1.3710  0.2791
 1486TIP3   OH225948   1.419   3.883   4.103 -0.4357 -0.3244  0.2352
 1486TIP3    H125949   1.413   3.800   4.151  2.2352 -0.2783  0.7635
 1486TIP3    H225950   1.489   3.870   4.040 -0.3719  1.3478 -0.0851
 1487TIP3   OH225951   2.949   3.916  12.856 -0.1077  0.0876  0.2422
 1487TIP3    H125952   2.873   3.973  12.847 -0.8737 -0.5488  2.2025
 1487TIP3    H225953   2.919   3.843  12.910  1.5908 -0.7927  0.0857
 1488TIP3   OH225954   1.941   2.904  14.409  0.6570 -0.1624  0.1535
 1488TIP3    H125955   1.966   2.852  14.485  0.5232  0.3617  0.5618
 1488TIP3    H225956   2.015   2.897  14.349  1.0090 -0.1092  0.5777
 1489TIP3   OH225957   3.939   6.381   5.440 -0.0857 -0.1053  0.2027
 1489TIP3    H125958   3.948   6.288   5.423  0.1603  0.0749 -0.7239
 1489TIP3    H225959   3.855   6.390   5.485 -0.6153 -0.6544 -0.6474
 1490TIP3   OH225960   3.402   5.570  16.396 -0.5907 -0.4231  0.3905
 1490TIP3    H125961   3.398   5.485  16.440 -1.0518 -0.2421  0.7120
 1490TIP3    H225962   3.311   5.597  16.388 -0.4237  0.2854  0.7834
 1491TIP3   OH225963   0.289   4.627   5.998 -0.6451  0.0122  0.0745
 1491TIP3    H125964   0.279   4.610   6.092 -3.2857  2.4466  0.3993
 1491TIP3    H225965   0.205   4.600   5.960 -0.2287  0.5573 -1.2788
 1492TIP3   OH225966   2.873   3.424   2.149 -0.5174  0.3860  1.0165
 1492TIP3    H125967   2.837   3.387   2.069  0.5994 -0.4203  0.8544
 1492TIP3    H225968   2.801   3.419   2.212 -1.3406  0.8414  0.1254
 1493TIP3   OH225969   0.826   5.356   5.806 -0.0059  0.1336  0.1758
 1493TIP3    H125970   0.804   5.314   5.890  1.3889  0.1943  0.5932
 1493TIP3    H225971   0.887   5.295   5.765  1.2081  1.2301  0.3033
 1494TIP3   OH225972   1.645   2.565   4.608 -0.0706 -0.4745  0.4389
 1494TIP3    H125973   1.702   2.501   4.565  0.6162  0.1796  0.3572
 1494TIP3    H225974   1.567   2.568   4.553  0.0198 -1.0016  0.2708
 1495TIP3   OH225975   3.073   5.485   2.560  0.0179  0.0072  0.3142
 1495TIP3    H125976   3.030   5.553   2.612 -2.2790  1.4164 -3.0353
 1495TIP3    H225977   3.016   5.409   2.568  0.5920 -0.3541  1.1259
 1496TIP3   OH225978   3.278   1.735  16.867 -0.0333 -0.4135  0.3875
 1496TIP3    H125979   3.272   1.641  16.850 -0.8869 -0.6080  1.6176
 1496TIP3    H225980   3.348   1.765  16.810  1.0043 -1.9965  0.7543
 1497TIP3   OH225981   0.787   1.329  11.496 -0.4685  0.2190  0.0706
 1497TIP3    H125982   0.739   1.402  11.457  0.1459  1.4988  1.6025
 1497TIP3    H225983   0.719   1.271  11.531 -0.9431  0.4516 -0.4528
 1498TIP3   OH225984   3.599   1.909  14.749 -0.3423 -0.4037  0.3103
 1498TIP3    H125985   3.602   1.910  14.653 -1.5931 -0.4047  0.2602
 1498TIP3    H225986   3.514   1.871  14.770  0.1178 -0.8496  1.4350
 1499TIP3   OH225987   1.870   0.022   0.229  0.1106  0.1551  0.0668
 1499TIP3    H125988   1.905   0.081   0.296  2.1315 -0.6260 -0.2249
 1499TIP3    H225989   1.824  -0.046   0.278 -0.6183  0.9393  0.4959
 1500TIP3   OH225990   4.951   4.576  12.908 -0.4083 -0.6070  0.0549
 1500TIP3    H125991   5.017   4.624  12.957  1.3239 -1.1988 -1.5508
 1500TIP3    H225992   4.887   4.642  12.881  0.1428  0.1851  0.6536
 1501TIP3   OH225993   4.182   2.428   2.448 -0.0946 -0.1492 -0.4979
 1501TIP3    H125994   4.138   2.359   2.499 -0.3738  1.7795  2.1121
 1501TIP3    H225995   4.256   2.453   2.502 -0.0098  1.5808 -1.3724
 1502TIP3   OH225996   5.909   5.391  11.662 -0.1349 -0.3394  0.0013
 1502TIP3    H125997   5.987   5.346  11.696  1.0415  1.6552  0.1241
 1502TIP3    H225998   5.941   5.477  11.636 -2.7927  1.6305  2.6111
 1503TIP3   OH225999   1.078   2.389   4.889  0.4267  0.1511 -0.1226
 1503TIP3    H126000   1.119   2.439   4.818  2.4661 -0.8213  0.3277
 1503TIP3    H226001   1.147   2.377   4.954 -1.0046 -0.2305  1.3940
 1504TIP3   OH226002   5.576   4.745   3.466 -0.1166 -0.2554 -0.4529
 1504TIP3    H126003   5.613   4.668   3.508 -0.5860 -0.6436 -0.7486
 1504TIP3    H226004   5.592   4.733   3.373 -1.5663 -0.7622 -0.6613
 1505TIP3   OH226005   6.579   1.721  11.114  0.1075 -0.6907 -0.2400
 1505TIP3    H126006   6.573   1.756  11.025  0.9857 -0.2741 -0.1526
 1505TIP3    H226007   6.657   1.665  11.112  0.8290  0.2367  0.5481
 1506TIP3   OH226008   0.457   6.555   4.135  0.2094 -0.4019 -0.0174
 1506TIP3    H126009   0.494   6.597   4.213 -0.6432  0.1219  0.1242
 1506TIP3    H226010   0.433   6.629   4.078  2.7452 -0.7754 -1.7462
 1507TIP3   OH226011   3.161   0.848   2.584 -0.3492  0.1172 -0.3355
 1507TIP3    H126012   3.208   0.765   2.579  0.7254  0.7050 -0.1504
 1507TIP3    H226013   3.229   0.915   2.579 -1.1367  0.9817  0.1921
 1508TIP3   OH226014   5.799   6.112   3.833  0.0269  0.0274 -0.2821
 1508TIP3    H126015   5.797   6.017   3.828 -3.2181  0.0020 -0.3621
 1508TIP3    H226016   5.865   6.138   3.768  0.2254 -2.1089 -1.0064
 1509TIP3   OH226017   4.201   3.131   4.744 -1.1893  0.0699  0.5471
 1509TIP3    H126018   4.205   3.218   4.704  0.8330  0.1275  0.7978
 1509TIP3    H226019   4.143   3.143   4.820 -1.1346  1.1318  0.4396
 1510TIP3   OH226020   1.002   5.962  10.508  0.4773  0.0487 -0.3119
 1510TIP3    H126021   1.003   5.915  10.592 -0.2045  1.3302  0.4459
 1510TIP3    H226022   1.061   5.911  10.452  0.6419 -1.0675  0.8067
 1511TIP3   OH226023   2.169   5.271   0.169  0.6769  0.1590 -0.4531
 1511TIP3    H126024   2.186   5.232   0.254  0.1938  2.0885  0.5749
 1511TIP3    H226025   2.074   5.270   0.160  0.7325 -0.2383 -1.0799
 1512TIP3   OH226026   2.121   2.647   1.435 -0.0033  0.2691  0.4062
 1512TIP3    H126027   2.165   2.621   1.354  0.2926  0.2120  0.5835
 1512TIP3    H226028   2.114   2.742   1.428  1.3428  0.4262  0.9671
 1513TIP3   OH226029   2.149   1.886  12.579 -0.3353  1.1474  0.2542
 1513TIP3    H126030   2.161   1.820  12.648  0.8140  2.4719  1.3801
 1513TIP3    H226031   2.057   1.876  12.553 -0.0014 -1.4769 -0.2836
 1514TIP3   OH226032   0.303   6.202   2.203 -0.2231  0.6183  0.9475
 1514TIP3    H126033   0.359   6.158   2.268  0.6288  0.8643  0.3944
 1514TIP3    H226034   0.216   6.199   2.242 -0.0499 -0.8307  1.2952
 1515TIP3   OH226035   6.005   4.351   5.867 -0.3287 -0.6545  0.1383
 1515TIP3    H126036   6.040   4.389   5.948 -2.1325  0.7878  0.3133
 1515TIP3    H226037   5.916   4.325   5.890 -1.3428  0.9572 -1.6594
 1516TIP3   OH226038   5.668   5.770  11.533 -0.1112 -0.6815 -0.1033
 1516TIP3    H126039   5.682   5.710  11.607 -1.9365 -2.2400 -0.9492
 1516TIP3    H226040   5.574   5.767  11.516  0.3169 -0.9093 -2.9226
 1517TIP3   OH226041   1.594   2.783   5.226  0.5555 -0.6494  0.4766
 1517TIP3    H126042   1.544   2.713   5.184  0.0091  0.1168 -0.2023
 1517TIP3    H226043   1.527   2.847   5.253  1.1682  0.5999 -0.8266
 1518TIP3   OH226044   3.425   1.543  16.103  0.0628  0.2042 -1.0366
 1518TIP3    H126045   3.372   1.573  16.177  0.3795  2.4486 -1.6499
 1518TIP3    H226046   3.473   1.468  16.138  0.0158  1.0370  0.9736
 1519TIP3   OH226047   5.030   1.473   0.100 -0.4959  0.2359 -0.3924
 1519TIP3    H126048   4.990   1.466   0.013 -3.5877 -1.8742  1.0236
 1519TIP3    H226049   5.081   1.393   0.110  1.3360  1.2746 -0.7986
 1520TIP3   OH226050   1.243   3.934  15.359 -0.0046  0.3142  0.1869
 1520TIP3    H126051   1.306   3.963  15.293 -1.2758 -0.3062 -1.3638
 1520TIP3    H226052   1.289   3.867  15.409  0.4967 -0.3130 -1.0917
 1521TIP3   OH226053   1.150   1.241   6.638  0.1615 -0.6113 -0.3593
 1521TIP3    H126054   1.066   1.244   6.684  0.8917 -2.6061  1.2879
 1521TIP3    H226055   1.132   1.193   6.558  0.0845 -3.0521  1.0390
 1522TIP3   OH226056   2.140   3.086  11.901  0.0490  0.2598 -0.3545
 1522TIP3    H126057   2.116   3.008  11.850  0.0183  0.0175  0.0226
 1522TIP3    H226058   2.094   3.074  11.984 -0.4156  0.9693 -0.5061
 1523TIP3   OH226059   5.940   0.735   3.474 -0.5820  0.0637 -0.0624
 1523TIP3    H126060   5.969   0.678   3.545 -2.3506 -1.0876 -0.2132
 1523TIP3    H226061   5.988   0.817   3.488  0.6879 -0.8461  1.1926
 1524TIP3   OH226062   3.994   6.766  13.904 -0.3138  0.9631  0.4034
 1524TIP3    H126063   3.920   6.794  13.959 -0.2606 -1.2224  1.6743
 1524TIP3    H226064   4.063   6.744  13.966  0.4303  0.2805 -0.6443
 1525TIP3   OH226065   2.516   5.313   4.294 -0.3391  0.1074  0.7714
 1525TIP3    H126066   2.449   5.308   4.226 -3.0602 -1.4030  3.3739
 1525TIP3    H226067   2.502   5.398   4.335  0.2721  0.3544  0.4835
 1526TIP3   OH226068   1.948   4.874   3.802  0.4555  0.2804 -0.0390
 1526TIP3    H126069   1.879   4.847   3.742  2.0334 -0.1783 -1.7626
 1526TIP3    H226070   1.903   4.918   3.873 -1.5729  0.1667 -1.1844
 1527TIP3   OH226071   1.259   5.362   1.265  0.2870 -0.4714  0.4076
 1527TIP3    H126072   1.303   5.444   1.288  0.3360 -0.5512  0.6047
 1527TIP3    H226073   1.297   5.297   1.325  0.7659 -0.7856 -0.2262
 1528TIP3   OH226074   4.259   1.705  12.599  0.2156  0.0789  0.0968
 1528TIP3    H126075   4.350   1.685  12.577  1.0938  2.6918  0.9751
 1528TIP3    H226076   4.225   1.752  12.522 -0.5621 -1.2066 -0.3817
 1529TIP3   OH226077   5.012   3.884  14.350  0.4190  0.8340  0.2682
 1529TIP3    H126078   4.917   3.880  14.361  0.3454 -2.5214 -0.4350
 1529TIP3    H226079   5.046   3.850  14.433  1.0669  2.0466  0.5254
 1530TIP3   OH226080   2.253   5.019   5.220  0.7599  0.0529  0.6863
 1530TIP3    H126081   2.320   5.040   5.156  0.5328  0.3300  0.5343
 1530TIP3    H226082   2.171   5.050   5.181  0.4215 -1.0073  0.5191
 1531TIP3   OH226083   4.383   3.027   2.995 -0.3524  0.2529 -1.0688
 1531TIP3    H126084   4.374   2.972   3.073  0.3786  1.0860 -0.3724
 1531TIP3    H226085   4.310   3.001   2.938 -0.9293 -0.3289 -0.0842
 1532TIP3   OH226086   4.533   4.149  13.583  0.0805  0.3808 -0.1426
 1532TIP3    H126087   4.476   4.225  13.587 -0.7071 -0.1921 -0.1366
 1532TIP3    H226088   4.599   4.171  13.517 -0.0213  1.1418  0.0094
 1533TIP3   OH226089   2.737   2.554  14.844  0.6531 -0.1211  0.0794
 1533TIP3    H126090   2.735   2.643  14.810  1.5181  0.0353  0.3973
 1533TIP3    H226091   2.646   2.533  14.863  0.6226  1.5144  2.0739
 1534TIP3   OH226092   1.000   0.326   2.280  0.4900 -0.1127  0.2476
 1534TIP3    H126093   0.947   0.374   2.217  0.2845 -0.3173  0.2631
 1534TIP3    H226094   0.995   0.235   2.251  0.4089 -0.2048  0.5490
 1535TIP3   OH226095   5.478   6.657   3.950  0.3625  0.5457  0.5822
 1535TIP3    H126096   5.543   6.718   3.915 -0.2573  1.7637  1.4848
 1535TIP3    H226097   5.526   6.605   4.014  0.7091  0.6746  0.4292
 1536TIP3   OH226098   0.831   2.748  16.243 -0.2237  0.1609 -0.3636
 1536TIP3    H126099   0.906   2.698  16.210  0.3298  1.1751 -0.6651
 1536TIP3    H226100   0.846   2.756  16.337 -0.1181  0.0981 -0.3758
 1537TIP3   OH226101   2.261   3.792   0.695 -0.0045 -0.2781  0.2901
 1537TIP3    H126102   2.299   3.879   0.683  2.0353 -1.1821 -0.3557
 1537TIP3    H226103   2.332   3.740   0.733 -1.2035 -1.6340  0.7481
 1538TIP3   OH226104   6.366   2.132  15.958 -0.0408  0.2876  0.0102
 1538TIP3    H126105   6.279   2.161  15.931 -0.5494 -0.4257  0.8774
 1538TIP3    H226106   6.385   2.184  16.036 -0.1489 -0.3435  0.4562
 1539TIP3   OH226107   3.233   0.501   1.713 -0.1147  0.0328 -0.3479
 1539TIP3    H126108   3.289   0.577   1.730 -0.2952 -0.3830  2.6855
 1539TIP3    H226109   3.152   0.538   1.677 -0.9337  1.6249  2.7992
 1540TIP3   OH226110   0.793   4.554   5.964  0.2561 -0.0987  0.1401
 1540TIP3    H126111   0.737   4.479   5.987  0.4288 -0.0284  0.8170
 1540TIP3    H226112   0.869   4.515   5.921 -0.2147 -0.2114 -0.6037
 1541TIP3   OH226113   1.625   6.727   3.932  0.5024 -0.2053 -0.0263
 1541TIP3    H126114   1.708   6.726   3.884  0.5902 -0.9963  0.1383
 1541TIP3    H226115   1.565   6.776   3.875  0.8330 -0.4137 -0.5630
 1542TIP3   OH226116   5.296   2.759  14.885 -0.1493 -0.2671 -0.0623
 1542TIP3    H126117   5.382   2.721  14.906 -0.3484 -0.8519 -0.2916
 1542TIP3    H226118   5.235   2.712  14.941 -0.4216 -0.3956 -0.4697
 1543TIP3   OH226119   2.673   1.574   2.074 -0.3257 -0.3216  0.5712
 1543TIP3    H126120   2.648   1.488   2.108  0.5953 -0.6533  0.4452
 1543TIP3    H226121   2.592   1.611   2.038 -0.9696 -0.6439  1.6674
 1544TIP3   OH226122   0.359   1.963  11.893  0.1612  0.3680  0.6567
 1544TIP3    H126123   0.434   1.915  11.858 -1.3210 -0.3708 -1.8095
 1544TIP3    H226124   0.397   2.039  11.936  2.4459 -1.4663  2.1285
 1545TIP3   OH226125   3.867   3.024  15.755  0.0149  0.0318 -0.3234
 1545TIP3    H126126   3.910   2.941  15.733  1.1399  0.1328  1.2682
 1545TIP3    H226127   3.921   3.060  15.825  0.4946  2.9131 -2.0455
 1546TIP3   OH226128   1.311   3.395   5.449 -0.1845 -0.5136  0.0714
 1546TIP3    H126129   1.232   3.447   5.430 -0.0927 -0.0201  0.9545
 1546TIP3    H226130   1.377   3.460   5.471  0.2839 -0.9605 -0.0107
 1547TIP3   OH226131   5.958   1.158  15.464 -0.0273  0.1472  0.1100
 1547TIP3    H126132   5.973   1.155  15.559  0.3800  1.7962  0.1219
 1547TIP3    H226133   5.973   1.249  15.440 -0.0297 -0.2608 -1.5694
 1548TIP3   OH226134   2.306   2.942   0.264 -0.2770  0.4090  0.0716
 1548TIP3    H126135   2.350   2.883   0.325 -0.5132  0.2569  0.0956
 1548TIP3    H226136   2.368   2.953   0.192 -0.2326  0.1305  0.0678
 1549TIP3   OH226137   5.144   3.630  17.168 -0.5256 -0.8048  0.1139
 1549TIP3    H126138   5.146   3.535  17.156  0.1752 -0.7054 -0.6404
 1549TIP3    H226139   5.051   3.651  17.173 -0.7517 -1.3523 -1.2942
 1550TIP3   OH226140   5.109   0.725   2.705 -0.3467  0.4734 -0.0448
 1550TIP3    H126141   5.120   0.743   2.798 -1.2111 -0.2600  0.2002
 1550TIP3    H226142   5.164   0.791   2.662  0.0060  0.8598  0.9708
 1551TIP3   OH226143   1.982   1.934   1.386 -0.1678  0.0821 -0.7590
 1551TIP3    H126144   1.956   1.842   1.390  0.9716 -0.2381 -0.1392
 1551TIP3    H226145   2.053   1.941   1.450  2.0572  0.6087 -3.1214
 1552TIP3   OH226146   1.437   5.446  10.973 -0.2356 -0.4022 -0.2077
 1552TIP3    H126147   1.456   5.408  11.058  0.7789 -0.2877 -0.3780
 1552TIP3    H226148   1.466   5.381  10.910  3.1328  1.2088 -0.5610
 1553TIP3   OH226149   0.239   4.884  10.978 -0.0688  0.2074  0.1228
 1553TIP3    H126150   0.156   4.918  11.010 -0.3108 -0.7829  0.5861
 1553TIP3    H226151   0.242   4.794  11.010  2.5003  1.0490  2.6475
 1554TIP3   OH226152   1.708   1.791   1.749  0.1011 -0.7339  0.1920
 1554TIP3    H126153   1.661   1.874   1.747 -0.9728 -1.3036  0.9878
 1554TIP3    H226154   1.754   1.792   1.834  2.3492  0.2194 -0.9432
 1555TIP3   OH226155   2.270   6.374  12.902  0.3158 -0.2172 -0.4103
 1555TIP3    H126156   2.235   6.462  12.920 -1.5684 -1.2387  1.2793
 1555TIP3    H226157   2.196   6.327  12.863  0.7279 -1.5922  0.4227
 1556TIP3   OH226158   5.096   4.971  13.230  0.2130  0.5338  0.1010
 1556TIP3    H126159   5.050   4.929  13.303 -3.3246  2.0503 -1.0359
 1556TIP3    H226160   5.038   4.959  13.155  1.0192  3.7527 -1.2019
 1557TIP3   OH226161   2.578   1.979  16.403  0.1750  0.6801  0.0211
 1557TIP3    H126162   2.534   1.921  16.341  1.0514  0.9552 -0.8957
 1557TIP3    H226163   2.535   1.962  16.487  0.6125 -1.5018 -0.1444
 1558TIP3   OH226164   1.756   2.874  13.821 -0.3011 -0.3045 -0.5012
 1558TIP3    H126165   1.783   2.797  13.871  1.9977  1.8848  1.9152
 1558TIP3    H226166   1.688   2.914  13.874 -0.2511  0.2468 -0.8497
 1559TIP3   OH226167   2.310   4.302   0.469 -0.3747  0.1946  0.7031
 1559TIP3    H126168   2.321   4.208   0.476  0.4702  0.1619 -0.7958
 1559TIP3    H226169   2.291   4.319   0.377  1.2994  1.6252  0.5627
 1560TIP3   OH226170   1.613   4.056   4.562 -0.3093  0.3339  0.9300
 1560TIP3    H126171   1.614   3.974   4.513 -0.4865  0.6023  0.4719
 1560TIP3    H226172   1.535   4.102   4.531 -0.2052  0.6810  1.1757
 1561TIP3   OH226173   4.302   6.346   2.685 -0.2617 -0.5062  0.0384
 1561TIP3    H126174   4.288   6.295   2.765 -1.8469 -0.1775  0.0013
 1561TIP3    H226175   4.295   6.437   2.713  2.8569 -0.2200  0.1582
 1562TIP3   OH226176   1.587   4.274  14.642 -0.4305  0.0195 -0.0247
 1562TIP3    H126177   1.677   4.274  14.609 -0.2918 -1.5204  0.2448
 1562TIP3    H226178   1.594   4.239  14.731 -1.2217  0.5567  0.2621
 1563TIP3   OH226179   3.282   5.340   3.263 -0.0373 -0.0249 -0.1915
 1563TIP3    H126180   3.224   5.410   3.236  1.3605  1.2475 -0.0193
 1563TIP3    H226181   3.369   5.369   3.235  0.6468 -1.4237  0.3909
 1564TIP3   OH226182   3.705   4.851  12.124 -0.5203  0.3866 -0.1793
 1564TIP3    H126183   3.756   4.839  12.044  2.4097  0.1165  1.5602
 1564TIP3    H226184   3.692   4.946  12.130 -0.6738  0.4158 -0.9080
 1565TIP3   OH226185   0.110   3.015  11.236  0.3518  0.2974  0.1344
 1565TIP3    H126186   0.063   3.098  11.248  0.9400  0.9789 -1.8046
 1565TIP3    H226187   0.192   3.040  11.194  0.1005 -1.3175 -1.4691
 1566TIP3   OH226188   3.450   6.610   7.160 -0.0588  0.6164  0.4447
 1566TIP3    H126189   3.400   6.550   7.105  0.0855  1.5613 -0.7680
 1566TIP3    H226190   3.520   6.642   7.103  0.3551  1.2881  1.3116
 1567TIP3   OH226191   4.888   6.536   5.943  0.0502  0.3224  0.1752
 1567TIP3    H126192   4.794   6.548   5.951  0.1964  1.9894 -0.1810
 1567TIP3    H226193   4.920   6.523   6.032 -0.2239  2.4350  0.6208
 1568TIP3   OH226194   6.257   1.975   3.882  0.0975 -0.3336  0.0343
 1568TIP3    H126195   6.202   1.956   3.958  0.2474 -0.5676  0.0854
 1568TIP3    H226196   6.199   2.018   3.819  0.1174  0.4815  0.5463
 1569TIP3   OH226197   6.380   3.677   5.521 -0.9910  0.1098  0.6043
 1569TIP3    H126198   6.385   3.760   5.569 -1.0027  1.1256 -1.0713
 1569TIP3    H226199   6.319   3.624   5.572 -0.0323  0.6175  2.4029
 1570TIP3   OH226200   6.063   6.146   1.965  0.3388 -0.4152  0.5518
 1570TIP3    H126201   6.014   6.081   2.016  1.2392 -0.7984  0.9456
 1570TIP3    H226202   6.155   6.122   1.977  0.8058  1.7196  1.8363
 1571TIP3   OH226203   6.055   5.796  10.835  0.5168  0.0991  0.2782
 1571TIP3    H126204   6.004   5.873  10.808  1.5425  0.5128 -0.5851
 1571TIP3    H226205   6.096   5.766  10.754  1.9684  0.0477  0.9994
 1572TIP3   OH226206   1.196   6.182  16.568  0.0446 -0.1158 -0.2315
 1572TIP3    H126207   1.132   6.251  16.549 -0.7852 -1.0881 -1.0800
 1572TIP3    H226208   1.158   6.134  16.642  0.6318  0.3265  0.3729
 1573TIP3   OH226209   3.515   2.056   3.452 -0.3139 -0.0379 -0.5730
 1573TIP3    H126210   3.501   2.004   3.373  1.5289 -1.2653 -0.1781
 1573TIP3    H226211   3.480   2.002   3.522 -0.2341  0.1771 -0.3661
 1574TIP3   OH226212   6.464   2.326   0.216 -0.4739 -0.3561 -0.0954
 1574TIP3    H126213   6.450   2.355   0.306  0.7426 -3.8002  1.3961
 1574TIP3    H226214   6.377   2.297   0.187 -0.6892 -0.1767  0.3561
 1575TIP3   OH226215   0.918   2.883  17.297 -0.1474  0.2010 -0.4203
 1575TIP3    H126216   0.829   2.850  17.309 -0.9343  1.0635 -3.2131
 1575TIP3    H226217   0.934   2.876  17.203  2.1694  1.5122 -0.1963
 1576TIP3   OH226218   3.453   5.902   4.939 -0.5041 -0.5966  0.0750
 1576TIP3    H126219   3.520   5.947   4.991 -1.1868 -1.2185  1.5474
 1576TIP3    H226220   3.372   5.947   4.960 -0.6890 -0.3568 -1.0891
 1577TIP3   OH226221   0.141   2.357   2.354 -0.3806  0.5691  0.3295
 1577TIP3    H126222   0.127   2.342   2.448  4.2727 -3.1792  0.8108
 1577TIP3    H226223   0.110   2.277   2.312  0.3266  0.9327 -0.9405
 1578TIP3   OH226224   0.292   6.430   3.930 -0.2621  0.1019 -0.3357
 1578TIP3    H126225   0.243   6.509   3.905 -0.2737  0.0730 -0.4051
 1578TIP3    H226226   0.340   6.456   4.009 -2.0594 -0.4889  1.0154
 1579TIP3   OH226227   5.613   4.942   3.240  0.0649  0.7064 -0.4898
 1579TIP3    H126228   5.529   4.935   3.194  0.0851  0.0428 -0.4442
 1579TIP3    H226229   5.643   4.851   3.247  1.8605  1.0927 -2.4245
 1580TIP3   OH226230   6.526   4.919   0.444  0.6973  0.5750  0.2406
 1580TIP3    H126231   6.614   4.883   0.438  1.4195  2.3304 -0.2654
 1580TIP3    H226232   6.517   4.945   0.536  1.3835  1.9052 -0.0321
 1581TIP3   OH226233   2.190   1.709   3.134 -0.0509 -0.4148  0.3111
 1581TIP3    H126234   2.150   1.684   3.218 -0.1674 -0.2267  0.3129
 1581TIP3    H226235   2.187   1.804   3.134  2.9418 -0.2012  1.5669
 1582TIP3   OH226236   3.403   5.386  15.909 -0.0109  0.1382 -0.0051
 1582TIP3    H126237   3.349   5.464  15.923  0.4734  0.3799  0.5650
 1582TIP3    H226238   3.487   5.421  15.879  0.0773 -0.1927 -0.1468
 1583TIP3   OH226239   2.294   3.068   4.055 -0.2057 -1.2638 -0.2262
 1583TIP3    H126240   2.336   3.136   4.107 -2.9684 -0.0085  0.5419
 1583TIP3    H226241   2.320   3.087   3.965  2.9504 -2.2184  0.3537
 1584TIP3   OH226242   6.671   5.107   3.493  0.4146  0.3262  0.5411
 1584TIP3    H126243   6.646   5.176   3.432  0.2893  1.0389  1.3965
 1584TIP3    H226244   6.720   5.044   3.438  0.9430  1.3078 -0.1415
 1585TIP3   OH226245   0.097   3.839  12.239  0.3252  0.3133 -0.2788
 1585TIP3    H126246   0.081   3.897  12.164  1.6618  1.1839  0.0925
 1585TIP3    H226247   0.168   3.880  12.288  0.4755 -1.0061  0.6810
 1586TIP3   OH226248   5.502   2.641   1.281  0.0653  0.4230 -1.3216
 1586TIP3    H126249   5.550   2.657   1.200  3.2574  1.3370  0.5660
 1586TIP3    H226250   5.523   2.716   1.337 -1.4765 -0.4714  0.6084
 1587TIP3   OH226251   2.821   1.365   0.454  0.1442 -0.3430  0.8238
 1587TIP3    H126252   2.848   1.432   0.391 -1.9567  1.0080  1.2715
 1587TIP3    H226253   2.880   1.378   0.528  0.0805  0.7200  0.7121
 1588TIP3   OH226254   6.655   2.537   1.802  0.2172  0.0831 -0.2158
 1588TIP3    H126255   6.576   2.578   1.766 -1.2049 -1.6809  0.6962
 1588TIP3    H226256   6.692   2.488   1.729 -0.1098  0.1251 -0.4150
 1589TIP3   OH226257   0.637   0.792  13.510 -0.4599  0.0456  0.0478
 1589TIP3    H126258   0.551   0.817  13.478 -1.3589  0.3060  2.4354
 1589TIP3    H226259   0.647   0.700  13.484 -0.6261  0.5261 -1.8153
 1590TIP3   OH226260   0.563   5.200   4.637 -0.3596  0.0930 -0.1324
 1590TIP3    H126261   0.522   5.230   4.556  1.1924  3.0475  0.0103
 1590TIP3    H226262   0.527   5.257   4.705  1.2264  0.3444  0.5592
 1591TIP3   OH226263   6.529   4.534  12.973 -0.1097 -0.1268  0.1504
 1591TIP3    H126264   6.608   4.483  12.954 -0.4761 -0.2407 -1.1325
 1591TIP3    H226265   6.519   4.591  12.897 -0.8252  0.4516  0.6684
 1592TIP3   OH226266   4.228   1.139  11.242 -0.1485  0.0702  0.2164
 1592TIP3    H126267   4.272   1.076  11.298  0.2895 -0.0581 -0.2686
 1592TIP3    H226268   4.273   1.222  11.258 -0.3899  0.1532  0.4714
 1593TIP3   OH226269   4.049   5.967   1.131 -0.0731  0.2822 -0.2741
 1593TIP3    H126270   4.060   6.036   1.066  0.8121  0.4980  0.0893
 1593TIP3    H226271   4.136   5.955   1.168 -0.6932  0.6803  1.4052
 1594TIP3   OH226272   3.702   3.638   3.195 -0.2709 -0.0172  0.2653
 1594TIP3    H126273   3.694   3.583   3.273 -1.3761  0.8446  0.7942
 1594TIP3    H226274   3.639   3.601   3.133 -1.1577  0.7224  0.6924
 1595TIP3   OH226275   0.926   3.073   1.506  0.5159 -0.2268  0.1578
 1595TIP3    H126276   0.981   3.005   1.465  0.1529 -0.9973  0.9137
 1595TIP3    H226277   0.893   3.125   1.432  2.8130  0.7163 -0.2948
 1596TIP3   OH226278   3.983   2.063  12.611  0.3289  0.5661 -0.1894
 1596TIP3    H126279   4.007   2.113  12.534  1.0553  0.3238 -0.1244
 1596TIP3    H226280   3.942   2.126  12.670  0.1334  0.8283 -0.6030
 1597TIP3   OH226281   1.729   5.417   1.666  0.3406  0.6504  0.3882
 1597TIP3    H126282   1.647   5.448   1.706  1.1663  2.2862  0.9224
 1597TIP3    H226283   1.759   5.492   1.614  1.2728 -0.0962 -0.1733
 1598TIP3   OH226284   1.360   0.696  13.665 -0.2884 -0.7099  0.1288
 1598TIP3    H126285   1.447   0.719  13.634 -0.1758 -1.2581  0.0239
 1598TIP3    H226286   1.305   0.769  13.638 -0.1836 -1.1517 -1.3590
 1599TIP3   OH226287   5.679   4.704   1.359  0.7141  0.2832  0.3412
 1599TIP3    H126288   5.746   4.638   1.342  0.2084 -0.0205 -0.5673
 1599TIP3    H226289   5.708   4.781   1.311  0.4728  0.1875  0.0391
 1600TIP3   OH226290   0.515   2.924  13.813  0.3846  0.1409  0.1864
 1600TIP3    H126291   0.552   2.989  13.754  1.9008 -0.8851 -0.0465
 1600TIP3    H226292   0.514   2.968  13.898  0.7201  0.7169 -0.0948
 1601TIP3   OH226293   2.400   6.610  16.002 -0.3794 -0.8887 -0.1767
 1601TIP3    H126294   2.320   6.660  16.019 -0.6325 -1.0648 -0.8165
 1601TIP3    H226295   2.388   6.575  15.914  0.5458 -0.6551 -0.4064
 1602TIP3   OH226296   1.589   4.722  14.743 -0.0957  0.3305  0.3590
 1602TIP3    H126297   1.593   4.811  14.780  0.6337  0.8336 -0.8765
 1602TIP3    H226298   1.497   4.696  14.754 -0.3465  1.2789  0.6303
 1603TIP3   OH226299   5.317   5.338   1.178  0.3907  0.1337 -0.2327
 1603TIP3    H126300   5.259   5.373   1.246 -2.3321 -1.4567 -1.5462
 1603TIP3    H226301   5.300   5.243   1.180  2.5925 -0.3292 -1.0929
 1604TIP3   OH226302   1.759   3.871   5.471  0.0200  0.7759 -0.2605
 1604TIP3    H126303   1.684   3.930   5.457 -0.1118  0.6773  0.0103
 1604TIP3    H226304   1.812   3.916   5.537  0.3596  0.9889 -0.6731
 1605TIP3   OH226305   2.895   0.518  13.094  0.5662  0.1018 -0.5793
 1605TIP3    H126306   2.985   0.540  13.071  0.4002  0.2298 -1.1316
 1605TIP3    H226307   2.843   0.546  13.018  0.2909 -1.7404 -1.1186
 1606TIP3   OH226308   6.615   4.449  12.260  0.0498  0.3974  0.3475
 1606TIP3    H126309   6.696   4.414  12.298 -0.6408 -0.7576  0.7977
 1606TIP3    H226310   6.636   4.462  12.168  0.1932 -1.8221  0.0109
 1607TIP3   OH226311   2.652   6.519   0.872 -0.2113 -0.4154 -0.5803
 1607TIP3    H126312   2.671   6.547   0.961 -0.3383 -0.6063 -0.4919
 1607TIP3    H226313   2.681   6.427   0.868 -1.1730 -0.7383 -0.4166
 1608TIP3   OH226314   2.026   2.102   3.087  0.0293  0.0242  0.2491
 1608TIP3    H126315   1.997   2.168   3.150 -2.7851 -0.5150 -0.3456
 1608TIP3    H226316   1.999   2.137   3.001 -0.7189 -1.4327 -0.1531
 1609TIP3   OH226317   1.910   3.115   2.481 -0.2906  0.3707 -0.1991
 1609TIP3    H126318   1.859   3.095   2.403  0.6146  0.6443 -0.8791
 1609TIP3    H226319   1.981   3.051   2.481 -0.0701  0.6116  0.1804
 1610TIP3   OH226320   5.349   5.192   6.445  0.0552  0.2484 -0.3392
 1610TIP3    H126321   5.322   5.262   6.506  1.0505 -0.8382  1.4449
 1610TIP3    H226322   5.304   5.114   6.479  3.9853 -1.3335  1.8528
 1611TIP3   OH226323   3.185   1.237   0.592 -0.8842  0.1693  0.6281
 1611TIP3    H126324   3.123   1.303   0.622  0.5868  1.2402  1.4246
 1611TIP3    H226325   3.236   1.281   0.524  0.8135  0.2723  1.8983
 1612TIP3   OH226326   4.196   1.417   1.934  0.1371  0.1514 -0.1515
 1612TIP3    H126327   4.212   1.507   1.963  1.2519 -0.2153  0.4353
 1612TIP3    H226328   4.270   1.397   1.877 -0.3533 -0.2382 -0.6497
 1613TIP3   OH226329   4.407   2.707   0.075  0.3681  0.5687  0.0590
 1613TIP3    H126330   4.482   2.686   0.131  0.5771  1.1775  0.0147
 1613TIP3    H226331   4.331   2.681   0.127  0.4937  2.2308  1.1524
 1614TIP3   OH226332   4.205   6.597   2.734 -0.1293 -0.6072 -0.5392
 1614TIP3    H126333   4.132   6.631   2.785  0.7611  0.5394  0.0059
 1614TIP3    H226334   4.216   6.660   2.663  1.7193  0.4760  0.6417
 1615TIP3   OH226335   0.371   1.271  16.792 -0.5748  0.8670 -0.0921
 1615TIP3    H126336   0.457   1.283  16.751 -0.2908  1.8649  0.7680
 1615TIP3    H226337   0.387   1.282  16.886 -1.4710  0.0298  0.1831
 1616TIP3   OH226338   4.754   6.815   3.388  0.5041  0.0920  0.3280
 1616TIP3    H126339   4.705   6.885   3.346  1.8220  1.6373  1.2053
 1616TIP3    H226340   4.731   6.821   3.481  1.9397  0.5666  0.6901
 1617TIP3   OH226341   3.834   1.264  14.922 -0.5684 -0.1426  0.0413
 1617TIP3    H126342   3.914   1.226  14.887 -1.0612 -0.6430 -0.5629
 1617TIP3    H226343   3.806   1.201  14.989 -1.0033 -0.5040 -0.4677
 1618TIP3   OH226344   2.898   4.082   0.577  1.0063 -0.3883  0.0864
 1618TIP3    H126345   2.959   4.046   0.513  0.8309 -0.7876  0.1353
 1618TIP3    H226346   2.821   4.106   0.526  0.6896 -1.1224  0.1931
 1619TIP3   OH226347   0.809   3.398  17.043  0.1374 -0.1591 -0.6485
 1619TIP3    H126348   0.862   3.477  17.054  0.0925 -0.1115 -0.7835
 1619TIP3    H226349   0.823   3.349  17.125 -0.6858  0.4881 -0.1010
 1620TIP3   OH226350   3.128   5.089  14.445  0.2787 -0.0091 -0.3814
 1620TIP3    H126351   3.194   5.125  14.386  0.0923  0.2919 -0.4060
 1620TIP3    H226352   3.167   5.008  14.477  1.2261  0.8260  0.6437
 1621TIP3   OH226353   1.760   2.818  16.644 -0.2726  0.6256 -0.3318
 1621TIP3    H126354   1.683   2.797  16.591  0.2511  1.4287 -1.4381
 1621TIP3    H226355   1.833   2.814  16.583  0.5261  0.2193  0.6357
 1622TIP3   OH226356   6.434   2.097   2.304  0.1963 -0.1301  0.0909
 1622TIP3    H126357   6.449   2.071   2.395  0.4261  0.0842  0.1125
 1622TIP3    H226358   6.463   2.188   2.299  0.1198 -0.1184 -0.1806
 1623TIP3   OH226359   5.357   3.245   1.778 -0.0367  0.2894 -0.1094
 1623TIP3    H126360   5.311   3.207   1.703  0.5922  0.8688 -0.8027
 1623TIP3    H226361   5.304   3.219   1.853 -0.6350 -0.3811 -0.7350
 1624TIP3   OH226362   0.512   3.500  14.800 -0.0076  0.3893  1.0280
 1624TIP3    H126363   0.420   3.488  14.775  0.2297  2.8221 -1.4961
 1624TIP3    H226364   0.562   3.472  14.723  1.1973  1.8175  1.2470
 1625TIP3   OH226365   5.038   3.752  15.107  0.2454 -0.1130  0.0191
 1625TIP3    H126366   5.088   3.752  15.026 -0.5453 -2.0365 -0.5203
 1625TIP3    H226367   5.064   3.832  15.152  0.6393  1.0394 -2.1663
 1626TIP3   OH226368   4.080   3.653   1.511  0.4144  0.1608  0.7943
 1626TIP3    H126369   4.089   3.732   1.458  1.7077  0.4001  1.3226
 1626TIP3    H226370   3.989   3.626   1.500  0.6002  0.2638 -1.4584
 1627TIP3   OH226371   0.248   1.981   1.340 -0.0371  0.2228  0.3362
 1627TIP3    H126372   0.160   1.941   1.338 -0.8893  1.9596 -1.7146
 1627TIP3    H226373   0.301   1.923   1.285 -0.8504  0.9219 -1.2821
 1628TIP3   OH226374   2.142   6.259  12.623 -0.1349 -0.4126  0.8363
 1628TIP3    H126375   2.112   6.218  12.542  0.8725  0.8944 -0.2559
 1628TIP3    H226376   2.157   6.186  12.683 -0.3542 -1.4692 -0.3535
 1629TIP3   OH226377   4.824   3.238   3.242  0.2407 -0.0945  0.2803
 1629TIP3    H126378   4.822   3.225   3.337 -1.4385 -0.5491  0.2258
 1629TIP3    H226379   4.849   3.152   3.207  1.7230  0.3041  0.3235
 1630TIP3   OH226380   1.010   3.789  12.472 -0.0574 -0.3737 -0.3195
 1630TIP3    H126381   1.006   3.868  12.419 -0.7426 -0.4131 -0.3381
 1630TIP3    H226382   0.931   3.792  12.525  0.4243 -0.5276  0.4279
 1631TIP3   OH226383   0.265   3.364  15.793  0.2636  0.0128 -0.3033
 1631TIP3    H126384   0.256   3.434  15.857 -0.0070  0.5986 -0.9685
 1631TIP3    H226385   0.332   3.395  15.732  1.7256 -1.2592  0.6109
 1632TIP3   OH226386   5.065   2.550   4.534  0.5770 -0.2398  0.3611
 1632TIP3    H126387   5.019   2.483   4.483 -1.2292  0.9158  0.3923
 1632TIP3    H226388   5.128   2.587   4.472 -0.8556  0.4151 -0.7575
 1633TIP3   OH226389   4.298   4.919   3.147  0.2910 -0.4780 -0.9530
 1633TIP3    H126390   4.261   4.882   3.227  0.3539 -0.0239 -0.7112
 1633TIP3    H226391   4.364   4.982   3.178 -1.0884  1.2010 -1.3024
 1634TIP3   OH226392   0.351   5.213  15.728  0.0422 -0.3549  0.4707
 1634TIP3    H126393   0.354   5.308  15.713  1.3544 -0.5235 -0.4969
 1634TIP3    H226394   0.336   5.175  15.642  1.6503 -1.1038  0.4924
 1635TIP3   OH226395   0.904   5.359  12.103 -0.2389 -0.4248  0.4512
 1635TIP3    H126396   0.846   5.422  12.147  0.3433 -0.0780  0.7369
 1635TIP3    H226397   0.845   5.301  12.056 -0.7859  0.5645 -0.1281
 1636TIP3   OH226398   0.532   2.901  12.865 -0.2018 -0.3858 -0.0941
 1636TIP3    H126399   0.484   2.821  12.844 -1.4294  0.0917  0.7451
 1636TIP3    H226400   0.466   2.970  12.862  0.6738  0.4865 -0.0180
 1637TIP3   OH226401   1.235   3.058  17.122  0.3742  0.2542 -0.0181
 1637TIP3    H126402   1.219   3.143  17.164  0.4925  0.7493 -0.9412
 1637TIP3    H226403   1.284   3.008  17.187  2.2305  1.6789 -0.2513
 1638TIP3   OH226404   3.255   3.913  13.421  0.2854  0.1475 -0.0016
 1638TIP3    H126405   3.194   3.960  13.478 -1.8429  0.4964 -2.3631
 1638TIP3    H226406   3.338   3.914  13.468 -0.7615  2.4081  2.0129
 1639TIP3   OH226407   0.228   0.773  15.578  0.3636 -0.2583  0.3497
 1639TIP3    H126408   0.135   0.750  15.575  0.4899 -1.0005  1.5912
 1639TIP3    H226409   0.273   0.689  15.567  0.8770 -0.1245  1.3913
 1640TIP3   OH226410   6.468   2.274   4.688 -0.2700  0.3425  0.4783
 1640TIP3    H126411   6.533   2.275   4.618 -1.5383  1.3057 -0.7667
 1640TIP3    H226412   6.405   2.342   4.662 -1.0507  0.3709  2.3168
 1641TIP3   OH226413   0.941   5.325   1.343 -0.9080 -0.0694  0.2548
 1641TIP3    H126414   0.960   5.411   1.306  1.4678  0.0604  1.5805
 1641TIP3    H226415   0.860   5.298   1.301 -0.6431  1.9293 -1.7165
 1642TIP3   OH226416   3.345   1.111   1.061  0.0466 -0.4023 -0.4351
 1642TIP3    H126417   3.251   1.112   1.041  0.0591 -2.2065 -0.7133
 1642TIP3    H226418   3.353   1.162   1.142 -1.5426 -2.2308  0.9761
 1643TIP3   OH226419   2.592   6.561   0.248 -0.5317 -0.4234 -0.5444
 1643TIP3    H126420   2.528   6.629   0.226  0.2450 -0.3157 -2.6306
 1643TIP3    H226421   2.641   6.547   0.168  0.7195 -1.9848  0.4378
 1644TIP3   OH226422   0.858   5.338  14.235  0.2467 -0.0441 -0.1179
 1644TIP3    H126423   0.777   5.365  14.279 -0.4945  1.5748 -2.2881
 1644TIP3    H226424   0.927   5.384  14.282 -0.2022 -0.3851  0.9200
 1645TIP3   OH226425   4.248   6.115  12.174 -0.1399 -0.2894  0.3448
 1645TIP3    H126426   4.193   6.110  12.096 -2.4087 -1.2101  1.8788
 1645TIP3    H226427   4.192   6.081  12.244  2.2187 -0.6615  2.1592
 1646TIP3   OH226428   1.300   1.697   3.800  0.1072  0.5462  0.2754
 1646TIP3    H126429   1.263   1.626   3.854  2.0345 -3.0833 -2.6983
 1646TIP3    H226430   1.224   1.747   3.771 -1.4889 -0.8670  1.7562
 1647TIP3   OH226431   0.702   0.040   0.610  0.2645  0.1364  0.3344
 1647TIP3    H126432   0.682  -0.024   0.542  2.4660 -1.1764  0.8256
 1647TIP3    H226433   0.621   0.089   0.621 -0.1757  0.4953 -3.2825
 1648TIP3   OH226434   2.293   0.443  12.628  0.0922  0.2963  0.1227
 1648TIP3    H126435   2.292   0.353  12.594 -0.0683 -0.4428  1.9858
 1648TIP3    H226436   2.382   0.456  12.660  0.2290  0.9659 -0.4937
 1649TIP3   OH226437   0.439   0.012   4.404 -0.4649  0.8372 -0.3061
 1649TIP3    H126438   0.368   0.029   4.341  1.2191  0.1375 -2.5164
 1649TIP3    H226439   0.504  -0.038   4.354  1.0957  0.4599  1.9583
 1650TIP3   OH226440   4.338   4.839   0.258 -0.4663 -0.0146  0.4508
 1650TIP3    H126441   4.267   4.902   0.267  0.5246  1.3107 -0.7129
 1650TIP3    H226442   4.326   4.800   0.172 -0.0624 -0.1482  0.4518
 1651TIP3   OH226443   0.755   4.802   3.564 -0.1022  0.1207  0.8943
 1651TIP3    H126444   0.736   4.769   3.476  0.4508  1.1498  0.3774
 1651TIP3    H226445   0.849   4.791   3.574  0.1378  1.6642  0.6304
 1652TIP3   OH226446   0.120   4.192   5.066  0.2994 -0.1460  0.0406
 1652TIP3    H126447   0.100   4.187   4.973 -0.0999  1.1173  0.0430
 1652TIP3    H226448   0.062   4.128   5.107  0.2577 -0.4822 -0.5339
 1653TIP3   OH226449   3.073   1.519   3.125 -0.0966 -0.3180  0.1756
 1653TIP3    H126450   3.047   1.580   3.056 -0.8300 -1.3036 -0.4479
 1653TIP3    H226451   3.169   1.522   3.126 -0.1011  0.1652 -0.4635
 1654TIP3   OH226452   0.017   3.362   4.224  0.3310  0.2133  0.0015
 1654TIP3    H126453  -0.001   3.337   4.315  0.9710 -2.9806 -0.6471
 1654TIP3    H226454  -0.069   3.379   4.186 -0.0915 -0.3854  0.6777
 1655TIP3   OH226455   1.036   5.165   5.922  0.6203 -0.3335 -0.0696
 1655TIP3    H126456   0.947   5.129   5.918 -0.2733  1.8361 -1.8858
 1655TIP3    H226457   1.045   5.197   6.012 -0.2590 -0.9951  0.2639
 1656TIP3   OH226458   4.541   4.153   0.005  0.5806  0.1506  0.0892
 1656TIP3    H126459   4.474   4.219  -0.012  2.1076  1.4990 -1.0002
 1656TIP3    H226460   4.540   4.142   0.100 -0.0071  1.4318  0.2451
 1657TIP3   OH226461   4.983   2.445  11.723 -0.1874  0.1318  0.0179
 1657TIP3    H126462   5.010   2.407  11.639  0.9768 -2.2381  1.3457
 1657TIP3    H226463   5.053   2.506  11.746 -0.2914  0.4587 -0.5256
 1658TIP3   OH226464   2.667   3.043  14.163 -0.7088 -0.0198  0.1082
 1658TIP3    H126465   2.722   2.991  14.104  0.1099  0.8244  0.0958
 1658TIP3    H226466   2.579   3.035  14.127 -0.8858 -2.5579  0.9425
 1659TIP3   OH226467   5.149   0.546  16.853 -0.2548 -0.1259 -0.2789
 1659TIP3    H126468   5.150   0.451  16.868  0.2011 -0.0511  0.2019
 1659TIP3    H226469   5.186   0.583  16.934  0.1720  0.4198 -0.7184
 1660TIP3   OH226470   2.727   3.207   5.550 -0.4179  0.2392 -0.1100
 1660TIP3    H126471   2.711   3.298   5.577  0.1351 -0.0780  1.3879
 1660TIP3    H226472   2.716   3.156   5.631  0.7700 -0.8392 -0.5974
 1661TIP3   OH226473   4.323   4.299  16.253 -0.1096 -0.5005  0.3939
 1661TIP3    H126474   4.256   4.364  16.232 -0.6788 -1.4496 -0.8025
 1661TIP3    H226475   4.287   4.216  16.224  0.9680 -1.2552  1.1080
 1662TIP3   OH226476   3.509   3.335   0.606 -0.5026  0.2594 -0.4772
 1662TIP3    H126477   3.434   3.389   0.580  0.1689  0.8920 -1.1494
 1662TIP3    H226478   3.578   3.360   0.545 -0.2618 -1.5927 -1.0202
 1663TIP3   OH226479   0.642   1.008  15.961  0.2696 -0.4836  0.0131
 1663TIP3    H126480   0.707   1.058  16.010 -0.5474 -0.3328  0.9586
 1663TIP3    H226481   0.614   1.068  15.891  0.9720 -0.4694 -0.2614
 1664TIP3   OH226482   2.045   1.497   5.429 -0.7852  0.7208 -0.1170
 1664TIP3    H126483   2.022   1.438   5.501  1.7631 -0.3741 -0.0976
 1664TIP3    H226484   2.080   1.574   5.472 -0.2105  0.4927 -0.1766
 1665TIP3   OH226485   2.104   4.185  11.733 -0.0667 -0.3216 -0.4151
 1665TIP3    H126486   2.115   4.280  11.737  2.5208 -0.6042  1.7845
 1665TIP3    H226487   2.009   4.172  11.730 -0.5339  2.3284  0.3259
 1666TIP3   OH226488   1.226   5.126  15.916  0.1108 -0.3858 -0.0388
 1666TIP3    H126489   1.186   5.044  15.943 -1.4530  0.0151 -0.9942
 1666TIP3    H226490   1.283   5.150  15.989 -1.3314 -1.0429  1.3652
 1667TIP3   OH226491   1.260   1.543  12.948  0.1195 -0.0998 -0.6352
 1667TIP3    H126492   1.198   1.472  12.968 -1.7467  0.9398 -2.3077
 1667TIP3    H226493   1.320   1.505  12.884  1.4567 -1.1880  1.1666
 1668TIP3   OH226494   2.216   0.315  16.716  0.5774 -0.4785 -0.8501
 1668TIP3    H126495   2.217   0.229  16.757 -0.4353 -0.2016 -0.1825
 1668TIP3    H226496   2.279   0.366  16.766 -0.8632 -0.0608  0.6208
 1669TIP3   OH226497   6.795   4.622  12.057 -0.5287 -0.1102 -0.2017
 1669TIP3    H126498   6.728   4.569  12.013  0.1646  0.1379 -1.5998
 1669TIP3    H226499   6.752   4.707  12.072 -0.6270 -0.0463 -0.8316
 1670TIP3   OH226500   0.155   1.876   3.030 -0.4257  0.0873  0.2163
 1670TIP3    H126501   0.209   1.801   3.008 -0.8652 -0.5048  1.1152
 1670TIP3    H226502   0.137   1.867   3.123 -0.3281  1.4140  0.3941
 1671TIP3   OH226503   0.879   6.676  13.192 -0.3258 -0.1736  0.5157
 1671TIP3    H126504   0.872   6.615  13.266  1.7301  0.9158  1.6830
 1671TIP3    H226505   0.930   6.749  13.225 -1.4923  1.5697 -1.2803
 1672TIP3   OH226506   0.651   3.176  16.140  0.0712  0.2102  0.0331
 1672TIP3    H126507   0.696   3.254  16.173 -1.0228  0.7718  0.2384
 1672TIP3    H226508   0.707   3.103  16.167  0.1237  0.7823  1.5915
 1673TIP3   OH226509   3.237   5.759   3.954  0.5983  0.3408 -0.3056
 1673TIP3    H126510   3.267   5.746   4.044 -1.1729 -0.0147  0.2779
 1673TIP3    H226511   3.313   5.737   3.900  1.3315 -0.6688  1.0731
 1674TIP3   OH226512   0.267   0.495   4.403  0.0089  0.1584 -0.3635
 1674TIP3    H126513   0.222   0.487   4.319 -0.6244  0.5976 -0.0804
 1674TIP3    H226514   0.274   0.405   4.435  2.8174 -0.3888 -2.1388
 1675TIP3   OH226515   3.147   0.738  15.911 -0.7812 -0.2234  0.2160
 1675TIP3    H126516   3.224   0.792  15.891  0.1732 -0.5860  2.6149
 1675TIP3    H226517   3.094   0.792  15.969 -1.3861 -0.7056  0.1255
 1676TIP3   OH226518   1.343   1.510  15.719 -0.1635 -0.0612  0.1920
 1676TIP3    H126519   1.283   1.504  15.645 -0.0214  1.9469 -0.1347
 1676TIP3    H226520   1.418   1.457  15.692 -0.5958 -0.2978 -0.6025
 1677TIP3   OH226521   4.139   5.838  16.712  0.3566 -0.0428  0.4505
 1677TIP3    H126522   4.063   5.896  16.713  1.2065  1.1021  0.7522
 1677TIP3    H226523   4.213   5.894  16.737  1.2091 -1.2606  0.7868
 1678TIP3   OH226524   2.156   3.011  14.803  0.3083 -0.1428 -0.0805
 1678TIP3    H126525   2.108   3.078  14.852 -1.7616 -0.6941 -1.2211
 1678TIP3    H226526   2.092   2.940  14.792  1.7413 -1.3612 -0.7998
 1679TIP3   OH226527   1.521   6.795  13.716  0.7054  0.4584  0.1371
 1679TIP3    H126528   1.615   6.802  13.731  0.3891  1.5704  1.9355
 1679TIP3    H226529   1.486   6.761  13.799 -0.1551 -3.7355 -1.6737
 1680TIP3   OH226530   3.659   3.149  11.006  0.0135 -0.8156  0.0896
 1680TIP3    H126531   3.730   3.137  10.943  0.0502  0.1364 -0.0702
 1680TIP3    H226532   3.583   3.109  10.964 -0.1522  0.5006 -0.9453
 1681TIP3   OH226533   6.404   2.225  11.028  0.0131 -0.2002 -0.4134
 1681TIP3    H126534   6.333   2.177  11.071  1.0630  0.1257  1.7860
 1681TIP3    H226535   6.465   2.158  10.999 -0.4875 -0.3910 -1.0647
 1682TIP3   OH226536   1.785   4.828  16.854 -0.3386 -0.1144  0.0050
 1682TIP3    H126537   1.707   4.884  16.856  0.2146  0.6428  1.3991
 1682TIP3    H226538   1.816   4.835  16.763 -0.5246  1.5286  0.0283
 1683TIP3   OH226539   6.668   6.127   2.562  0.5027 -0.3455 -0.1734
 1683TIP3    H126540   6.620   6.197   2.608  0.7863  1.3531 -2.3352
 1683TIP3    H226541   6.599   6.072   2.525  0.1843  0.9683 -1.6125
 1684TIP3   OH226542   4.908   5.469  12.964 -0.4573  0.2535 -0.0526
 1684TIP3    H126543   4.991   5.424  12.977 -1.5676 -2.5133 -1.5583
 1684TIP3    H226544   4.928   5.541  12.904  0.6972 -1.1381 -1.4193
 1685TIP3   OH226545   0.576   2.684  13.257 -0.2394  0.1717 -0.5929
 1685TIP3    H126546   0.572   2.596  13.219  0.5868  0.6030 -1.7251
 1685TIP3    H226547   0.515   2.681  13.331  0.3981 -1.5989 -0.0946
 1686TIP3   OH226548   0.420   6.481   4.826 -0.4409 -0.4782  0.3710
 1686TIP3    H126549   0.438   6.557   4.771 -0.5684 -0.0826  0.8637
 1686TIP3    H226550   0.475   6.493   4.903  1.7434 -2.3587 -0.7751
 1687TIP3   OH226551   6.805   1.595   1.655  0.7086  0.0209  0.6370
 1687TIP3    H126552   6.728   1.541   1.636  1.1536 -0.9859  1.5690
 1687TIP3    H226553   6.773   1.660   1.718  0.2148  0.7595 -0.3439
 1688TIP3   OH226554   5.975   1.728  16.776  0.7982  0.3106  0.4491
 1688TIP3    H126555   5.882   1.710  16.790  0.5710 -0.5506 -1.7127
 1688TIP3    H226556   5.985   1.821  16.798 -1.2480  1.2336 -1.9403
 1689TIP3   OH226557   5.006   5.704   0.684  0.5565  0.1111  0.2502
 1689TIP3    H126558   4.940   5.717   0.616 -0.5274 -0.3894  1.1814
 1689TIP3    H226559   5.089   5.699   0.636 -0.1693 -0.1102 -1.0247
 1690TIP3   OH226560   0.789   5.059   6.351 -0.0789  0.3304 -0.4957
 1690TIP3    H126561   0.869   5.019   6.318 -0.9126 -0.3288 -1.8299
 1690TIP3    H226562   0.803   5.153   6.341  1.2559  0.3445  1.1179
 1691TIP3   OH226563   0.165   5.776   1.857  0.2345  0.0374  1.1372
 1691TIP3    H126564   0.080   5.818   1.865  0.0685  1.1484 -3.6883
 1691TIP3    H226565   0.228   5.848   1.864  0.2008  0.5873 -2.4563
 1692TIP3   OH226566   0.338   1.121   2.210  0.0287  0.1260  0.2711
 1692TIP3    H126567   0.420   1.073   2.199  0.3467  0.8252 -0.4680
 1692TIP3    H226568   0.320   1.116   2.304  1.0474  0.1677  0.4771
 1693TIP3   OH226569   5.057   3.494  16.416  0.2544 -0.5214 -0.5350
 1693TIP3    H126570   5.148   3.475  16.441  0.2079 -0.0876 -0.0357
 1693TIP3    H226571   5.014   3.408  16.419  0.2950 -0.5120  0.7026
 1694TIP3   OH226572   1.099   5.946  15.240 -0.2677  0.1222  0.3270
 1694TIP3    H126573   1.012   5.952  15.279 -0.5418  1.5128 -0.4325
 1694TIP3    H226574   1.158   5.980  15.306 -0.3954 -0.0889  0.5512
 1695TIP3   OH226575   6.621   4.503  12.582 -0.1612  0.1778  0.4871
 1695TIP3    H126576   6.541   4.452  12.593 -0.3815  0.0262 -1.5346
 1695TIP3    H226577   6.607   4.553  12.502  1.6295  0.4078  0.2764
 1696TIP3   OH226578   4.607   3.455  14.906  0.2360 -0.3848  0.0614
 1696TIP3    H126579   4.597   3.491  14.818 -0.1015  1.3433  0.7521
 1696TIP3    H226580   4.519   3.461  14.944  0.3784 -1.1054  0.5148
 1697TIP3   OH226581   0.403   2.785   4.276 -0.4617 -0.3534 -0.0718
 1697TIP3    H126582   0.398   2.811   4.184  0.4825  0.5114  0.1073
 1697TIP3    H226583   0.375   2.863   4.325  0.8082 -0.1728  0.4149
 1698TIP3   OH226584   5.305   6.792   4.384 -0.5085  0.4132  0.0326
 1698TIP3    H126585   5.394   6.827   4.389 -0.5974  0.7365 -0.5431
 1698TIP3    H226586   5.296   6.738   4.462 -0.2665  1.4563  0.8046
 1699TIP3   OH226587   5.990   1.281   1.673 -0.6751  0.6030  0.1893
 1699TIP3    H126588   6.027   1.272   1.760  1.4548  1.0288 -0.6237
 1699TIP3    H226589   5.904   1.239   1.680  0.5133 -1.8179  1.7987
 1700TIP3   OH226590   4.746   4.735  15.384 -0.0026 -0.3302  1.0007
 1700TIP3    H126591   4.737   4.640  15.387  0.0015 -0.3234  1.2669
 1700TIP3    H226592   4.721   4.759  15.295 -1.3252 -0.4499  1.3185
 1701TIP3   OH226593   0.322   2.701  14.184 -0.3834 -0.4278  0.3152
 1701TIP3    H126594   0.410   2.718  14.151 -0.7935  0.5881 -0.3170
 1701TIP3    H226595   0.307   2.768  14.250  0.0916 -1.9160  2.0101
 1702TIP3   OH226596   6.003   3.482   2.396 -0.2122  0.0075  0.3712
 1702TIP3    H126597   6.074   3.424   2.367 -0.9386  0.3452 -2.3884
 1702TIP3    H226598   5.925   3.426   2.394 -0.4487  0.3230  0.7147
 1703TIP3   OH226599   0.602   0.046  12.283  0.2505  0.1758  0.0448
 1703TIP3    H126600   0.565   0.056  12.370 -2.2702 -2.9956 -0.4938
 1703TIP3    H226601   0.673  -0.018  12.293  1.4098  1.3913  0.0094
 1704TIP3   OH226602   6.124   5.588  10.651 -0.3726 -0.8108 -0.1272
 1704TIP3    H126603   6.088   5.510  10.610 -0.9495 -0.7875  0.3242
 1704TIP3    H226604   6.093   5.660  10.596  2.5724 -1.0186 -2.3216
 1705TIP3   OH226605   4.401   1.365  13.239 -0.0142 -0.1788  0.0114
 1705TIP3    H126606   4.459   1.340  13.311  3.1993 -0.5585 -2.4640
 1705TIP3    H226607   4.355   1.285  13.215 -0.5779 -0.2111  1.1749
 1706TIP3   OH226608   3.979   0.975   3.928  0.7505 -0.3260  0.3964
 1706TIP3    H126609   4.048   1.039   3.942  0.6911 -0.5948  2.1479
 1706TIP3    H226610   4.016   0.912   3.867  1.1330  0.8648 -0.6323
 1707TIP3   OH226611   5.939   6.493   5.262 -0.4271  0.0916  0.2430
 1707TIP3    H126612   5.929   6.586   5.281 -0.4376  0.0597  0.3969
 1707TIP3    H226613   5.915   6.449   5.344 -0.3681 -0.0437  0.1883
 1708TIP3   OH226614   0.898   3.086   5.582  0.2340 -0.9161 -0.3790
 1708TIP3    H126615   0.959   3.160   5.590  0.2682 -1.0230  0.5248
 1708TIP3    H226616   0.825   3.121   5.532 -0.4763  0.2508  1.3669
 1709TIP3   OH226617   3.681   2.310  14.182 -0.2544 -0.3587  0.1334
 1709TIP3    H126618   3.674   2.405  14.168  1.4388  0.1833  2.3996
 1709TIP3    H226619   3.615   2.291  14.250  0.8130 -0.3612  1.2099
 1710TIP3   OH226620   2.162   6.740   0.308  0.2727 -0.6140  0.3077
 1710TIP3    H126621   2.073   6.704   0.317  0.3465 -0.9085 -0.1292
 1710TIP3    H226622   2.173   6.796   0.386  0.0377 -1.2857  0.8342
 1711TIP3   OH226623   5.609   2.227  11.212  0.5788  0.4347  0.1157
 1711TIP3    H126624   5.596   2.321  11.195 -2.1299  0.1870  0.4519
 1711TIP3    H226625   5.607   2.187  11.125 -2.4993  0.3243  0.1248
 1712TIP3   OH226626   2.777   1.422   1.762 -0.2964 -0.2265  0.1223
 1712TIP3    H126627   2.805   1.337   1.796  2.2518 -0.0392 -1.3027
 1712TIP3    H226628   2.807   1.485   1.827 -1.5605 -0.3081  0.8264
 1713TIP3   OH226629   2.595   2.657  14.587 -0.0450 -0.0434 -0.0303
 1713TIP3    H126630   2.687   2.677  14.605 -1.1507  2.0283  5.0881
 1713TIP3    H226631   2.559   2.738  14.551 -0.3253  0.1132  0.5746
 1714TIP3   OH226632   2.858   0.942   5.926  0.4987  0.2030  0.1485
 1714TIP3    H126633   2.946   0.912   5.951  0.0302  0.0391  1.7500
 1714TIP3    H226634   2.821   0.869   5.877  0.7010 -0.3711  0.8261
 1715TIP3   OH226635   3.821   1.684   1.837  0.6424 -0.5730 -0.3884
 1715TIP3    H126636   3.913   1.658   1.851  0.6299 -0.8615 -0.8187
 1715TIP3    H226637   3.788   1.704   1.925  0.8698 -1.3096 -0.1289
 1716TIP3   OH226638   5.069   2.081   0.536  0.4010  0.4315  0.4937
 1716TIP3    H126639   5.065   2.005   0.478 -0.3948  1.2855 -0.6040
 1716TIP3    H226640   5.039   2.048   0.621 -1.9234 -0.0599 -0.4488
 1717TIP3   OH226641   0.301   1.404  11.344 -0.0719 -0.8677 -0.2102
 1717TIP3    H126642   0.247   1.457  11.404 -0.9291 -2.0225  0.0788
 1717TIP3    H226643   0.261   1.418  11.258 -0.2357 -0.9646 -0.1508
 1718TIP3   OH226644   0.105   4.341   5.744  0.0612 -0.3839 -0.3016
 1718TIP3    H126645   0.143   4.333   5.657  1.1031 -1.5811  0.2422
 1718TIP3    H226646   0.036   4.275   5.746  0.6165 -0.9615  0.0650
 1719TIP3   OH226647   2.229   3.669  14.617  0.2906  0.2561 -0.0391
 1719TIP3    H126648   2.169   3.742  14.623  2.7319  2.5737 -1.6020
 1719TIP3    H226649   2.262   3.657  14.706 -1.3561 -0.1388  0.5530
 1720TIP3   OH226650   1.250   6.048  12.583  0.2534 -0.4428 -0.5269
 1720TIP3    H126651   1.249   6.065  12.677  2.1489  0.3239 -0.5972
 1720TIP3    H226652   1.221   6.131  12.544  0.9543 -0.2452 -0.6421
 1721TIP3   OH226653   4.008   4.252   0.905  0.3283  0.2052  0.4030
 1721TIP3    H126654   4.100   4.240   0.884  0.3833 -1.9899  1.5961
 1721TIP3    H226655   4.007   4.273   0.998 -0.3565  1.2378  0.1832
 1722TIP3   OH226656   4.490   3.184   4.417 -0.4110 -0.4396 -0.1425
 1722TIP3    H126657   4.419   3.237   4.380  0.9097  0.7004 -1.1421
 1722TIP3    H226658   4.496   3.108   4.359 -1.8311 -1.3747  0.8742
 1723TIP3   OH226659   0.203   3.062   3.696 -0.5000 -0.1830  0.6385
 1723TIP3    H126660   0.129   3.011   3.662  1.1745 -1.8711 -0.7046
 1723TIP3    H226661   0.187   3.151   3.663 -1.2827 -0.7976 -0.7658
 1724TIP3   OH226662   2.476   4.582   2.048 -0.0535 -0.1530 -0.4309
 1724TIP3    H126663   2.389   4.578   2.087 -0.3110  1.2144 -0.8350
 1724TIP3    H226664   2.481   4.668   2.008  0.4241 -1.2694 -2.9296
 1725TIP3   OH226665   1.315   1.357   4.896 -0.0344  0.2185  0.1322
 1725TIP3    H126666   1.367   1.310   4.960 -0.2955  1.0503  0.9718
 1725TIP3    H226667   1.343   1.321   4.811 -1.1144 -2.3308  0.7751
 1726TIP3   OH226668   4.784   1.611   3.655  0.1586  0.2771 -0.3195
 1726TIP3    H126669   4.724   1.685   3.646 -1.4379 -1.0668 -1.1790
 1726TIP3    H226670   4.744   1.541   3.604  0.0335 -2.1708  2.8916
 1727TIP3   OH226671   5.745   2.692   5.145 -0.6534 -0.0183  0.2970
 1727TIP3    H126672   5.661   2.717   5.185 -0.1490  1.3005  0.5897
 1727TIP3    H226673   5.806   2.759   5.175  0.0469  0.2781 -1.6324
 1728TIP3   OH226674   4.934   1.186   5.069  0.1002 -0.3041  0.1667
 1728TIP3    H126675   4.913   1.278   5.084  0.0409 -0.4303  0.9116
 1728TIP3    H226676   4.890   1.140   5.140  0.9395 -0.8088  0.3762
 1729TIP3   OH226677   3.185   6.458   5.280  0.1704 -0.2132  0.1680
 1729TIP3    H126678   3.121   6.455   5.351 -0.1191 -0.1918 -0.0898
 1729TIP3    H226679   3.173   6.545   5.241 -1.5719 -1.1825 -1.6450
 1730TIP3   OH226680   0.695   4.508  16.173 -0.2772  0.7681  0.3367
 1730TIP3    H126681   0.738   4.537  16.092 -1.0026  0.5902 -0.1155
 1730TIP3    H226682   0.629   4.575  16.191  1.3955  2.0586  2.0679
 1731TIP3   OH226683   5.987   1.807   2.702 -0.8014 -0.1663 -0.6927
 1731TIP3    H126684   5.944   1.759   2.632 -0.2986 -2.6987  0.5992
 1731TIP3    H226685   5.916   1.851   2.748 -1.1863  1.1148 -2.4126
 1732TIP3   OH226686   2.265   1.555   5.904  0.0390 -0.4704 -0.0968
 1732TIP3    H126687   2.336   1.555   5.967  0.2652  0.6042 -0.3268
 1732TIP3    H226688   2.240   1.463   5.894  2.8653 -1.1766 -1.6473
 1733TIP3   OH226689   1.024   3.194   2.584 -0.1307  0.1194 -0.4279
 1733TIP3    H126690   0.975   3.169   2.506 -0.7131  0.8615 -0.3170
 1733TIP3    H226691   1.010   3.288   2.592  3.6958  1.0220 -2.0359
 1734TIP3   OH226692   2.454   4.519  14.327  0.4314  0.3199 -0.2288
 1734TIP3    H126693   2.514   4.497  14.256  0.3013  1.0591 -0.5820
 1734TIP3    H226694   2.426   4.609  14.308  0.2680  0.4755  0.6656
 1735TIP3   OH226695   0.217   3.256  16.555  0.1159  0.3310  0.4650
 1735TIP3    H126696   0.137   3.287  16.514  1.7458  2.8283 -1.0880
 1735TIP3    H226697   0.202   3.162  16.568 -2.6548  0.5245 -0.6403
 1736TIP3   OH226698   6.820   0.449  14.976  0.1130  0.4157 -0.0980
 1736TIP3    H126699   6.831   0.366  14.931  0.8518  0.5029 -0.1031
 1736TIP3    H226700   6.786   0.426  15.062 -0.8495  0.2101 -0.5298
 1737TIP3   OH226701   3.660   6.068   3.468 -0.4990 -0.1109  0.4243
 1737TIP3    H126702   3.577   6.069   3.421  0.1167  0.0326 -0.6868
 1737TIP3    H226703   3.688   5.977   3.466 -0.6133 -0.1576  0.7890
 1738TIP3   OH226704   2.219   6.779   4.565  0.1130 -0.0047  0.1232
 1738TIP3    H126705   2.284   6.712   4.543 -0.6593 -0.8416  0.3204
 1738TIP3    H226706   2.233   6.796   4.658 -0.7055 -1.0626  0.4616
 1739TIP3   OH226707   1.477   4.066  13.902 -0.8797  0.2994  0.4294
 1739TIP3    H126708   1.421   4.134  13.942  0.3763  1.3791  0.4235
 1739TIP3    H226709   1.536   4.040  13.972 -0.7377 -0.1136  0.1581
 1740TIP3   OH226710   1.791   6.656   3.617 -0.0817  0.0138 -0.7358
 1740TIP3    H126711   1.789   6.594   3.544  0.0163  0.5395 -1.1943
 1740TIP3    H226712   1.779   6.742   3.576 -2.9041  0.1441  0.1222
 1741TIP3   OH226713   2.823   2.071  14.034  0.9129 -0.1485  0.3734
 1741TIP3    H126714   2.843   2.161  14.062 -0.6097 -0.3491  2.2874
 1741TIP3    H226715   2.753   2.082  13.970  3.1114  0.1731 -2.1986
 1742TIP3   OH226716   1.516   5.857   3.441  0.4143  1.1446 -0.0026
 1742TIP3    H126717   1.514   5.780   3.497  1.5935 -0.5920 -2.1798
 1742TIP3    H226718   1.515   5.931   3.502  0.7875 -0.5814  2.2337
 1743TIP3   OH226719   2.731   5.523  13.229  1.0993 -0.3545 -0.3824
 1743TIP3    H126720   2.694   5.468  13.298  1.5750  0.5477  0.6292
 1743TIP3    H226721   2.760   5.462  13.161 -0.6527 -1.1814 -0.4371
 1744TIP3   OH226722   4.002   1.191  17.141 -0.3440 -0.0042 -0.0195
 1744TIP3    H126723   3.919   1.206  17.187 -0.1392  0.7981  0.0979
 1744TIP3    H226724   3.977   1.143  17.062 -0.9934  0.6807 -0.2438
 1745TIP3   OH226725   2.221   4.230   0.891  0.0428 -0.4158 -0.2067
 1745TIP3    H126726   2.201   4.139   0.914  2.3313 -0.3655  2.6766
 1745TIP3    H226727   2.309   4.226   0.852  0.1429  0.5549 -0.1109
 1746TIP3   OH226728   6.220   6.819   1.599 -0.1136  0.0256  0.1515
 1746TIP3    H126729   6.191   6.812   1.508 -1.3095 -1.8762  0.6273
 1746TIP3    H226730   6.253   6.732   1.620 -2.3790 -0.4342  2.2895
 1747TIP3   OH226731   2.659   2.055  11.806  0.2368  0.0825  0.3613
 1747TIP3    H126732   2.675   2.119  11.736  1.0783  0.7438  1.1348
 1747TIP3    H226733   2.627   2.108  11.879  0.2581 -0.4836  0.7781
 1748TIP3   OH226734   5.116   0.442   2.727  0.2270  0.3412 -0.3430
 1748TIP3    H126735   5.192   0.419   2.673  2.3807  0.8247  2.2554
 1748TIP3    H226736   5.122   0.537   2.739  0.9518  0.0723  2.1151
 1749TIP3   OH226737   0.976   4.745   5.431 -0.8959  1.3667 -0.1017
 1749TIP3    H126738   1.032   4.820   5.411  1.5023  0.0418  1.2496
 1749TIP3    H226739   0.911   4.779   5.493  0.3388  2.2848  0.7287
 1750TIP3   OH226740   0.162   0.239  11.320 -0.0921 -0.3007  0.3453
 1750TIP3    H126741   0.116   0.169  11.274  0.6763 -0.7670  0.2586
 1750TIP3    H226742   0.254   0.227  11.296 -0.0144  1.1198 -0.1741
 1751TIP3   OH226743   4.129   0.779   5.929 -0.1897 -1.0133 -0.4771
 1751TIP3    H126744   4.096   0.862   5.964 -0.8181 -2.3376  2.3557
 1751TIP3    H226745   4.225   0.790   5.928 -0.2603 -0.2832 -0.0830
 1752TIP3   OH226746   6.450   6.482   2.493  0.1333  0.2870 -0.1193
 1752TIP3    H126747   6.513   6.446   2.555  0.0573 -1.6512 -1.0846
 1752TIP3    H226748   6.498   6.487   2.410 -0.5942  0.0332 -0.5684
 1753TIP3   OH226749   5.237   2.567  11.788 -0.7462 -0.4470 -0.6879
 1753TIP3    H126750   5.191   2.613  11.857 -2.4107 -0.9034 -1.4549
 1753TIP3    H226751   5.271   2.637  11.731  0.8739 -0.0613  0.6729
 1754TIP3   OH226752   1.061   1.830  12.100 -0.3830 -0.5920 -0.1847
 1754TIP3    H126753   1.121   1.881  12.045 -1.8757  0.8719 -0.5381
 1754TIP3    H226754   1.013   1.775  12.038 -1.2138  0.1573 -0.2105
 1755TIP3   OH226755   1.095   2.769  14.818  0.1196  0.2579  0.0854
 1755TIP3    H126756   1.017   2.719  14.841 -0.4537 -0.1336 -2.4442
 1755TIP3    H226757   1.144   2.777  14.900 -3.1338  1.6186  2.0892
 1756TIP3   OH226758   5.400   5.354   4.439  0.0121  0.8296  0.0238
 1756TIP3    H126759   5.452   5.434   4.433  1.2621  0.0876  0.5870
 1756TIP3    H226760   5.434   5.299   4.369 -0.8267  0.7638 -0.3453
 1757TIP3   OH226761   5.223   1.633   3.860 -0.5441 -0.1584 -0.4723
 1757TIP3    H126762   5.256   1.677   3.938 -1.4245  0.0022 -0.1839
 1757TIP3    H226763   5.151   1.578   3.892  0.3124 -1.5532 -0.8711
 1758TIP3   OH226764   4.776   2.966  16.184  0.4120  0.1980  0.3974
 1758TIP3    H126765   4.817   2.948  16.269  0.7197  0.0926  0.2295
 1758TIP3    H226766   4.703   2.905  16.179  1.2394 -0.7802 -0.0195
 1759TIP3   OH226767   5.811   5.014   1.539 -0.2845 -0.8247 -0.1923
 1759TIP3    H126768   5.750   5.087   1.526  0.1086 -0.0079  2.0900
 1759TIP3    H226769   5.833   4.985   1.451 -0.8628  1.4861 -1.1646
 1760TIP3   OH226770   2.136   4.754  12.981  0.1446  0.1357 -0.0649
 1760TIP3    H126771   2.110   4.780  12.893 -1.8153 -0.9851  0.1143
 1760TIP3    H226772   2.096   4.668  12.993  0.3932  0.2486  1.9022
 1761TIP3   OH226773   0.107   4.231  11.525  0.0289 -0.2065 -0.5048
 1761TIP3    H126774   0.041   4.288  11.565 -0.5622 -2.0944  1.4392
 1761TIP3    H226775   0.190   4.266  11.557 -0.1057  1.0728 -1.4600
 1762TIP3   OH226776   2.779   4.100  12.693 -0.0728  0.0250 -0.0971
 1762TIP3    H126777   2.732   4.107  12.610  1.8763  0.6197 -1.2185
 1762TIP3    H226778   2.737   4.163  12.750 -0.6589  0.5074 -1.0480
 1763TIP3   OH226779   2.007   5.173   4.663  0.0727 -0.1879  0.4815
 1763TIP3    H126780   2.024   5.260   4.699  0.0102  0.2032 -0.4012
 1763TIP3    H226781   1.923   5.147   4.701 -0.9372  1.0259 -0.8095
 1764TIP3   OH226782   3.435   2.092  11.537 -0.0592 -0.3989  0.4449
 1764TIP3    H126783   3.410   2.128  11.452  1.2952  2.7664  1.2508
 1764TIP3    H226784   3.517   2.045  11.521  1.1275  1.6448  0.1900
 1765TIP3   OH226785   6.463   0.766   4.794 -0.4623 -0.5039  0.2660
 1765TIP3    H126786   6.426   0.719   4.869  1.4392  0.2534  1.7716
 1765TIP3    H226787   6.453   0.858   4.816 -0.4259 -0.2704 -0.6908
 1766TIP3   OH226788   0.468   2.705  11.947 -0.3426 -0.4785  0.0499
 1766TIP3    H126789   0.381   2.741  11.928  0.0659 -0.0974 -1.1660
 1766TIP3    H226790   0.529   2.771  11.914  0.4207 -1.7897 -1.2523
 1767TIP3   OH226791   0.259   5.516   1.152 -0.2255 -0.2037  0.3625
 1767TIP3    H126792   0.234   5.424   1.148  0.7118 -0.4824  0.5874
 1767TIP3    H226793   0.180   5.564   1.127 -0.6799 -1.0713  0.1025
 1768TIP3   OH226794   0.962   5.810  16.941  0.3616 -0.5843 -0.3639
 1768TIP3    H126795   0.951   5.728  16.989  0.1716 -0.4543 -0.1838
 1768TIP3    H226796   1.002   5.784  16.858  1.9029 -0.6870  0.3604
 1769TIP3   OH226797   0.708   1.752  16.892 -0.1454  0.5581 -1.1024
 1769TIP3    H126798   0.728   1.791  16.977 -0.8562  0.8063 -1.0501
 1769TIP3    H226799   0.683   1.825  16.836  2.6239  0.7615 -2.2665
 1770TIP3   OH226800   5.799   4.250   6.137  0.5092  0.4425  0.5426
 1770TIP3    H126801   5.755   4.296   6.209  0.9933 -0.4334  1.4153
 1770TIP3    H226802   5.839   4.174   6.178  0.8851 -0.0193 -0.6485
 1771TIP3   OH226803   5.231   0.683  16.633  0.2190  0.1697  0.2086
 1771TIP3    H126804   5.146   0.719  16.610  0.8011  0.8861 -0.8710
 1771TIP3    H226805   5.218   0.647  16.721 -1.2156  0.1680  0.0225
 1772TIP3   OH226806   6.052   4.480  11.556  0.5101  0.4145 -1.0128
 1772TIP3    H126807   6.090   4.403  11.599 -0.2475  0.5485 -0.0734
 1772TIP3    H226808   6.084   4.475  11.466  1.8633 -0.0505 -0.5261
 1773TIP3   OH226809   0.803   1.533  12.501  0.4344  0.1479  0.2106
 1773TIP3    H126810   0.736   1.465  12.493  1.2893 -0.9980  2.1667
 1773TIP3    H226811   0.886   1.485  12.504  0.9566  1.0363  3.4887
 1774TIP3   OH226812   6.420   1.541  13.562  0.4230  0.3136  0.5820
 1774TIP3    H126813   6.448   1.450  13.572 -2.5695 -0.9720 -1.3414
 1774TIP3    H226814   6.454   1.568  13.476 -0.6491  0.1574  0.0928
 1775TIP3   OH226815   5.451   4.562  14.911 -0.3872  0.1725  0.6540
 1775TIP3    H126816   5.385   4.557  14.980 -1.3149  0.2471 -0.2020
 1775TIP3    H226817   5.476   4.654  14.909  1.8959 -0.2904  2.8943
 1776TIP3   OH226818   4.276   0.970  12.597  0.5509  0.3927 -0.0554
 1776TIP3    H126819   4.349   0.965  12.535 -0.4840 -0.1098 -1.3033
 1776TIP3    H226820   4.244   1.060  12.589  0.5356  0.3818 -0.1236
 1777TIP3   OH226821   4.101   1.910  14.982  0.0018 -0.3060 -0.5744
 1777TIP3    H126822   4.132   1.985  15.033  1.8205 -1.3207 -0.1043
 1777TIP3    H226823   4.101   1.940  14.892 -0.1511  0.5292 -0.3016
 1778TIP3   OH226824   4.345   5.060  11.647  0.2374  0.1708 -0.2867
 1778TIP3    H126825   4.262   5.039  11.689  0.4772  2.8029  1.8525
 1778TIP3    H226826   4.338   5.024  11.559 -3.3614  0.6424 -0.3576
 1779TIP3   OH226827   1.246   2.898   0.890 -0.2224 -0.3583  0.0473
 1779TIP3    H126828   1.280   2.816   0.854  1.6264  0.9552 -1.3717
 1779TIP3    H226829   1.153   2.897   0.869 -0.0931 -1.7526 -0.5857
 1780TIP3   OH226830   4.096   5.014  11.763 -0.0105  0.3609 -0.6404
 1780TIP3    H126831   4.018   5.064  11.738 -0.2066 -0.3805 -1.5997
 1780TIP3    H226832   4.085   4.930  11.718  0.7599 -0.1947  0.1831
 1781TIP3   OH226833   5.501   0.176   4.602 -0.1973  0.3949  0.0558
 1781TIP3    H126834   5.532   0.090   4.576 -1.4495 -0.0179 -0.1367
 1781TIP3    H226835   5.535   0.236   4.536  2.0682  0.3252  1.0812
 1782TIP3   OH226836   2.372   1.329   0.007 -0.9082  0.2042 -0.1328
 1782TIP3    H126837   2.386   1.251   0.062 -0.6080 -0.5664 -1.2716
 1782TIP3    H226838   2.453   1.338  -0.043 -0.1241  2.4549  1.3656
 1783TIP3   OH226839   0.052   2.429  12.363 -0.0620 -0.3997  0.2190
 1783TIP3    H126840  -0.039   2.449  12.385 -0.0416  0.6254 -0.5666
 1783TIP3    H226841   0.076   2.359  12.424 -1.9114 -1.9487 -0.6784
 1784TIP3   OH226842   0.580   5.461   2.775  0.3777  0.5745 -0.0013
 1784TIP3    H126843   0.497   5.416   2.761  1.4401 -1.5348  0.2105
 1784TIP3    H226844   0.560   5.529   2.840 -1.2106  0.2687 -0.1416
 1785TIP3   OH226845   1.186   3.304  17.260 -0.0111 -0.0289  0.0979
 1785TIP3    H126846   1.234   3.289  17.342 -0.5551 -0.1232  0.4052
 1785TIP3    H226847   1.195   3.397  17.243  0.0776 -0.0029  0.2866
 1786TIP3   OH226848   5.994   2.032  11.516  0.0846  0.1155  0.3619
 1786TIP3    H126849   6.086   2.020  11.492  0.3517  1.9675  0.3523
 1786TIP3    H226850   5.948   2.039  11.433  0.1347  0.5161  0.3665
 1787TIP3   OH226851   3.337   6.233  12.942 -0.0017 -0.0142  0.4711
 1787TIP3    H126852   3.322   6.306  12.882  0.3329 -0.9665 -0.8086
 1787TIP3    H226853   3.414   6.258  12.992  3.0892 -1.3748 -3.1875
 1788TIP3   OH226854   1.272   1.566  16.535  0.2846 -0.0457  0.4448
 1788TIP3    H126855   1.276   1.494  16.473  1.4561  0.2114  0.1887
 1788TIP3    H226856   1.349   1.553  16.591 -0.2616  0.2294  1.2751
 1789TIP3   OH226857   3.664   0.145  13.085  0.0122 -0.1106 -0.0109
 1789TIP3    H126858   3.598   0.078  13.101  0.1526 -0.3565 -0.4302
 1789TIP3    H226859   3.741   0.096  13.055 -0.5092  0.3553 -2.3072
 1790TIP3   OH226860   6.449   6.428   5.212 -0.6639 -0.2791 -0.5070
 1790TIP3    H126861   6.358   6.400   5.219 -0.8690  0.2586 -0.9683
 1790TIP3    H226862   6.448   6.519   5.244 -0.2337 -0.3760 -0.2113
 1791TIP3   OH226863   3.426   3.879  15.732 -0.6829 -0.0352  0.0742
 1791TIP3    H126864   3.496   3.900  15.669 -0.9996 -0.8177 -0.5607
 1791TIP3    H226865   3.349   3.925  15.699 -0.5712  0.5166  0.5631
 1792TIP3   OH226866   3.872   2.795   5.219  0.3007 -0.3910 -0.0715
 1792TIP3    H126867   3.955   2.843   5.209  1.3663 -2.1306  0.0530
 1792TIP3    H226868   3.859   2.790   5.314  0.5812 -0.9528 -0.0575
 1793TIP3   OH226869   3.533   0.246  11.688  0.2311  0.0570 -0.0191
 1793TIP3    H126870   3.535   0.341  11.693 -0.8271  0.0720  0.1842
 1793TIP3    H226871   3.552   0.227  11.596  0.9920  0.4297  0.0497
 1794TIP3   OH226872   5.878   2.222   2.942  0.2457 -0.4451 -0.1351
 1794TIP3    H126873   5.829   2.258   2.868 -0.2778 -0.6003  0.1331
 1794TIP3    H226874   5.922   2.298   2.981 -0.3069 -0.1995  0.0180
 1795TIP3   OH226875   3.217   1.873   0.998  0.4306  0.6929 -0.0555
 1795TIP3    H126876   3.185   1.788   0.967 -0.4286  0.4721  1.3710
 1795TIP3    H226877   3.168   1.891   1.078  1.1949  2.1532  0.1422
 1796TIP3   OH226878   5.263   1.994   1.545  0.3820 -0.5522  0.4120
 1796TIP3    H126879   5.277   2.071   1.600 -1.7384  1.3479 -1.5100
 1796TIP3    H226880   5.296   2.019   1.459 -1.2198 -1.4012 -0.4953
 1797TIP3   OH226881   1.777   6.416   1.714 -0.3405  0.2267 -0.1454
 1797TIP3    H126882   1.862   6.389   1.749 -0.8554 -0.9632  0.2305
 1797TIP3    H226883   1.790   6.507   1.687  1.5071 -0.4065 -1.6000
 1798TIP3   OH226884   3.661   3.994  15.566 -0.1350  0.5189 -0.3619
 1798TIP3    H126885   3.613   4.072  15.539 -1.6117 -0.9555 -2.2451
 1798TIP3    H226886   3.740   3.994  15.511 -1.4045 -0.5975 -2.3046
 1799TIP3   OH226887   3.380   0.909   4.170 -0.3685  0.1712  0.1057
 1799TIP3    H126888   3.436   0.832   4.176  0.0126  0.1284 -2.8142
 1799TIP3    H226889   3.293   0.875   4.147  0.0186  0.5801 -2.1789
 1800TIP3   OH226890   1.011   5.332   3.966  0.0667 -0.0552 -0.2225
 1800TIP3    H126891   0.980   5.247   3.937 -2.2920  1.1269 -1.4669
 1800TIP3    H226892   0.954   5.354   4.040  2.0495 -0.3949  1.5095
 1801TIP3   OH226893   6.358   0.122   3.717 -0.7182  0.0930 -0.2197
 1801TIP3    H126894   6.316   0.206   3.701  1.1368  1.0824 -0.1898
 1801TIP3    H226895   6.344   0.105   3.811  1.0699  1.6919  0.3968
 1802TIP3   OH226896   1.171   3.869  14.601 -0.2073  0.3132 -0.2635
 1802TIP3    H126897   1.140   3.891  14.513 -0.6846 -4.1164 -1.4496
 1802TIP3    H226898   1.095   3.833  14.646  0.7624 -0.6483  0.6833
 1803TIP3   OH226899   4.295   4.511   3.086 -0.0517  0.0087  0.2517
 1803TIP3    H126900   4.225   4.566   3.119  0.9478  0.2269  2.1156
 1803TIP3    H226901   4.362   4.513   3.154  1.2685 -1.1479 -0.9393
 1804TIP3   OH226902   2.641   2.588  16.364  0.0598  0.7525  0.3124
 1804TIP3    H126903   2.624   2.528  16.291 -1.8975 -0.4689  1.6694
 1804TIP3    H226904   2.567   2.648  16.364 -0.9281 -0.3450  2.2498
 1805TIP3   OH226905   3.202   5.091   4.453  0.0312  0.4032  0.1849
 1805TIP3    H126906   3.176   5.009   4.410 -2.2299  1.6313 -0.9798
 1805TIP3    H226907   3.163   5.086   4.540 -2.2365  1.1768 -0.7084
 1806TIP3   OH226908   5.619   4.702  13.236  0.1888  0.2053  0.2463
 1806TIP3    H126909   5.533   4.692  13.194  0.3946 -2.2290  0.2785
 1806TIP3    H226910   5.681   4.675  13.169  0.9368  1.4345  0.4110
 1807TIP3   OH226911   5.209   0.641  12.992 -0.6191  0.2687  0.4125
 1807TIP3    H126912   5.198   0.706  13.061 -3.0760  0.8989 -0.4570
 1807TIP3    H226913   5.266   0.575  13.030 -3.5335 -0.5360  3.9744
 1808TIP3   OH226914   3.537   3.149  13.791  0.7996  0.2089  0.0915
 1808TIP3    H126915   3.593   3.225  13.807  0.3681  0.2852  1.2885
 1808TIP3    H226916   3.448   3.185  13.785  0.4484 -0.3005  1.7878
 1809TIP3   OH226917   6.672   5.071   2.264 -0.1034  0.1826  0.6523
 1809TIP3    H126918   6.657   5.138   2.198 -0.9512 -1.0159 -0.4235
 1809TIP3    H226919   6.593   5.017   2.261  1.2560 -1.8913  0.2272
 1810TIP3   OH226920   3.558   5.834  12.885 -0.1171 -0.3333  0.4392
 1810TIP3    H126921   3.539   5.920  12.847  0.4358 -0.5573 -0.3643
 1810TIP3    H226922   3.482   5.815  12.939 -0.6626  0.2544 -0.0979
 1811TIP3   OH226923   2.398   6.775  11.976 -0.2330  0.5066 -0.3743
 1811TIP3    H126924   2.469   6.792  11.915 -1.3567 -1.9807 -2.5563
 1811TIP3    H226925   2.442   6.754  12.059  1.4599  1.1423 -1.0812
 1812TIP3   OH226926   3.700   0.752  11.857 -0.0998 -0.0336 -0.0803
 1812TIP3    H126927   3.688   0.771  11.764 -2.0753 -1.7415 -0.2361
 1812TIP3    H226928   3.626   0.795  11.900 -0.0766 -0.5849  0.5254
 1813TIP3   OH226929   6.179   2.435   4.009 -0.9574 -0.3143 -0.2468
 1813TIP3    H126930   6.117   2.366   4.033 -1.0971  0.1153  0.6957
 1813TIP3    H226931   6.199   2.479   4.092 -0.9016  0.7957 -0.8242
 1814TIP3   OH226932   3.232   1.946   0.590 -0.1300 -0.1541 -0.4899
 1814TIP3    H126933   3.190   1.951   0.676 -0.4237  0.4640 -0.6660
 1814TIP3    H226934   3.322   1.973   0.605  0.0214 -0.7891 -0.2395
 1815TIP3   OH226935   0.206   6.712   2.440 -0.1498 -0.2199 -0.0159
 1815TIP3    H126936   0.229   6.644   2.377 -0.3228  1.3897 -1.9231
 1815TIP3    H226937   0.184   6.788   2.386 -0.7841  1.1086  1.9970
 1816TIP3   OH226938   0.775   5.389  15.892 -0.2467 -0.0380  0.0626
 1816TIP3    H126939   0.830   5.464  15.875  0.2746  0.0226  1.8325
 1816TIP3    H226940   0.760   5.390  15.987 -1.7174 -1.1347 -0.1040
 1817TIP3   OH226941   4.723   5.387   3.195  0.0060  0.2627 -0.1342
 1817TIP3    H126942   4.681   5.452   3.251 -0.5679  0.1370 -0.4057
 1817TIP3    H226943   4.812   5.381   3.227 -0.6021 -0.6447  1.5138
 1818TIP3   OH226944   2.574   3.873   0.726  0.4824 -0.4752  0.5534
 1818TIP3    H126945   2.567   3.806   0.658  0.5304  0.2282 -0.1606
 1818TIP3    H226946   2.668   3.878   0.745  0.4389 -0.8778  0.8882
 1819TIP3   OH226947   4.086   0.256   5.921  0.2742  0.2081  0.2382
 1819TIP3    H126948   4.007   0.296   5.959  0.5142  1.2697 -0.3557
 1819TIP3    H226949   4.068   0.162   5.925 -1.2967  0.4378 -0.4340
 1820TIP3   OH226950   1.263   5.249   4.690 -0.2607 -0.2332  0.5691
 1820TIP3    H126951   1.329   5.318   4.686 -0.0826 -0.4274 -0.0376
 1820TIP3    H226952   1.297   5.181   4.632 -1.6144  0.2010 -0.8012
 1821TIP3   OH226953   5.973   5.614  13.520 -0.1968 -0.5263  0.1112
 1821TIP3    H126954   5.914   5.552  13.564 -0.9045 -0.0017 -0.0864
 1821TIP3    H226955   5.922   5.647  13.446  0.4289 -0.2293 -0.1923
 1822TIP3   OH226956   0.578   0.849   5.441  0.2325  0.0015 -0.4086
 1822TIP3    H126957   0.589   0.936   5.401 -0.4232 -0.1433 -0.9269
 1822TIP3    H226958   0.573   0.867   5.535 -0.2914  0.5756 -0.5348
 1823TIP3   OH226959   0.385   0.843   2.905  0.2452  0.1810 -0.7260
 1823TIP3    H126960   0.343   0.757   2.908  1.0650 -0.2236  1.4037
 1823TIP3    H226961   0.414   0.858   2.995 -0.3220  2.9388 -0.9134
 1824TIP3   OH226962   5.022   1.733  15.689 -0.2468 -0.3373  0.4024
 1824TIP3    H126963   4.967   1.661  15.658  0.5551 -0.6604 -0.2971
 1824TIP3    H226964   4.968   1.811  15.677  1.0637  0.1374 -5.2195
 1825TIP3   OH226965   0.652   4.830   2.683  0.0336  0.2277  0.1364
 1825TIP3    H126966   0.734   4.817   2.731  0.1580 -1.2267 -0.4332
 1825TIP3    H226967   0.671   4.800   2.594 -0.9300  0.5031 -0.1740
 1826TIP3   OH226968   6.125   5.206   0.880 -0.1540  0.2985  0.5718
 1826TIP3    H126969   6.199   5.240   0.931  0.2162  1.0902 -0.4535
 1826TIP3    H226970   6.130   5.111   0.890  0.6886  0.3764  0.9494
 1827TIP3   OH226971   4.091   6.018   2.496  0.1125  0.4412  0.0526
 1827TIP3    H126972   4.167   6.038   2.550  0.1324  1.3357 -0.2800
 1827TIP3    H226973   4.128   6.002   2.409 -0.0636  0.7289 -0.0759
 1828TIP3   OH226974   6.444   3.664  12.024 -0.2481  0.0684  0.9246
 1828TIP3    H126975   6.539   3.667  12.014 -0.0531 -1.8201  1.7705
 1828TIP3    H226976   6.415   3.593  11.966 -1.0986  0.3304  1.0038
 1829TIP3   OH226977   2.575   6.309  11.365 -0.5503  0.6850  0.2418
 1829TIP3    H126978   2.589   6.236  11.304 -1.6134  0.5148  0.1811
 1829TIP3    H226979   2.614   6.385  11.321  0.2258  0.2400  0.1366
 1830TIP3   OH226980   5.652   1.840   1.052 -0.3531  0.1886 -0.1790
 1830TIP3    H126981   5.647   1.925   1.095 -1.1008 -0.9002  2.0298
 1830TIP3    H226982   5.561   1.810   1.046 -0.2932  0.2520 -2.5818
 1831TIP3   OH226983   6.501   4.185  14.642 -0.5498 -0.3901 -0.2071
 1831TIP3    H126984   6.496   4.091  14.661 -0.0766  0.1985  3.4312
 1831TIP3    H226985   6.410   4.211  14.628 -0.8018 -1.1522 -0.0166
 1832TIP3   OH226986   1.737   6.050   2.364  0.2743  0.2769 -0.0914
 1832TIP3    H126987   1.671   5.990   2.327  1.0052 -0.3466 -0.4067
 1832TIP3    H226988   1.820   6.004   2.353  0.6466  0.5683  1.3190
 1833TIP3   OH226989   0.729   6.703   3.386  0.0552 -0.1873  0.1913
 1833TIP3    H126990   0.651   6.663   3.348  0.8324  0.2769 -2.0516
 1833TIP3    H226991   0.751   6.647   3.461 -2.0491 -0.6537  0.5186
 1834TIP3   OH226992   1.387   5.341   5.758 -0.5366 -0.7141  0.7520
 1834TIP3    H126993   1.412   5.433   5.751 -1.5708 -0.1845  3.0502
 1834TIP3    H226994   1.458   5.300   5.806 -0.0222 -1.1856 -0.3694
 1835TIP3   OH226995   0.476   5.504   3.588  0.4864 -0.2862  0.0905
 1835TIP3    H126996   0.501   5.511   3.496 -0.1387 -1.1879 -0.1593
 1835TIP3    H226997   0.446   5.414   3.598  1.3525 -0.4606  1.3925
 1836TIP3   OH226998   5.619   1.845   3.004 -0.5679  0.0956 -0.0182
 1836TIP3    H126999   5.688   1.910   3.019 -0.1521 -0.1083 -0.9373
 1836TIP3    H227000   5.666   1.769   2.969 -1.3513  0.2537 -1.4804
 1837TIP3   OH227001   1.905   3.373  10.498  0.5988 -0.5670  0.8255
 1837TIP3    H127002   1.925   3.286  10.463 -2.2241 -0.3582 -1.7787
 1837TIP3    H227003   1.809   3.376  10.499  0.6057  2.5299  0.7675
 1838TIP3   OH227004   2.308   0.323  16.414  0.4065 -0.8209  0.2653
 1838TIP3    H127005   2.265   0.253  16.463  1.9901 -1.6635  0.5514
 1838TIP3    H227006   2.387   0.343  16.465  0.7352  0.1535 -0.5735
 1839TIP3   OH227007   6.682   1.276  13.255 -0.4020  0.0799  0.5575
 1839TIP3    H127008   6.720   1.215  13.319  2.0285  0.7235 -0.1603
 1839TIP3    H227009   6.758   1.315  13.211 -1.9418  1.6401 -0.8742
 1840TIP3   OH227010   4.836   1.632  14.321  0.7878  0.1493 -0.3740
 1840TIP3    H127011   4.791   1.550  14.303  0.5691 -0.1267  1.2244
 1840TIP3    H227012   4.928   1.607  14.329  0.8491  0.2254 -0.8341
 1841TIP3   OH227013   0.979   0.898   4.882 -0.5137 -0.9915  0.3393
 1841TIP3    H127014   0.991   0.807   4.857 -0.3795 -0.4904 -1.5861
 1841TIP3    H227015   0.888   0.917   4.858 -1.1376 -1.0869  2.4356
 1842TIP3   OH227016   2.305   6.515  15.220  0.3644 -0.0159  0.1746
 1842TIP3    H127017   2.315   6.460  15.142  0.2172  0.3562 -0.1087
 1842TIP3    H227018   2.366   6.587  15.208 -0.0993  0.3707  0.1119
 1843TIP3   OH227019   4.956   4.151  13.912  0.0964 -0.0971  0.7241
 1843TIP3    H127020   4.897   4.080  13.936  1.1137 -0.6756  1.5836
 1843TIP3    H227021   4.972   4.140  13.818 -0.4257 -0.4717  0.6775
 1844TIP3   OH227022   1.273   5.144  17.051 -0.3527  0.2080 -0.3683
 1844TIP3    H127023   1.253   5.238  17.052 -1.5022  0.0095 -1.7645
 1844TIP3    H227024   1.199   5.104  17.005 -0.7782 -1.6182  1.6927
 1845TIP3   OH227025   3.968   5.321  16.650 -0.0778 -0.3012 -0.2887
 1845TIP3    H127026   3.966   5.226  16.639  0.7289 -0.4052  0.3693
 1845TIP3    H227027   3.997   5.354  16.565  0.3608 -0.6963 -0.2984
 1846TIP3   OH227028   5.141   0.140   0.691  0.0269 -0.1087 -0.1035
 1846TIP3    H127029   5.065   0.188   0.659  0.4862 -0.3100 -1.5528
 1846TIP3    H227030   5.143   0.158   0.785 -1.7569 -0.0523 -0.0480
 1847TIP3   OH227031   1.864   3.028   2.930  0.2813  0.0850  0.3275
 1847TIP3    H127032   1.884   2.990   3.015 -0.5652  0.7964  0.8542
 1847TIP3    H227033   1.771   3.011   2.917  0.6589 -1.1476 -1.0499
 1848TIP3   OH227034   1.518   3.354  14.903 -0.1926 -0.9244  0.3801
 1848TIP3    H127035   1.493   3.440  14.869  0.1695 -1.0433 -0.2030
 1848TIP3    H227036   1.594   3.329  14.851  1.4102 -0.4086  2.3118
 1849TIP3   OH227037   1.605   2.241   1.349  0.2057 -0.1285 -0.4363
 1849TIP3    H127038   1.523   2.215   1.306 -0.1419  0.6645 -0.2683
 1849TIP3    H227039   1.668   2.175   1.320 -0.6499 -1.1817  0.0063
 1850TIP3   OH227040   1.301   5.195   1.027  0.4427  0.0224  0.1389
 1850TIP3    H127041   1.392   5.209   1.002  0.0753  1.8949 -0.3073
 1850TIP3    H227042   1.286   5.258   1.098 -0.7428  0.4062 -0.4273
 1851TIP3   OH227043   0.054   4.515   0.340 -0.5794  0.0696  0.1788
 1851TIP3    H127044   0.051   4.494   0.434 -1.1922  0.1902  0.1928
 1851TIP3    H227045  -0.036   4.544   0.320 -1.1101 -2.2340 -0.9951
 1852TIP3   OH227046   0.892   0.338   4.824 -0.4703  0.1297  0.9842
 1852TIP3    H127047   0.840   0.390   4.763  0.3045 -0.8764 -0.6039
 1852TIP3    H227048   0.871   0.247   4.802  2.7423 -0.3705 -0.5781
 1853TIP3   OH227049   3.112   5.643   1.907 -0.0234  0.5858 -0.3291
 1853TIP3    H127050   3.184   5.700   1.879  0.3799  0.2011 -0.0944
 1853TIP3    H227051   3.033   5.694   1.891  0.3916  1.7439  1.1649
 1854TIP3   OH227052   5.614   1.059  16.930  0.4785  0.2033 -0.1751
 1854TIP3    H127053   5.705   1.034  16.946  0.4684 -1.0093 -1.7043
 1854TIP3    H227054   5.619   1.145  16.889  0.7100  1.4869  2.3294
 1855TIP3   OH227055   4.422   0.738   5.947 -0.2887 -0.2151 -0.2720
 1855TIP3    H127056   4.480   0.695   6.009 -0.0604 -1.0940 -1.0610
 1855TIP3    H227057   4.404   0.824   5.985  2.2391  0.4544 -0.3822
 1856TIP3   OH227058   5.796   2.029  14.523 -0.2025  0.3096 -0.6743
 1856TIP3    H127059   5.827   2.097  14.583 -2.1251  0.2202  0.5087
 1856TIP3    H227060   5.803   2.070  14.436  1.7243  0.7886 -0.3569
 1857TIP3   OH227061   2.185   2.064   5.135 -0.1377  0.5315  0.7627
 1857TIP3    H127062   2.093   2.077   5.113 -0.8936  1.8720  4.0600
 1857TIP3    H227063   2.208   1.980   5.095 -2.0552  1.2215 -2.0502
 1858TIP3   OH227064   5.438   3.531   1.264 -0.1451  0.7939 -0.5657
 1858TIP3    H127065   5.434   3.580   1.182 -0.2393  2.4670  0.3906
 1858TIP3    H227066   5.446   3.598   1.332  0.5963 -0.5664  0.7622
 1859TIP3   OH227067   2.281   5.419  12.378 -0.0766 -0.3879  0.1718
 1859TIP3    H127068   2.375   5.435  12.366  0.0483 -0.9049  0.4353
 1859TIP3    H227069   2.243   5.507  12.383  0.4949 -0.1592  0.8413
 1860TIP3   OH227070   3.165   6.461   1.463 -0.5108 -0.0959 -0.0450
 1860TIP3    H127071   3.092   6.511   1.499 -0.6157  1.1413 -1.8030
 1860TIP3    H227072   3.243   6.512   1.486  0.0159 -1.9038  2.6682
 1861TIP3   OH227073   0.577   4.300   0.745 -0.2571  0.2973  0.6315
 1861TIP3    H127074   0.633   4.366   0.785  0.4377  0.2305 -0.1953
 1861TIP3    H227075   0.533   4.346   0.674 -2.9203  0.9113  2.5175
 1862TIP3   OH227076   3.633   4.038   4.624 -0.0323  0.3494 -0.1561
 1862TIP3    H127077   3.609   4.023   4.715  0.6022  0.5149  0.0485
 1862TIP3    H227078   3.631   4.133   4.614  2.2583  0.5166  0.3922
 1863TIP3   OH227079   5.602   5.695  17.181 -0.3316 -0.7350  0.5995
 1863TIP3    H127080   5.658   5.740  17.118 -1.7764  0.8346  0.3984
 1863TIP3    H227081   5.627   5.732  17.266 -2.6657  1.8416  0.2838
 1864TIP3   OH227082   2.693   0.709   1.206 -0.2114  0.0152 -0.4365
 1864TIP3    H127083   2.616   0.661   1.175  1.0108 -1.4389 -1.3624
 1864TIP3    H227084   2.721   0.659   1.283 -0.5454  0.9166  0.2827
 1865TIP3   OH227085   1.429   2.566   3.326 -0.5279 -0.3209  0.0615
 1865TIP3    H127086   1.395   2.547   3.413 -1.1242 -1.6621 -0.4317
 1865TIP3    H227087   1.451   2.481   3.289  0.3053  0.2714 -0.8731
 1866TIP3   OH227088   5.817   3.677   1.572 -0.6837 -0.3801  0.3400
 1866TIP3    H127089   5.850   3.588   1.557 -2.6584 -0.8643 -1.7215
 1866TIP3    H227090   5.768   3.671   1.654  0.3484 -0.7905  0.9542
 1867TIP3   OH227091   6.418   0.025   4.268  0.4830 -0.6149  0.3552
 1867TIP3    H127092   6.328   0.030   4.301  0.9581 -1.5592  1.8872
 1867TIP3    H227093   6.458  -0.047   4.317  1.5458 -1.4747 -1.6421
 1868TIP3   OH227094   3.372   3.607   3.369  0.4967 -0.2993 -0.1537
 1868TIP3    H127095   3.434   3.535   3.380  1.6244  0.5987 -0.5325
 1868TIP3    H227096   3.413   3.681   3.413 -0.3229  0.3081 -0.3936
 1869TIP3   OH227097   4.243   1.295   5.311  0.2514 -0.3725  0.3419
 1869TIP3    H127098   4.301   1.349   5.256  1.7507 -0.8355  1.4283
 1869TIP3    H227099   4.227   1.216   5.259  1.2551 -0.5891  0.3459
 1870TIP3   OH227100   4.984   4.562   0.332 -0.4113  0.2154 -0.1372
 1870TIP3    H127101   4.990   4.541   0.425 -1.7035  0.9763  0.1388
 1870TIP3    H227102   5.058   4.620   0.316 -0.1621  0.0562  0.4000
 1871TIP3   OH227103   6.239   1.999   2.125  0.7024 -0.4243  0.3075
 1871TIP3    H127104   6.298   2.041   2.188  0.6892  0.5619 -0.3137
 1871TIP3    H227105   6.254   1.905   2.138 -1.8001 -0.5125  4.1978
 1872TIP3   OH227106   1.558   4.984  16.912 -0.1486  0.2210  0.0271
 1872TIP3    H127107   1.592   4.988  17.002  0.8010  0.3225 -0.3219
 1872TIP3    H227108   1.501   5.061  16.905  0.3922  0.6567  0.3038
 1873TIP3   OH227109   4.395   1.806   3.801 -0.2881  0.3940 -0.0581
 1873TIP3    H127110   4.439   1.775   3.721  0.6646  1.5948 -0.0314
 1873TIP3    H227111   4.465   1.810   3.866 -0.5536  1.7344  0.1620
 1874TIP3   OH227112   3.207   1.995  13.208  0.0525  0.2366 -0.3582
 1874TIP3    H127113   3.221   2.004  13.113  1.5687  0.5530 -0.1424
 1874TIP3    H227114   3.244   1.910  13.230 -0.1601  0.2272 -0.0294
 1875TIP3   OH227115   1.340   6.593  14.160 -0.0916  0.2875  0.5333
 1875TIP3    H127116   1.333   6.547  14.077  0.2599  0.4315  0.4223
 1875TIP3    H227117   1.265   6.653  14.160 -0.2181  0.1302  0.4208
 1876TIP3   OH227118   0.013   6.336  13.996 -0.2340 -0.0217  0.1427
 1876TIP3    H127119   0.102   6.314  13.968 -0.5902 -0.6234 -0.5264
 1876TIP3    H227120  -0.038   6.337  13.915 -0.7901  0.5688  0.4949
 1877TIP3   OH227121   3.466   1.457   3.857  0.0168  0.1699 -0.4993
 1877TIP3    H127122   3.510   1.484   3.938 -2.2630  0.2553  0.7768
 1877TIP3    H227123   3.408   1.530   3.836 -1.0552 -0.7825 -0.9389
 1878TIP3   OH227124   1.489   0.669   5.166  0.1966 -0.3406  0.5334
 1878TIP3    H127125   1.575   0.704   5.189 -0.2047 -0.0117  1.5755
 1878TIP3    H227126   1.493   0.656   5.071  1.2967 -0.0671  0.5332
 1879TIP3   OH227127   6.747   5.328   6.307  0.1809  0.8517 -0.0519
 1879TIP3    H127128   6.659   5.363   6.317 -1.5430 -3.4487  3.7016
 1879TIP3    H227129   6.734   5.238   6.275  3.3795  0.5504 -0.8479
 1880TIP3   OH227130   6.038   6.110  12.134  0.4661 -0.4750 -0.0204
 1880TIP3    H127131   6.009   6.032  12.183  1.6571 -1.6600 -1.1057
 1880TIP3    H227132   6.076   6.166  12.201 -2.0728  0.0846  1.0728
 1881TIP3   OH227133   0.286   0.269  14.469 -0.3156 -0.1053  0.5871
 1881TIP3    H127134   0.322   0.263  14.380 -1.1825 -2.5917  0.3050
 1881TIP3    H227135   0.363   0.267  14.526  0.1935  0.1439 -0.0806
 1882TIP3   OH227136   0.674   1.997  14.432  0.2518 -0.0039 -0.2601
 1882TIP3    H127137   0.644   1.957  14.513  0.2158  0.6006  0.0287
 1882TIP3    H227138   0.677   1.924  14.369 -2.5989  0.0294 -0.5490
 1883TIP3   OH227139   4.028   6.371  13.672  0.1085  0.0885  0.5470
 1883TIP3    H127140   3.950   6.324  13.702 -0.3391 -0.0616 -0.7745
 1883TIP3    H227141   4.094   6.302  13.660 -0.1627 -0.0545 -0.1844
 1884TIP3   OH227142   4.363   3.779  14.488 -0.2924 -0.4510  0.3605
 1884TIP3    H127143   4.292   3.716  14.479 -0.6067  0.0322 -0.7668
 1884TIP3    H227144   4.433   3.731  14.533 -1.6512 -0.6585  2.3540
 1885TIP3   OH227145   2.230   5.935  14.452 -0.3476  0.2399  0.6218
 1885TIP3    H127146   2.182   5.926  14.369 -0.3446  3.6799  0.1149
 1885TIP3    H227147   2.314   5.975  14.427  0.1075  0.3144  2.1786
 1886TIP3   OH227148   0.765   0.375  12.606  0.3683 -0.1152 -0.5101
 1886TIP3    H127149   0.682   0.356  12.650  1.6435 -0.6976  1.8188
 1886TIP3    H227150   0.782   0.467  12.627  0.6129 -0.1798 -0.4209
 1887TIP3   OH227151   1.592   2.514   3.783  0.2786  0.4266 -0.0675
 1887TIP3    H127152   1.592   2.568   3.862 -0.1998 -0.1320  0.3176
 1887TIP3    H227153   1.501   2.513   3.753  0.1340 -0.7637  0.3553
 1888TIP3   OH227154   1.774   2.935   5.483  0.2067 -0.6562  0.0850
 1888TIP3    H127155   1.826   3.000   5.531 -0.1142  1.2674 -1.9987
 1888TIP3    H227156   1.829   2.910   5.409 -0.8858 -0.3512 -0.8592
 1889TIP3   OH227157   3.367   2.987   5.032  0.2018  0.0073 -0.4517
 1889TIP3    H127158   3.451   2.946   5.012  0.3548 -0.4709  1.0674
 1889TIP3    H227159   3.386   3.048   5.103 -0.8055 -0.3773  0.1585
 1890TIP3   OH227160   0.542   6.159   5.209 -0.0319  0.5695 -0.7745
 1890TIP3    H127161   0.627   6.202   5.221  0.9502 -1.5161  0.4222
 1890TIP3    H227162   0.484   6.204   5.271  1.0531  0.0133  0.7191
 1891TIP3   OH227163   5.648   2.648  10.787 -0.5864  0.3780 -0.1460
 1891TIP3    H127164   5.688   2.630  10.702 -0.2767  0.2543  0.0247
 1891TIP3    H227165   5.715   2.696  10.836 -1.3591  1.9564 -0.5610
 1892TIP3   OH227166   0.924   4.632   2.863 -0.1290 -0.4155  0.0875
 1892TIP3    H127167   0.951   4.593   2.780 -0.7828  1.3243 -0.9747
 1892TIP3    H227168   1.006   4.647   2.910  0.3611 -0.1220 -0.8424
 1893TIP3   OH227169   1.067   3.681   0.161  0.1673 -0.2772  0.0421
 1893TIP3    H127170   0.994   3.710   0.106  0.6343 -0.0246 -0.4481
 1893TIP3    H227171   1.055   3.586   0.167  1.3388 -0.6505 -2.3364
 1894TIP3   OH227172   3.991   1.947  16.552  0.8108 -0.1543  0.1774
 1894TIP3    H127173   3.963   1.938  16.461  1.0674 -0.7686  0.1538
 1894TIP3    H227174   4.067   1.889  16.560  0.2989 -0.7372  0.9917
 1895TIP3   OH227175   6.622   3.787  12.994  0.1431  0.9510  0.1173
 1895TIP3    H127176   6.699   3.838  13.021 -0.6304  2.1175  0.1720
 1895TIP3    H227177   6.582   3.760  13.077  1.1904 -0.8188  0.1123
 1896TIP3   OH227178   0.686   0.395   1.786  0.1886 -0.4235 -0.5572
 1896TIP3    H127179   0.646   0.417   1.702 -0.8283  2.1260  0.4983
 1896TIP3    H227180   0.757   0.459   1.797 -0.7461  0.3816  1.2106
 1897TIP3   OH227181   4.913   5.950   5.134  0.5121  0.0565  0.2707
 1897TIP3    H127182   4.866   6.026   5.165  0.3934  0.7347 -1.4287
 1897TIP3    H227183   4.896   5.882   5.199 -3.5547 -0.0322 -0.6033
 1898TIP3   OH227184   1.245   5.084   3.781 -0.0383  0.0582  0.2357
 1898TIP3    H127185   1.151   5.071   3.794 -0.2100  0.4533 -0.5767
 1898TIP3    H227186   1.262   5.052   3.693  0.5003  0.4300  0.2010
 1899TIP3   OH227187   5.281   3.909   1.014  0.0835 -0.0789  0.2074
 1899TIP3    H127188   5.355   3.848   1.013 -0.0650 -0.3057  1.4981
 1899TIP3    H227189   5.318   3.990   1.049 -0.1696 -0.0347  0.3718
 1900TIP3   OH227190   0.525   3.258  15.012  0.0683  0.0369 -0.4102
 1900TIP3    H127191   0.614   3.252  15.046 -0.4361 -0.3170  0.8807
 1900TIP3    H227192   0.528   3.330  14.948  1.1564  0.3401 -0.0269
 1901TIP3   OH227193   2.547   5.446  12.578 -0.4969 -0.3929 -0.1255
 1901TIP3    H127194   2.560   5.486  12.492 -1.1231 -1.4237 -0.7234
 1901TIP3    H227195   2.630   5.459  12.624  0.1161 -0.5191 -1.1811
 1902TIP3   OH227196   0.966   0.732  10.860  0.1161 -0.3364  0.1340
 1902TIP3    H127197   0.947   0.789  10.786  1.0036 -0.1751  0.0197
 1902TIP3    H227198   0.884   0.728  10.909 -0.0750  0.7032 -0.0770
 1903TIP3   OH227199   5.942   4.397   6.621 -0.6311  0.2093 -0.4906
 1903TIP3    H127200   5.961   4.305   6.639 -2.4111 -0.2324 -0.7328
 1903TIP3    H227201   6.009   4.423   6.558  0.6576 -0.5427  0.5153
 1904TIP3   OH227202   1.551   6.176   3.873  0.0938  0.3606  0.7898
 1904TIP3    H127203   1.541   6.266   3.843  1.1007  0.3665  0.4373
 1904TIP3    H227204   1.609   6.182   3.949  1.8576 -0.1643 -0.4609
 1905TIP3   OH227205   2.110   1.008  16.758  0.3714 -0.4468  0.0206
 1905TIP3    H127206   2.203   0.997  16.737  1.1740  2.6650  1.4241
 1905TIP3    H227207   2.064   0.961  16.688  2.9626  0.5193 -2.5274
 1906TIP3   OH227208   0.904   6.718   4.285 -0.4438  0.2970 -0.2499
 1906TIP3    H127209   0.952   6.759   4.214  1.0567 -0.3335  0.3565
 1906TIP3    H227210   0.949   6.635   4.300 -2.0261 -0.5442  0.0490
 1907TIP3   OH227211   6.594   5.405   2.948  0.0492 -0.4934  0.7508
 1907TIP3    H127212   6.533   5.429   3.018 -0.7775  1.4549 -0.5418
 1907TIP3    H227213   6.566   5.317   2.922 -0.0819 -0.9539  2.3575
 1908TIP3   OH227214   0.953   2.228   4.087  0.1319 -0.6876 -0.3581
 1908TIP3    H127215   0.898   2.158   4.051  0.1183 -2.3971  2.6455
 1908TIP3    H227216   1.026   2.236   4.025 -0.1265 -3.0688 -1.0662
 1909TIP3   OH227217   2.446   3.555   1.410 -0.5252  0.1753  0.0698
 1909TIP3    H127218   2.502   3.506   1.470 -2.3421 -1.2860  0.6668
 1909TIP3    H227219   2.444   3.502   1.331 -1.1153  0.1660  0.0863
 1910TIP3   OH227220   2.797   5.681  12.932  0.3617 -0.4316  0.1082
 1910TIP3    H127221   2.793   5.765  12.979 -0.0950  0.2457 -1.0913
 1910TIP3    H227222   2.717   5.635  12.959  1.7053 -1.5545  2.5885
 1911TIP3   OH227223   3.163   6.271   2.567 -0.5891 -0.1511 -0.0548
 1911TIP3    H127224   3.185   6.363   2.577  0.3986 -0.3716 -0.0509
 1911TIP3    H227225   3.069   6.270   2.551 -0.8369  0.7587  1.2421
 1912TIP3   OH227226   5.868   5.585   1.768 -0.2787  0.1244  0.3075
 1912TIP3    H127227   5.825   5.504   1.742 -0.5674  0.5870 -0.7190
 1912TIP3    H227228   5.949   5.588   1.716 -0.3641  0.5795  0.1911
 1913TIP3   OH227229   3.502   3.436   3.658  0.2327 -0.2105 -0.5338
 1913TIP3    H127230   3.506   3.519   3.705  0.4931  1.0399 -2.6327
 1913TIP3    H227231   3.523   3.370   3.724  2.2060  1.5720  0.7444
 1914TIP3   OH227232   5.236   6.746   5.773  0.0537 -0.1454 -0.0740
 1914TIP3    H127233   5.159   6.802   5.767  0.2944  0.2752  0.6271
 1914TIP3    H227234   5.296   6.781   5.707 -0.2985 -0.3964 -0.5356
 1915TIP3   OH227235   2.392   2.057   1.330  0.4667  0.3356  0.3004
 1915TIP3    H127236   2.447   1.982   1.310 -1.5893 -1.4365  0.9997
 1915TIP3    H227237   2.356   2.084   1.246 -0.6926 -1.0522  0.3177
 1916TIP3   OH227238   2.669   6.370  16.508 -0.3174  0.0833 -0.0503
 1916TIP3    H127239   2.610   6.443  16.492 -0.6910 -0.1617  0.1992
 1916TIP3    H227240   2.740   6.408  16.561 -0.8604  0.1212  0.6629
 1917TIP3   OH227241   4.815   5.072  16.440  0.4697  0.9309  0.2170
 1917TIP3    H127242   4.839   4.995  16.387 -0.0106 -0.1132  1.4522
 1917TIP3    H227243   4.896   5.095  16.486  0.0067 -0.5702  1.9085
 1918TIP3   OH227244   6.528   4.905   3.776 -0.2434 -0.1409 -0.1925
 1918TIP3    H127245   6.457   4.853   3.813  1.6869 -1.4686  1.8352
 1918TIP3    H227246   6.505   4.995   3.797 -1.2399 -0.5592  0.5837
 1919TIP3   OH227247   0.754   1.008  14.157 -0.5355  0.4650 -0.4443
 1919TIP3    H127248   0.689   1.003  14.226  0.9623  0.8661  1.0639
 1919TIP3    H227249   0.764   1.102  14.140 -1.1779  0.3576 -1.5155
 1920TIP3   OH227250   6.171   0.793  12.378 -0.3730  0.2614 -0.3953
 1920TIP3    H127251   6.094   0.845  12.404 -0.4384  0.6276 -1.2808
 1920TIP3    H227252   6.245   0.847  12.405 -0.4089 -0.1960  0.6694
 1921TIP3   OH227253   5.366   1.529   0.948 -0.3975  0.1810 -0.1164
 1921TIP3    H127254   5.363   1.616   0.908  2.7172 -0.4659 -2.1193
 1921TIP3    H227255   5.347   1.469   0.875  1.3209 -0.8876  0.2551
 1922TIP3   OH227256   3.631   3.379  14.695 -0.3300 -0.0367 -0.2942
 1922TIP3    H127257   3.685   3.306  14.664 -0.9777 -0.9420  0.6331
 1922TIP3    H227258   3.653   3.386  14.788 -0.9374  0.3487 -0.1779
 1923TIP3   OH227259   2.966   6.700   5.739 -0.5921 -0.0234 -0.2482
 1923TIP3    H127260   2.978   6.619   5.790 -0.6130  0.6940  0.9381
 1923TIP3    H227261   2.894   6.680   5.680 -1.6562 -0.3839  1.1170
 1924TIP3   OH227262   3.978   1.897  13.753  0.1332 -0.3510  0.1312
 1924TIP3    H127263   4.065   1.869  13.783  0.8787 -1.0308 -2.4251
 1924TIP3    H227264   3.917   1.839  13.800  1.0337 -0.0504  1.7509
 1925TIP3   OH227265   1.505   0.972  17.190 -0.2004  0.0645 -0.3774
 1925TIP3    H127266   1.493   0.914  17.265 -2.2672  0.1915 -0.5553
 1925TIP3    H227267   1.555   0.919  17.127  0.7021 -0.3779  0.6864
 1926TIP3   OH227268   6.143   1.524   2.746  0.5151  0.3974 -0.7455
 1926TIP3    H127269   6.207   1.454   2.757 -0.7380 -1.0108 -1.9479
 1926TIP3    H227270   6.120   1.549   2.836 -0.6759 -2.3873 -0.1403
 1927TIP3   OH227271   1.586   4.387  11.269 -0.1009  0.7169  0.4472
 1927TIP3    H127272   1.660   4.374  11.210  0.2038 -0.3996  1.0436
 1927TIP3    H227273   1.511   4.400  11.211  0.5589  1.9965 -0.1632
 1928TIP3   OH227274   5.988   1.915  14.197 -0.0889  0.4476 -0.1112
 1928TIP3    H127275   6.039   1.885  14.122  0.8942  1.1888  0.2322
 1928TIP3    H227276   5.949   1.835  14.233  1.3204 -0.2477 -0.0428
 1929TIP3   OH227277   2.689   2.125   4.560 -0.3584 -0.2540  0.3662
 1929TIP3    H127278   2.621   2.105   4.625 -0.5111  0.4168  0.4207
 1929TIP3    H227279   2.762   2.067   4.583 -0.8900 -0.9558  0.3295
 1930TIP3   OH227280   2.856   1.577   4.121  0.7883 -0.2329  0.0837
 1930TIP3    H127281   2.795   1.624   4.063  0.0858 -0.8816  0.2778
 1930TIP3    H227282   2.818   1.490   4.131  2.8064 -1.3611 -1.4181
 1931TIP3   OH227283   2.507   0.023   0.699  0.3339  0.2316 -0.3666
 1931TIP3    H127284   2.525  -0.049   0.640  0.3919  0.6614 -0.8771
 1931TIP3    H227285   2.541  -0.006   0.784 -0.5596 -0.7457 -0.3314
 1932TIP3   OH227286   1.189   4.523   3.511 -0.3169  0.0720  0.2985
 1932TIP3    H127287   1.158   4.490   3.427 -0.2676  2.0695 -0.5596
 1932TIP3    H227288   1.282   4.541   3.498 -0.1853 -0.1074  0.9435
 1933TIP3   OH227289   0.306   3.671   5.778  0.1769  0.2093  0.0241
 1933TIP3    H127290   0.352   3.588   5.769  0.1097  0.1633  0.1032
 1933TIP3    H227291   0.217   3.653   5.747 -0.8672 -0.6688  3.1721
 1934TIP3   OH227292   2.089   3.390  12.274  0.0636  0.3203 -0.2780
 1934TIP3    H127293   2.087   3.303  12.234 -3.2216  0.4377 -0.5950
 1934TIP3    H227294   2.082   3.374  12.368  0.4395  0.2421 -0.2606
 1935TIP3   OH227295   6.735   2.611  11.319  0.0455  0.9064  0.0202
 1935TIP3    H127296   6.765   2.682  11.263 -1.2178  0.6753 -0.9827
 1935TIP3    H227297   6.811   2.554  11.328 -0.1652 -0.0020 -2.9839
 1936TIP3   OH227298   6.672   5.880  11.369 -0.2416 -0.2791 -0.0800
 1936TIP3    H127299   6.583   5.845  11.359 -0.3278 -0.0759 -0.0259
 1936TIP3    H227300   6.722   5.838  11.299 -0.2755 -0.7372  0.1639
 1937TIP3   OH227301   1.766   0.416   0.653  0.5785  0.2848  0.4182
 1937TIP3    H127302   1.856   0.424   0.620 -0.2755 -0.3951 -2.2676
 1937TIP3    H227303   1.776   0.373   0.739  2.7392 -1.5964 -0.6551
 1938TIP3   OH227304   4.615   3.235   2.076  0.1639 -0.1300 -0.0508
 1938TIP3    H127305   4.600   3.291   2.000  1.9544 -1.0994 -1.1931
 1938TIP3    H227306   4.553   3.163   2.065 -1.1961  0.8964  0.6948
 1939TIP3   OH227307   3.235   6.508   7.000  0.1455 -0.3925  0.3410
 1939TIP3    H127308   3.241   6.428   7.053  1.4408 -0.0733  0.7159
 1939TIP3    H227309   3.181   6.483   6.926 -1.3147 -0.9886  1.5591
 1940TIP3   OH227310   5.761   5.749  12.395 -0.1430 -1.2578 -0.3928
 1940TIP3    H127311   5.739   5.835  12.431 -0.4486 -1.6014  0.2706
 1940TIP3    H227312   5.721   5.748  12.309  0.6222 -0.4017 -0.7759
 1941TIP3   OH227313   5.426   3.739  13.477  0.4151  0.2845  0.2120
 1941TIP3    H127314   5.428   3.834  13.463  0.3094  0.1890 -0.5155
 1941TIP3    H227315   5.370   3.706  13.407 -0.4078 -0.2169  1.0822
 1942TIP3   OH227316   2.370   5.164   5.494 -0.1283 -0.0681  0.0193
 1942TIP3    H127317   2.326   5.108   5.430 -0.8811 -0.3005  0.7292
 1942TIP3    H227318   2.441   5.109   5.528 -1.2650 -0.8792  1.1957
 1943TIP3   OH227319   4.936   0.694  12.094 -0.5606  0.3087 -0.5883
 1943TIP3    H127320   4.864   0.643  12.130  0.1021 -0.6695 -0.6185
 1943TIP3    H227321   4.970   0.641  12.022  1.2357 -0.0537  0.4537
 1944TIP3   OH227322   2.619   6.613   1.145 -0.2197  0.8687 -0.0692
 1944TIP3    H127323   2.628   6.700   1.106 -0.8292  1.9982  2.1215
 1944TIP3    H227324   2.634   6.627   1.238  1.6451 -1.7549  0.1322
 1945TIP3   OH227325   1.256   1.118  16.294  0.5310 -0.0229 -0.6803
 1945TIP3    H127326   1.311   1.100  16.217 -0.6378 -1.3789 -1.2479
 1945TIP3    H227327   1.188   1.051  16.291  0.1727  0.1914  1.2975
 1946TIP3   OH227328   2.264   2.513   3.956  0.5141  0.1829 -0.4151
 1946TIP3    H127329   2.264   2.453   3.882 -0.0128 -2.1580  1.3619
 1946TIP3    H227330   2.353   2.508   3.991  1.0054  1.9258 -1.3112
 1947TIP3   OH227331   3.788   0.233   2.761  0.1181  0.6648  0.0272
 1947TIP3    H127332   3.774   0.296   2.690  0.9951  0.8466  0.0015
 1947TIP3    H227333   3.789   0.286   2.840  0.1167  0.5876  0.0788
 1948TIP3   OH227334   6.740   1.992   1.862 -0.0292  0.1516  0.4697
 1948TIP3    H127335   6.800   2.010   1.790  0.8292  0.0101  1.1345
 1948TIP3    H227336   6.793   2.004   1.941 -0.4071 -1.6881  1.0405
 1949TIP3   OH227337   2.286   3.822  12.985 -0.8395 -0.4919  0.1160
 1949TIP3    H127338   2.237   3.822  12.903 -1.0112 -0.5760  0.2174
 1949TIP3    H227339   2.375   3.799  12.960 -0.9575 -0.8172 -0.0075
 1950TIP3   OH227340   6.234   4.120   3.405 -0.8164  0.3606 -0.4401
 1950TIP3    H127341   6.264   4.199   3.359  1.7626 -0.2367  0.0502
 1950TIP3    H227342   6.251   4.049   3.343 -0.7943 -0.0589  0.0473
 1951TIP3   OH227343   3.817   2.074   2.598 -0.5832 -0.0367 -0.1316
 1951TIP3    H127344   3.736   2.082   2.547  0.8862  1.6210 -2.4222
 1951TIP3    H227345   3.868   2.008   2.551  1.0404  1.9363 -1.3385
 1952TIP3   OH227346   4.843   2.771  11.216 -0.3807  0.4143 -0.2844
 1952TIP3    H127347   4.794   2.849  11.191  0.2499  0.6216 -0.9220
 1952TIP3    H227348   4.793   2.698  11.180  0.6553  0.7196 -2.5158
 1953TIP3   OH227349   4.150   3.647   4.833 -0.7529 -0.0665 -0.8942
 1953TIP3    H127350   4.107   3.722   4.793 -0.3511  0.2764 -0.6842
 1953TIP3    H227351   4.116   3.643   4.922  1.3042  1.6007  0.0637
 1954TIP3   OH227352   3.216   0.964  15.298  0.4317 -0.1265 -0.9226
 1954TIP3    H127353   3.126   0.996  15.297  0.0023 -1.2441  0.0173
 1954TIP3    H227354   3.211   0.877  15.339  1.8676 -0.4175 -1.2926
 1955TIP3   OH227355   0.866   6.480   1.436 -1.1102  0.1223  0.3022
 1955TIP3    H127356   0.919   6.431   1.499  0.3886  1.3888  0.0964
 1955TIP3    H227357   0.819   6.544   1.489  0.0494  1.0997  0.2103
 1956TIP3   OH227358   3.552   1.893   5.197  0.1372 -0.1635 -0.5507
 1956TIP3    H127359   3.480   1.957   5.203 -0.1404 -0.3679 -1.5161
 1956TIP3    H227360   3.529   1.839   5.121  1.8819  0.4850 -1.5920
 1957TIP3   OH227361   4.257   4.391  10.863 -0.4082  0.3045 -0.1325
 1957TIP3    H127362   4.255   4.467  10.806 -1.1428  0.8655  0.6131
 1957TIP3    H227363   4.166   4.379  10.891 -0.2989 -0.8146 -0.1950
 1958TIP3   OH227364   1.864   2.030   5.607 -0.2905  0.0962 -0.9107
 1958TIP3    H127365   1.930   2.088   5.568  1.0188 -0.6518  0.0965
 1958TIP3    H227366   1.870   2.046   5.701  0.2754 -1.7623 -0.5685
 1959TIP3   OH227367   6.172   4.352  14.000  0.1471  0.1139 -0.5177
 1959TIP3    H127368   6.156   4.313  13.914  0.8737 -0.9375 -0.1909
 1959TIP3    H227369   6.144   4.443  13.990  2.1291  0.6085 -2.4900
 1960TIP3   OH227370   4.403   4.387  13.633 -0.6739  0.4721  0.1117
 1960TIP3    H127371   4.417   4.452  13.702 -0.1453  2.6943 -1.9285
 1960TIP3    H227372   4.310   4.392  13.614 -0.4536  1.5405 -0.8040
 1961TIP3   OH227373   0.990   3.679   5.588  0.1454 -0.2053  0.7687
 1961TIP3    H127374   0.918   3.666   5.650  0.6363 -0.0376  1.3814
 1961TIP3    H227375   0.976   3.612   5.521 -2.3851  1.7259 -0.8513
 1962TIP3   OH227376   4.194   2.897  16.485  0.4382 -0.6744 -0.2375
 1962TIP3    H127377   4.227   2.825  16.432  1.6872 -0.5973  0.4021
 1962TIP3    H227378   4.270   2.954  16.498 -0.4739  0.6526 -0.5619
 1963TIP3   OH227379   5.711   0.120  14.811  0.3057 -0.5786  0.2338
 1963TIP3    H127380   5.680   0.037  14.775  0.8979 -0.2341 -1.1564
 1963TIP3    H227381   5.806   0.117  14.798  0.1249  1.2777 -2.0441
 1964TIP3   OH227382   6.201   2.332  13.174  0.2431  0.7879  0.2258
 1964TIP3    H127383   6.268   2.283  13.126  0.2651 -1.9181  2.7605
 1964TIP3    H227384   6.120   2.315  13.126  0.7972  1.1337 -0.8560
 1965TIP3   OH227385   3.847   3.623  13.479 -0.1700  0.1147 -0.2759
 1965TIP3    H127386   3.874   3.558  13.414  1.3176  1.8457 -1.5074
 1965TIP3    H227387   3.776   3.671  13.436  1.1306  1.5657 -0.8899
 1966TIP3   OH227388   3.039   4.764  11.199 -0.0113 -0.1218  0.0108
 1966TIP3    H127389   2.963   4.705  11.193 -1.9482  2.1335  0.7535
 1966TIP3    H227390   3.001   4.851  11.210  2.6863  1.4471 -1.8280
 1967TIP3   OH227391   1.793   0.297  17.126  0.0100 -0.2761 -0.6713
 1967TIP3    H127392   1.748   0.225  17.169  2.0006 -1.1691  0.0558
 1967TIP3    H227393   1.724   0.359  17.104 -1.3247 -0.4214  2.5423
 1968TIP3   OH227394   1.611   5.764  13.043 -0.3910 -0.2520  0.1947
 1968TIP3    H127395   1.636   5.756  13.135  0.9357 -2.9291 -0.2951
 1968TIP3    H227396   1.528   5.717  13.037 -0.1273 -0.6913 -0.0747
 1969TIP3   OH227397   3.225   3.468   3.590  0.2505 -0.2187 -0.3100
 1969TIP3    H127398   3.222   3.535   3.521 -0.5670 -0.6884 -0.7514
 1969TIP3    H227399   3.312   3.477   3.628  0.1755  1.0667 -0.3822
 1970TIP3   OH227400   6.479   0.771  15.627 -0.4699 -0.3534 -0.0897
 1970TIP3    H127401   6.397   0.754  15.581 -1.3467 -0.5352  1.5037
 1970TIP3    H227402   6.487   0.700  15.690  0.7676 -0.1676 -0.0120
 1971TIP3   OH227403   2.921   4.395  14.144  0.2801 -0.3364 -1.0912
 1971TIP3    H127404   2.972   4.348  14.210  1.4139  0.6697 -1.2321
 1971TIP3    H227405   2.957   4.365  14.061 -0.6355 -1.0281 -1.2540
 1972TIP3   OH227406   1.712   6.278   4.777 -0.4290  0.4171 -0.0849
 1972TIP3    H127407   1.628   6.237   4.799 -0.7328  0.7761 -0.5423
 1972TIP3    H227408   1.770   6.255   4.849 -0.4305 -1.2764 -0.5791
 1973TIP3   OH227409   5.962   5.086  16.479 -0.5619 -0.2914  0.6201
 1973TIP3    H127410   5.919   5.161  16.518 -1.7421  0.4763 -1.9819
 1973TIP3    H227411   5.992   5.116  16.393  3.1562 -1.4699  1.2838
 1974TIP3   OH227412   2.743   4.741  15.052  0.6376 -0.2060 -0.2051
 1974TIP3    H127413   2.786   4.687  15.118  0.1414 -1.7256 -1.0875
 1974TIP3    H227414   2.681   4.682  15.009 -1.9273  1.7339  0.5978
 1975TIP3   OH227415   2.195   5.893   1.388 -0.1722  0.2844 -0.0377
 1975TIP3    H127416   2.275   5.844   1.371 -1.7315 -2.2124 -0.7467
 1975TIP3    H227417   2.210   5.934   1.473  1.1356 -1.8164  0.8381
 1976TIP3   OH227418   3.449   1.568  12.898  0.3235 -0.4285 -0.6370
 1976TIP3    H127419   3.530   1.518  12.906  0.6325  0.2522  0.8554
 1976TIP3    H227420   3.457   1.614  12.814  2.0901  0.6516  0.0705
 1977TIP3   OH227421   6.255   3.968  16.359  0.0349  0.5923 -0.3836
 1977TIP3    H127422   6.195   4.021  16.412 -1.0303  0.6405 -1.5961
 1977TIP3    H227423   6.243   4.001  16.270  1.2421  0.0147 -0.7744
 1978TIP3   OH227424   0.903   4.124  12.194  0.2534  0.1109 -0.4727
 1978TIP3    H127425   0.832   4.188  12.189 -1.3944 -1.5886  0.2150
 1978TIP3    H227426   0.977   4.168  12.151 -1.5094  1.4958 -2.3165
 1979TIP3   OH227427   6.638   6.108  15.139 -0.2207 -0.1337 -0.1026
 1979TIP3    H127428   6.587   6.125  15.060 -1.8097 -0.7446  0.7475
 1979TIP3    H227429   6.607   6.174  15.202  1.5213  0.8014 -0.1576
 1980TIP3   OH227430   0.635   1.704   1.079  0.3216 -0.4850 -0.1493
 1980TIP3    H127431   0.578   1.748   1.016  0.6883  0.3547  0.0910
 1980TIP3    H227432   0.688   1.644   1.026  0.3891 -0.0352 -0.6004
 1981TIP3   OH227433   0.791   5.393   0.537  0.0591 -0.3057  0.1028
 1981TIP3    H127434   0.846   5.370   0.611 -0.2263  0.7753  0.6697
 1981TIP3    H227435   0.717   5.440   0.576  0.0104  0.4582 -0.8810
 1982TIP3   OH227436   0.126   4.966  14.896 -0.1867  0.4797  0.4102
 1982TIP3    H127437   0.139   4.880  14.854 -0.3022  0.7722 -0.2416
 1982TIP3    H227438   0.031   4.973  14.906 -0.3211  1.2536 -1.1283
 1983TIP3   OH227439   6.454   6.186  14.621  0.0544 -0.4217  0.0391
 1983TIP3    H127440   6.472   6.110  14.565 -1.4172  0.6199 -1.9699
 1983TIP3    H227441   6.362   6.206  14.605  0.5340  2.1332  0.0145
 1984TIP3   OH227442   0.614   5.224   2.073 -0.5978 -0.5193 -0.1591
 1984TIP3    H127443   0.694   5.238   2.022  2.0655 -0.7710  3.5576
 1984TIP3    H227444   0.593   5.310   2.109 -0.4802 -0.8793  0.8164
 1985TIP3   OH227445   4.587   2.944   2.799 -0.2009 -0.3980  0.2278
 1985TIP3    H127446   4.506   2.930   2.849 -1.1911  0.7802 -0.9752
 1985TIP3    H227447   4.568   2.908   2.712  0.9684 -1.0831  0.2425
 1986TIP3   OH227448   1.122   0.993  11.481 -0.1671 -0.5692 -0.4065
 1986TIP3    H127449   1.043   0.940  11.491  0.4877 -1.5580 -0.3329
 1986TIP3    H227450   1.187   0.950  11.536  0.5843 -0.0836 -0.8966
 1987TIP3   OH227451   4.918   6.510  11.741  0.2927 -0.1429 -0.2754
 1987TIP3    H127452   4.992   6.471  11.694  1.4957  0.8030  0.7548
 1987TIP3    H227453   4.842   6.460  11.711  1.2227 -0.6317 -1.9632
 1988TIP3   OH227454   2.880   0.504  15.892 -0.4692  0.0537  0.3659
 1988TIP3    H127455   2.831   0.580  15.924  0.7699  2.2839 -2.5860
 1988TIP3    H227456   2.948   0.490  15.958  0.2165  2.5407  0.2929
 1989TIP3   OH227457   4.292   3.872   1.813 -0.6483 -0.2044 -0.0070
 1989TIP3    H127458   4.311   3.793   1.762  0.4262 -0.2721  0.4623
 1989TIP3    H227459   4.344   3.941   1.772 -0.6839 -0.0018  0.2807
 1990TIP3   OH227460   1.674   6.679   4.205 -0.1834  0.5405  0.5382
 1990TIP3    H127461   1.661   6.675   4.111  2.5078 -2.5816  0.0953
 1990TIP3    H227462   1.756   6.727   4.216 -0.3210  0.6220  1.2671
 1991TIP3   OH227463   0.281   4.140   4.036  0.3786  0.0804  0.5771
 1991TIP3    H127464   0.286   4.178   4.124  0.1434  2.7070 -0.4270
 1991TIP3    H227465   0.225   4.201   3.987  2.3926  0.0683 -1.9841
 1992TIP3   OH227466   3.855   2.979  12.723  0.1216 -0.7325 -0.2389
 1992TIP3    H127467   3.826   2.988  12.814  1.0534  0.0904 -0.0116
 1992TIP3    H227468   3.820   2.894  12.696  0.7336 -1.4938  1.2240
 1993TIP3   OH227469   6.481   0.537  12.254  0.3645 -0.3349  0.5729
 1993TIP3    H127470   6.524   0.495  12.328 -0.4888 -1.6157  0.3678
 1993TIP3    H227471   6.392   0.557  12.285  0.6239  0.9772  0.5338
 1994TIP3   OH227472   2.958   2.533   3.089  0.9759 -0.6995 -0.9524
 1994TIP3    H127473   3.048   2.564   3.078  1.1135 -0.6890  0.1108
 1994TIP3    H227474   2.941   2.542   3.182 -0.0825 -0.8467 -1.1191
 1995TIP3   OH227475   6.411   6.784   0.320 -0.1771  0.0244  0.1720
 1995TIP3    H127476   6.439   6.822   0.404 -0.0223 -0.2029  0.2228
 1995TIP3    H227477   6.466   6.828   0.255 -0.2191  0.1184  0.1995
 1996TIP3   OH227478   4.291   1.458  10.987 -0.3854  0.1429  0.1877
 1996TIP3    H127479   4.245   1.375  10.995 -1.9683  0.8856 -0.5970
 1996TIP3    H227480   4.364   1.452  11.047 -0.9280 -1.5082  0.7209
 1997TIP3   OH227481   3.733   6.338   4.058 -0.6218  0.6932 -0.0103
 1997TIP3    H127482   3.668   6.280   4.095  0.7810 -1.8354 -1.2233
 1997TIP3    H227483   3.719   6.333   3.963  0.8240  0.6957 -0.2504
 1998TIP3   OH227484   4.694   2.848   4.665  0.4695 -0.3454  0.3521
 1998TIP3    H127485   4.699   2.943   4.655  1.1921 -0.4521 -0.3426
 1998TIP3    H227486   4.785   2.820   4.673  0.3652 -1.1249 -0.9010
 1999TIP3   OH227487   3.941   2.640   1.632 -0.8493 -0.3814 -0.0301
 1999TIP3    H127488   4.029   2.604   1.644 -2.2467 -4.3131  0.0529
 1999TIP3    H227489   3.949   2.732   1.658  2.6525 -1.1842  2.5804
 2000TIP3   OH227490   3.187   4.593   2.162  0.3644 -0.0822 -0.0528
 2000TIP3    H127491   3.123   4.532   2.199  0.3707  0.6396  1.2537
 2000TIP3    H227492   3.136   4.672   2.144  0.6128  0.0016 -0.3820
 2001TIP3   OH227493   6.467   5.791  11.004 -0.2350  0.0716  0.0652
 2001TIP3    H127494   6.517   5.851  10.948 -0.5930  1.3645  1.0812
 2001TIP3    H227495   6.434   5.725  10.944  2.8862 -1.0260 -0.6264
 2002TIP3   OH227496   3.836   6.430  13.106  0.6470 -0.3534 -0.8300
 2002TIP3    H127497   3.764   6.458  13.162  1.8206 -0.9342  1.0411
 2002TIP3    H227498   3.793   6.391  13.030 -0.9909  0.7251 -0.5108
 2003TIP3   OH227499   2.534   3.245   1.784  0.1131  0.3867 -0.1467
 2003TIP3    H127500   2.587   3.174   1.748  0.6150 -0.2531  1.7549
 2003TIP3    H227501   2.460   3.201   1.827 -2.2389  1.2559 -2.9571
 2004TIP3   OH227502   4.194   5.868   3.663  0.3280  0.1240 -0.3855
 2004TIP3    H127503   4.173   5.958   3.639 -0.0456 -0.4452 -2.3390
 2004TIP3    H227504   4.202   5.870   3.759 -0.4804  2.0490 -0.3161
 2005TIP3   OH227505   3.852   0.616   4.989 -0.0551 -0.4757  0.1703
 2005TIP3    H127506   3.888   0.688   4.937  0.7241  0.2698  1.7004
 2005TIP3    H227507   3.856   0.541   4.930 -0.4141  0.6023 -1.2950
 2006TIP3   OH227508   3.075   5.125  12.064 -0.2721  0.4937  0.6854
 2006TIP3    H127509   3.082   5.196  12.128 -0.9396 -0.6609  2.0852
 2006TIP3    H227510   3.021   5.161  11.993  0.5524  1.8211  0.6966
 2007TIP3   OH227511   1.636   4.535   2.884  0.3008 -0.3064  0.1450
 2007TIP3    H127512   1.629   4.630   2.881  0.7253 -0.1761  2.1558
 2007TIP3    H227513   1.572   4.505   2.819 -0.2646  1.3259 -0.1107
 2008TIP3   OH227514   4.304   5.655   1.319 -0.2256 -0.4252  0.2358
 2008TIP3    H127515   4.222   5.672   1.273 -0.1444 -0.5631  0.0357
 2008TIP3    H227516   4.280   5.599   1.393 -0.2071 -1.0983 -0.2578
 2009TIP3   OH227517   5.454   6.490   5.110 -0.0110 -0.8132  0.3765
 2009TIP3    H127518   5.361   6.472   5.096 -0.2972  1.4699 -1.1202
 2009TIP3    H227519   5.455   6.570   5.163  1.0991 -0.4360 -0.1914
 2010TIP3   OH227520   0.627   2.474  12.667 -0.0195  0.0689  0.3857
 2010TIP3    H127521   0.541   2.499  12.699 -1.8610 -4.0294 -0.7694
 2010TIP3    H227522   0.682   2.467  12.745 -1.6619 -0.3807  1.5305
 2011TIP3   OH227523   4.547   5.278  11.386 -0.4492  0.0344  0.0213
 2011TIP3    H127524   4.525   5.186  11.374  0.5414 -0.1882 -0.1619
 2011TIP3    H227525   4.642   5.282  11.376 -0.1745  0.7154  2.3343
 2012TIP3   OH227526   1.744   1.841   2.817  0.2260 -0.3357 -0.0075
 2012TIP3    H127527   1.669   1.902   2.813  1.2883  1.0088 -0.2158
 2012TIP3    H227528   1.768   1.838   2.909 -0.3077 -1.0853  0.1196
 2013TIP3   OH227529   3.424   6.127  13.731  0.2122 -0.0181 -0.0873
 2013TIP3    H127530   3.498   6.076  13.764  0.7842  0.9846  0.2036
 2013TIP3    H227531   3.463   6.189  13.670 -0.2810  1.0231  0.6382
 2014TIP3   OH227532   3.552   1.040   3.001  0.1696 -0.1533  0.3822
 2014TIP3    H127533   3.504   1.117   2.970  2.0504  1.1810  0.6119
 2014TIP3    H227534   3.545   1.045   3.096  0.9620  0.2155  0.4297
 2015TIP3   OH227535   3.745   4.195  11.851 -0.2602 -0.4872 -0.2260
 2015TIP3    H127536   3.806   4.153  11.911  0.5961  1.2672  0.2029
 2015TIP3    H227537   3.725   4.280  11.893 -1.3327 -0.1319 -1.3866
 2016TIP3   OH227538   2.004   3.944   5.026 -0.0708 -0.3850 -0.2671
 2016TIP3    H127539   1.933   3.954   5.090 -0.0257 -0.4834 -0.2015
 2016TIP3    H227540   2.059   4.021   5.040  1.6690 -1.9085  1.9765
 2017TIP3   OH227541   6.550   2.468  13.002  0.2044 -0.5973 -0.0561
 2017TIP3    H127542   6.494   2.506  13.070  0.1132  1.4693 -1.2170
 2017TIP3    H227543   6.503   2.389  12.974 -1.4732  0.3671 -0.0636
 2018TIP3   OH227544   1.610   2.943   2.930 -0.2708 -0.2789  0.0904
 2018TIP3    H127545   1.590   2.860   2.885  2.9993 -0.2259 -1.8167
 2018TIP3    H227546   1.613   2.920   3.023  0.8293 -2.4259 -0.4077
 2019TIP3   OH227547   2.233   0.099   2.868  0.3921 -0.2905  0.0893
 2019TIP3    H127548   2.210   0.027   2.927 -0.3663  0.2238  0.4416
 2019TIP3    H227549   2.298   0.150   2.917  1.1753 -0.8922 -0.2901
 2020TIP3   OH227550   2.425   2.685  15.738  0.3154 -0.2202 -0.1145
 2020TIP3    H127551   2.357   2.684  15.671 -0.9414 -2.4690  1.0822
 2020TIP3    H227552   2.454   2.776  15.741 -1.6006  0.5126 -1.7156
 2021TIP3   OH227553   1.813   5.241   4.443  0.0181 -0.1346  0.3243
 2021TIP3    H127554   1.833   5.205   4.530  0.2039 -0.4293  0.1637
 2021TIP3    H227555   1.898   5.269   4.409 -0.1393  0.5296  0.4766
 2022TIP3   OH227556   1.205   2.434  15.067 -0.7067 -0.1148 -0.2312
 2022TIP3    H127557   1.122   2.477  15.045 -1.7100 -1.3486  0.9442
 2022TIP3    H227558   1.202   2.352  15.018 -0.9383 -0.8830  1.0484
 2023TIP3   OH227559   5.109   6.126   5.000 -0.5134  0.4877  0.3506
 2023TIP3    H127560   5.040   6.073   5.041 -0.4868  1.6061  1.8993
 2023TIP3    H227561   5.183   6.066   4.993 -1.0559 -0.2035  0.3303
 2024TIP3   OH227562   3.419   3.547   6.030  0.1823 -0.0415 -0.0301
 2024TIP3    H127563   3.378   3.591   6.104 -2.4413  0.5433 -1.6996
 2024TIP3    H227564   3.502   3.593   6.017 -0.6246  1.7350  0.7883
 2025TIP3   OH227565   2.344   2.051   0.946 -0.4183 -0.1428 -0.6042
 2025TIP3    H127566   2.368   1.983   1.009  0.4013  1.1588  0.5607
 2025TIP3    H227567   2.419   2.056   0.887  1.0440  1.8964  1.2629
 2026TIP3   OH227568   6.580   2.421  11.099  0.3006 -0.2052  0.0979
 2026TIP3    H127569   6.517   2.350  11.083  0.9982 -1.0365  0.9180
 2026TIP3    H227570   6.564   2.483  11.029  0.8840 -2.0246 -1.7572
 2027TIP3   OH227571   0.669   2.522  12.188  0.1626  0.0391  0.3478
 2027TIP3    H127572   0.729   2.487  12.255 -0.6513 -0.1277  1.0119
 2027TIP3    H227573   0.661   2.615  12.209 -2.6685 -0.5695  2.6271
 2028TIP3   OH227574   5.138   0.727  15.697  0.1332 -0.3220  0.3206
 2028TIP3    H127575   5.127   0.774  15.614 -0.0041  0.4367  0.7564
 2028TIP3    H227576   5.156   0.796  15.761 -1.2216 -0.7338  1.1906
 2029TIP3   OH227577   5.954   4.360  12.261  0.2441 -0.2126  0.1507
 2029TIP3    H127578   5.927   4.379  12.350 -0.5931  0.6561 -0.2697
 2029TIP3    H227579   5.913   4.429  12.208  0.8283 -0.6343 -0.8840
 2030TIP3   OH227580   2.116   1.793  14.581  0.6290 -0.3040 -0.1008
 2030TIP3    H127581   2.078   1.744  14.654 -1.4920  1.7915  0.3248
 2030TIP3    H227582   2.096   1.740  14.504  2.5923 -2.3755  0.6898
 2031TIP3   OH227583   0.950   6.689   4.947  0.3834 -0.9901  0.3558
 2031TIP3    H127584   1.025   6.643   4.982  0.6012 -0.9126  0.0006
 2031TIP3    H227585   0.874   6.639   4.976  0.6166 -1.5667 -0.0217
 2032TIP3   OH227586   1.248   4.277  14.569 -0.2608  0.6520  0.0806
 2032TIP3    H127587   1.275   4.237  14.652  1.5020 -0.5963 -1.0234
 2032TIP3    H227588   1.157   4.252  14.558  0.1894 -1.3339  0.4594
 2033TIP3   OH227589   2.372   0.361   3.280 -0.2905 -0.1946 -0.1538
 2033TIP3    H127590   2.323   0.348   3.361 -0.0626  1.4867  0.2887
 2033TIP3    H227591   2.398   0.272   3.254 -2.8083 -1.0600  0.0277
 2034TIP3   OH227592   0.623   5.653  13.851  0.5178 -0.2630  1.1122
 2034TIP3    H127593   0.668   5.604  13.782 -0.8455 -0.1092  0.0545
 2034TIP3    H227594   0.669   5.631  13.931  0.7382 -2.2685  0.4814
 2035TIP3   OH227595   6.744   1.608   0.593  0.1099 -0.2408  0.0878
 2035TIP3    H127596   6.738   1.528   0.645 -0.8080 -1.3637 -1.6729
 2035TIP3    H227597   6.814   1.591   0.531 -0.9476 -0.2197 -1.1472
 2036TIP3   OH227598   4.871   6.580  15.484 -0.3964 -0.4616 -0.0111
 2036TIP3    H127599   4.841   6.510  15.426  1.2508  0.1122 -1.6414
 2036TIP3    H227600   4.798   6.593  15.544 -1.0414 -3.0824 -0.0729
 2037TIP3   OH227601   1.057   5.345  12.392 -0.3370 -0.1832 -0.0272
 2037TIP3    H127602   1.051   5.413  12.325  0.0386 -2.1807 -2.2241
 2037TIP3    H227603   0.993   5.279  12.364 -1.0002 -0.5831  2.2563
 2038TIP3   OH227604   3.975   4.889  16.219  0.4795 -0.0044 -0.1816
 2038TIP3    H127605   4.065   4.919  16.237  0.7490 -0.8410 -0.1171
 2038TIP3    H227606   3.945   4.946  16.148  1.2206  0.0011 -0.4970
 2039TIP3   OH227607   5.653   3.170  11.697  0.0784  0.0701 -0.5991
 2039TIP3    H127608   5.578   3.211  11.739 -0.1342 -1.2522  0.3707
 2039TIP3    H227609   5.634   3.175  11.603 -0.4243  1.2106 -0.4525
 2040TIP3   OH227610   0.674   1.162  17.062  0.2385 -0.3936  0.1585
 2040TIP3    H127611   0.762   1.200  17.062  1.1075 -2.2187 -1.7245
 2040TIP3    H227612   0.676   1.096  17.131 -0.2511  0.7339  1.2838
 2041TIP3   OH227613   6.273   5.367  12.364 -0.5277  0.0826 -0.3595
 2041TIP3    H127614   6.226   5.394  12.285 -0.2355  0.0770 -0.5359
 2041TIP3    H227615   6.208   5.319  12.415 -0.6706 -0.0673 -0.6779
 2042TIP3   OH227616   5.461   0.067   5.668  0.0122 -0.1274  0.1692
 2042TIP3    H127617   5.498   0.153   5.688 -0.0328 -0.1486  0.3470
 2042TIP3    H227618   5.530   0.005   5.693 -0.3632 -0.1988  1.0589
 2043TIP3   OH227619   6.406   6.747   5.228 -0.2646  0.3472  0.3943
 2043TIP3    H127620   6.482   6.767   5.173 -0.6340  0.1736 -0.1858
 2043TIP3    H227621   6.342   6.813   5.205 -1.0031 -0.6601 -0.5571
 2044TIP3   OH227622   1.530   0.270  14.002  0.3759 -0.2193 -0.1099
 2044TIP3    H127623   1.458   0.331  13.989 -0.5837 -1.1394  0.7864
 2044TIP3    H227624   1.581   0.276  13.921 -1.4697 -0.5719 -1.3580
 2045TIP3   OH227625   0.051   0.717  13.422 -0.5557  0.7838 -0.1872
 2045TIP3    H127626   0.056   0.733  13.328  0.3670  0.5983 -0.1748
 2045TIP3    H227627  -0.009   0.643  13.431  1.9627 -1.5083 -0.9169
 2046TIP3   OH227628   1.741   2.654  17.102  0.8033 -0.8146 -0.4575
 2046TIP3    H127629   1.730   2.582  17.165  1.1470  0.0881  0.6616
 2046TIP3    H227630   1.668   2.713  17.121  1.5011 -0.0259 -0.1947
 2047TIP3   OH227631   1.513   0.877   0.814  0.2249  0.1525  0.0287
 2047TIP3    H127632   1.533   0.871   0.721 -1.1796 -0.6636 -0.2478
 2047TIP3    H227633   1.418   0.889   0.818  0.5493  3.4155  1.2789
 2048TIP3   OH227634   0.057   3.083   5.622  0.0788  0.2347 -0.2695
 2048TIP3    H127635   0.103   3.141   5.683 -1.2756  0.8468  0.2139
 2048TIP3    H227636   0.126   3.028   5.585  1.4747  2.3027 -0.9445
 2049TIP3   OH227637   6.480   6.089   5.484  0.0028  0.1112 -0.4493
 2049TIP3    H127638   6.509   6.012   5.434 -1.1953  0.9380 -2.5576
 2049TIP3    H227639   6.385   6.077   5.491  0.0404  0.4939  0.8677
 2050TIP3   OH227640   2.940   2.364  11.518  0.3501 -0.5906  0.2352
 2050TIP3    H127641   2.965   2.403  11.434 -0.8978 -0.6999 -0.2054
 2050TIP3    H227642   2.999   2.289  11.527  0.6655 -0.4339 -0.4195
 2051TIP3   OH227643   5.129   6.056   1.437 -0.5682 -0.0001  0.1893
 2051TIP3    H127644   5.091   5.999   1.503  2.2100 -0.4890  1.4870
 2051TIP3    H227645   5.114   6.010   1.354 -1.0800 -1.0814  0.8632
 2052TIP3   OH227646   0.623   3.401   5.640  0.5613 -0.0665  0.5282
 2052TIP3    H127647   0.541   3.410   5.689 -0.2516  1.2758 -0.9867
 2052TIP3    H227648   0.686   3.455   5.688 -0.0778  0.8008  0.4022
 2053TIP3   OH227649   1.261   5.807  16.855  0.3248  0.0832 -0.1022
 2053TIP3    H127650   1.266   5.761  16.939 -1.3271  2.3755  1.3806
 2053TIP3    H227651   1.294   5.894  16.873  0.7550  0.3974 -2.1116
 2054TIP3   OH227652   0.632   5.189  10.953  0.8180 -0.3432  0.2048
 2054TIP3    H127653   0.540   5.165  10.944  0.8874 -0.3543 -0.5398
 2054TIP3    H227654   0.679   5.130  10.893  1.2447  0.0476  0.1457
 2055TIP3   OH227655   0.665   2.572  16.503 -0.5412  0.4237  0.0309
 2055TIP3    H127656   0.719   2.504  16.543  0.1233 -0.1769 -1.7538
 2055TIP3    H227657   0.726   2.644  16.486  0.5520 -1.2126 -4.3555
 2056TIP3   OH227658   4.321   0.417  12.710  0.1890 -0.4994 -0.1916
 2056TIP3    H127659   4.308   0.422  12.805  1.4719 -1.2014  0.0461
 2056TIP3    H227660   4.310   0.324  12.689 -0.4804 -0.2931 -0.8094
 2057TIP3   OH227661   3.675   5.446   2.923  0.0459  0.7442  0.4588
 2057TIP3    H127662   3.755   5.398   2.948  1.4318  2.3266 -0.6958
 2057TIP3    H227663   3.632   5.465   3.006  1.6798  1.1396  1.2589
 2058TIP3   OH227664   4.660   6.236  16.721  0.0382  0.1492  0.4953
 2058TIP3    H127665   4.585   6.246  16.663  1.5590 -0.5722 -1.7235
 2058TIP3    H227666   4.677   6.142  16.724  1.2031  0.3346  0.4670
 2059TIP3   OH227667   0.380   2.146   5.312  0.5489 -0.4231  0.0956
 2059TIP3    H127668   0.460   2.181   5.352  0.7462 -0.1337 -0.5396
 2059TIP3    H227669   0.405   2.125   5.222 -0.5860  1.6718 -0.7905
 2060TIP3   OH227670   2.400   5.739   2.039 -0.3500 -0.3933 -0.8278
 2060TIP3    H127671   2.457   5.744   1.963 -0.8202 -0.0632 -1.1643
 2060TIP3    H227672   2.351   5.657   2.027  0.8242 -1.2694  0.0301
 2061TIP3   OH227673   4.054   1.208   5.131  0.4910 -0.1236 -0.0341
 2061TIP3    H127674   3.986   1.273   5.113  2.0502  0.6379 -4.0790
 2061TIP3    H227675   4.007   1.136   5.173 -2.5491  0.9776 -1.2388
 2062TIP3   OH227676   0.392   2.550  12.764 -0.7322  0.5112  0.0355
 2062TIP3    H127677   0.323   2.553  12.830  0.1866  1.2379  1.0091
 2062TIP3    H227678   0.367   2.615  12.699 -1.5907 -0.1267 -0.2867
 2063TIP3   OH227679   0.244   4.768  16.327  0.0011 -0.4679 -0.2833
 2063TIP3    H127680   0.261   4.767  16.421 -0.1316  0.9293 -0.2133
 2063TIP3    H227681   0.296   4.841  16.294 -0.8445 -0.2069 -1.1009
 2064TIP3   OH227682   3.389   4.550   1.976 -0.3626  1.3859  0.3797
 2064TIP3    H127683   3.426   4.639   1.973  1.8673  0.6400  2.5332
 2064TIP3    H227684   3.325   4.554   2.047 -1.2403  1.5728 -0.4089
 2065TIP3   OH227685   3.977   5.343   5.643  0.4175 -0.4487  0.1969
 2065TIP3    H127686   3.974   5.346   5.739 -1.6561  0.1863  0.1519
 2065TIP3    H227687   3.916   5.410   5.615  0.4615 -1.1041 -1.5898
 2066TIP3   OH227688   2.141   3.782  14.074 -0.1898  0.8717  0.0328
 2066TIP3    H127689   2.131   3.848  14.142  0.4579  2.4983 -1.3891
 2066TIP3    H227690   2.123   3.828  13.993 -1.8711 -1.2271 -0.9046
 2067TIP3   OH227691   1.605   1.696   4.667 -0.4508  0.0934 -0.4875
 2067TIP3    H127692   1.644   1.768   4.619 -0.2237 -0.6773 -1.5035
 2067TIP3    H227693   1.524   1.732   4.703 -0.7749  0.6330 -1.6991
 2068TIP3   OH227694   1.806   2.015  14.241 -0.3834 -0.5771 -0.7639
 2068TIP3    H127695   1.833   1.993  14.151 -0.9364  0.1628 -1.1199
 2068TIP3    H227696   1.886   2.007  14.293  0.4828  1.2376 -1.7350
 2069TIP3   OH227697   3.647   4.598   4.242 -0.5963 -0.1925  0.1214
 2069TIP3    H127698   3.715   4.563   4.300 -0.4270  1.0551  0.7245
 2069TIP3    H227699   3.599   4.522   4.212  1.2622 -1.1507 -0.5839
 2070TIP3   OH227700   2.913   1.108  11.089  0.3896  0.1463 -0.5363
 2070TIP3    H127701   2.836   1.051  11.081  0.0697  0.5865 -0.6667
 2070TIP3    H227702   2.975   1.074  11.025  0.4945 -0.5111 -0.0915
 2071TIP3   OH227703   0.039   6.497  15.766  0.2515 -0.3150  0.4006
 2071TIP3    H127704   0.041   6.588  15.737  1.5866  0.2531  2.0796
 2071TIP3    H227705  -0.048   6.488  15.807 -0.4622 -0.2644 -1.0378
 2072TIP3   OH227706   2.259   1.775  15.002  0.4680 -0.0262  0.0752
 2072TIP3    H127707   2.198   1.831  14.953 -0.8961 -0.4952  1.1795
 2072TIP3    H227708   2.301   1.721  14.935  0.9353  1.4684 -0.8883
 2073TIP3   OH227709   1.081   6.336  11.303 -0.1599  0.1578 -0.4442
 2073TIP3    H127710   1.078   6.414  11.248  1.9254  0.6058 -0.0201
 2073TIP3    H227711   1.076   6.263  11.240  0.9342  0.6642 -1.1556
 2074TIP3   OH227712   3.281   3.123  10.543 -0.1027 -0.3222 -0.2984
 2074TIP3    H127713   3.333   3.043  10.551 -0.0927 -0.3378 -0.5076
 2074TIP3    H227714   3.334   3.180  10.487 -0.5734 -0.5622 -1.0046
 2075TIP3   OH227715   4.864   2.465  12.720  0.3106  0.2093  0.2340
 2075TIP3    H127716   4.777   2.504  12.725  0.0593 -0.4261  0.9977
 2075TIP3    H227717   4.884   2.463  12.626  0.0211  1.4636  0.1318
 2076TIP3   OH227718   2.818   5.683  12.003  0.1738 -0.3544  1.1170
 2076TIP3    H127719   2.750   5.734  11.961  1.3115  0.1264 -0.2195
 2076TIP3    H227720   2.834   5.728  12.086 -0.0172  0.4623  0.7202
 2077TIP3   OH227721   2.338   2.684  16.016  0.2173 -0.2771  0.1035
 2077TIP3    H127722   2.398   2.750  16.049 -1.2955  1.2017  0.0124
 2077TIP3    H227723   2.367   2.668  15.926  1.9197 -1.4211  0.7883
 2078TIP3   OH227724   2.207   3.349  13.783  0.0413  0.1582 -0.1715
 2078TIP3    H127725   2.186   3.331  13.874  0.5724 -0.9629 -0.2611
 2078TIP3    H227726   2.148   3.293  13.733  0.8814 -0.4630 -0.4797
 2079TIP3   OH227727   5.800   0.603  15.265 -0.2160 -0.4641  0.2161
 2079TIP3    H127728   5.743   0.616  15.189  0.7903  0.6066 -0.4054
 2079TIP3    H227729   5.826   0.691  15.290 -0.0465 -0.8486  1.4413
 2080TIP3   OH227730   6.599   3.855  15.718  0.1470 -0.3701 -0.5392
 2080TIP3    H127731   6.544   3.825  15.646 -1.4084 -0.4905  0.6383
 2080TIP3    H227732   6.658   3.918  15.678 -2.9193  2.2103 -1.4130
 2081TIP3   OH227733   5.062   5.905  14.218  0.0150  0.2539 -0.1058
 2081TIP3    H127734   4.978   5.888  14.260 -0.0150 -0.0444 -0.2838
 2081TIP3    H227735   5.089   5.991  14.252 -0.4557  0.4456 -0.2052
 2082TIP3   OH227736   4.662   3.196   0.590 -0.4161  0.2971  0.3803
 2082TIP3    H127737   4.596   3.133   0.561 -1.2494 -0.2792  3.1718
 2082TIP3    H227738   4.733   3.189   0.526 -1.7300 -1.3584 -0.9754
 2083TIP3   OH227739   0.193   4.276  13.004  0.1189  0.4804  0.7364
 2083TIP3    H127740   0.176   4.215  12.933  0.0389 -0.9967  1.9745
 2083TIP3    H227741   0.215   4.221  13.079  3.6021  2.0112  1.0505
 2084TIP3   OH227742   4.178   6.271  11.495 -0.0446  0.4393  0.3653
 2084TIP3    H127743   4.137   6.304  11.415  0.5027  1.6023  0.5362
 2084TIP3    H227744   4.120   6.202  11.526 -0.9335  0.8491 -0.3434
 2085TIP3   OH227745   4.009   0.231  16.337  0.3805  0.2141 -0.0769
 2085TIP3    H127746   4.101   0.204  16.345  0.1594 -0.2481  1.3366
 2085TIP3    H227747   3.961   0.149  16.329 -0.1794  0.1203  2.8670
 2086TIP3   OH227748   1.623   2.644   0.954  0.3664 -0.0765  0.0200
 2086TIP3    H127749   1.716   2.668   0.960  0.6188 -0.9098 -0.4437
 2086TIP3    H227750   1.579   2.703   1.015  1.1944  0.3761  0.1877
 2087TIP3   OH227751   4.483   2.205   3.953 -0.2534 -0.3492  0.0026
 2087TIP3    H127752   4.414   2.158   3.905  0.9243 -0.7014 -1.4025
 2087TIP3    H227753   4.467   2.297   3.933  0.1840 -0.4898 -1.0318
 2088TIP3   OH227754   1.128   4.531  14.171 -0.2351  0.1672 -0.6457
 2088TIP3    H127755   1.200   4.520  14.233 -0.2621  0.4648 -0.5581
 2088TIP3    H227756   1.124   4.448  14.123 -0.9689 -0.5080  0.5353
 2089TIP3   OH227757   0.107   6.691  11.833  0.1326 -0.0628  0.3256
 2089TIP3    H127758   0.107   6.781  11.867  0.7285 -0.1626  0.5963
 2089TIP3    H227759   0.052   6.696  11.754  0.0017  0.4968  0.4455
 2090TIP3   OH227760   0.206   3.864  11.296  0.0069 -0.2497  0.4193
 2090TIP3    H127761   0.300   3.846  11.307 -0.1615 -2.0158 -0.6667
 2090TIP3    H227762   0.163   3.793  11.343 -0.8186  0.3895  0.6585
 2091TIP3   OH227763   1.140   0.611   1.610 -0.4413 -0.2761  0.7444
 2091TIP3    H127764   1.230   0.638   1.630 -0.6395  1.6843 -0.7172
 2091TIP3    H227765   1.150   0.535   1.554  0.5115  1.7778 -2.0972
 2092TIP3   OH227766   3.573   6.415  12.318 -0.1168 -0.3743  0.2764
 2092TIP3    H127767   3.611   6.451  12.398  1.6024 -0.0542 -0.6318
 2092TIP3    H227768   3.621   6.458  12.247 -2.9380  0.8357 -1.0230
 2093TIP3   OH227769   1.517   5.051   1.207  0.3621  0.4550 -0.5981
 2093TIP3    H127770   1.430   5.029   1.176  0.6062  0.4799 -1.3067
 2093TIP3    H227771   1.572   4.976   1.182  0.6223  0.6090 -0.4969
 2094TIP3   OH227772   4.453   5.841   3.582  0.0199 -0.0645  0.2705
 2094TIP3    H127773   4.472   5.858   3.490 -1.0335 -0.6491 -0.0804
 2094TIP3    H227774   4.357   5.837   3.586  0.0678 -2.8857  0.8238
 2095TIP3   OH227775   0.458   2.730   0.409  0.2423  0.0270  0.5142
 2095TIP3    H127776   0.504   2.654   0.445 -0.0316 -1.2221 -1.6300
 2095TIP3    H227777   0.527   2.785   0.373  0.3126 -0.0025  0.6026
 2096TIP3   OH227778   4.612   5.574   3.370  0.1287  0.4715 -1.0905
 2096TIP3    H127779   4.634   5.574   3.463  3.1995  0.8784 -1.7201
 2096TIP3    H227780   4.556   5.651   3.359  0.4791  0.9476  0.2647
 2097TIP3   OH227781   5.948   2.435   3.081  0.3308 -0.0129 -0.4488
 2097TIP3    H127782   5.975   2.524   3.061 -0.9422  1.5744  3.7532
 2097TIP3    H227783   6.024   2.396   3.123  0.0666  0.0358  0.0798
 2098TIP3   OH227784   1.813   1.106   5.049  0.1147 -0.3248  0.1813
 2098TIP3    H127785   1.819   1.051   5.127 -3.8302  0.0354  0.9737
 2098TIP3    H227786   1.851   1.190   5.075  1.1347 -0.9720  0.8283
 2099TIP3   OH227787   3.727   6.600   5.132  0.1704  0.3795 -0.4744
 2099TIP3    H127788   3.708   6.616   5.224  1.7257 -0.9326  0.1130
 2099TIP3    H227789   3.816   6.633   5.120  0.3431 -0.3502 -1.2576
 2100TIP3   OH227790   4.304   6.527  15.919 -0.2198  0.1986  0.2606
 2100TIP3    H127791   4.299   6.577  15.837 -0.7073 -0.6794 -0.2626
 2100TIP3    H227792   4.310   6.594  15.988  1.5019  0.9498 -0.5462
 2101TIP3   OH227793   1.833   3.190  12.550 -0.4103  0.2154  0.7369
 2101TIP3    H127794   1.752   3.159  12.590 -0.8473 -1.1894 -1.0863
 2101TIP3    H227795   1.886   3.111  12.538 -0.6222  0.3706 -2.0369
 2102TIP3   OH227796   6.301   1.509   1.417 -0.6183 -0.5930 -0.2603
 2102TIP3    H127797   6.239   1.544   1.354 -1.3796 -2.0379 -0.3358
 2102TIP3    H227798   6.382   1.495   1.367 -0.8121 -0.4934 -0.5998
 2103TIP3   OH227799   3.338   4.906  13.136  0.5655 -0.5573  0.5437
 2103TIP3    H127800   3.375   4.969  13.198 -1.4107 -0.9936  2.2846
 2103TIP3    H227801   3.412   4.850  13.112  1.3840 -0.5153  2.7191
 2104TIP3   OH227802   5.039   4.022   3.836  0.2491  0.1885 -0.2322
 2104TIP3    H127803   4.994   3.981   3.910 -2.6660 -0.1074 -2.0278
 2104TIP3    H227804   5.103   3.957   3.808  2.0909  0.6593  2.4712
 2105TIP3   OH227805   1.718   3.632  15.052  0.2463 -0.2214 -0.7613
 2105TIP3    H127806   1.781   3.561  15.041 -0.4534 -0.8755 -0.6749
 2105TIP3    H227807   1.653   3.597  15.112 -0.4739  0.2401 -1.2482
 2106TIP3   OH227808   2.798   3.020  12.894 -0.5070 -0.0002 -0.0185
 2106TIP3    H127809   2.808   2.935  12.852 -1.0863  1.3888 -3.2437
 2106TIP3    H227810   2.888   3.052  12.904 -0.3624  0.2759 -1.8035
 2107TIP3   OH227811   0.211   6.448  16.525  0.3019  0.2429  0.4451
 2107TIP3    H127812   0.232   6.408  16.440  0.8310  0.0126  0.6863
 2107TIP3    H227813   0.173   6.533  16.502  0.0265 -0.0021 -0.0357
 2108TIP3   OH227814   5.781   4.572   5.817  0.0715 -0.6036  0.0952
 2108TIP3    H127815   5.870   4.543   5.837  0.3318  0.6934  0.9232
 2108TIP3    H227816   5.739   4.584   5.902 -1.5941 -3.1155 -0.2779
 2109TIP3   OH227817   0.631   5.724  12.819  0.2481  0.1538  0.0967
 2109TIP3    H127818   0.636   5.629  12.830 -0.6600 -0.0660 -1.1507
 2109TIP3    H227819   0.537   5.743  12.818  0.4128  1.2414  1.5410
 2110TIP3   OH227820   5.725   6.681  14.165  0.0822  0.4720 -0.3399
 2110TIP3    H127821   5.665   6.729  14.222 -0.5476  1.1268 -1.5143
 2110TIP3    H227822   5.712   6.589  14.189 -0.2888  0.7191  0.4413
 2111TIP3   OH227823   1.478   6.032  12.032 -0.4579 -0.0628 -0.2674
 2111TIP3    H127824   1.399   6.053  12.083 -0.1766  2.1879 -0.6228
 2111TIP3    H227825   1.549   6.033  12.096 -0.2682  1.5826 -0.4515
 2112TIP3   OH227826   2.536   3.369  12.435 -0.2984  0.2630  0.6731
 2112TIP3    H127827   2.565   3.285  12.399  2.0890  1.0407  0.5994
 2112TIP3    H227828   2.492   3.412  12.362  2.3455  0.8076 -0.7373
 2113TIP3   OH227829   5.346   1.002  16.931  0.6592 -0.3281  0.1886
 2113TIP3    H127830   5.430   1.047  16.933  0.1015  0.7562 -0.1257
 2113TIP3    H227831   5.336   0.965  17.019  1.1248  0.1643  0.4538
 2114TIP3   OH227832   5.767   4.114   3.202  0.6252 -0.0394  0.1356
 2114TIP3    H127833   5.814   4.105   3.285 -0.2616 -0.5673  0.6092
 2114TIP3    H227834   5.832   4.145   3.140  1.3488  0.2079  0.9947
 2115TIP3   OH227835   6.283   2.958   4.449 -0.2010 -0.1970  0.2055
 2115TIP3    H127836   6.308   2.916   4.366  0.3796 -1.2390  0.8843
 2115TIP3    H227837   6.189   2.941   4.457  0.0174 -1.4167  0.4617
 2116TIP3   OH227838   4.106   2.437  15.778  0.4303  0.0906  0.1215
 2116TIP3    H127839   4.155   2.519  15.777 -0.0605  0.4414  1.5861
 2116TIP3    H227840   4.052   2.440  15.699  2.2547 -0.0223 -1.1760
 2117TIP3   OH227841   1.090   1.598   1.666 -0.2907 -0.6116 -0.5054
 2117TIP3    H127842   1.037   1.531   1.623  0.0472 -0.2815 -1.4832
 2117TIP3    H227843   1.028   1.667   1.690 -0.8242 -1.7365  1.5468
 2118TIP3   OH227844   1.598   5.974   1.269 -0.2405 -0.5028  0.4942
 2118TIP3    H127845   1.618   5.881   1.262  0.5349 -0.6082  3.1796
 2118TIP3    H227846   1.683   6.016   1.286 -0.9303  0.2869  2.2529
 2119TIP3   OH227847   1.855   5.939  12.529  0.3318  0.1394  0.4154
 2119TIP3    H127848   1.933   5.979  12.491  0.1191  0.1331 -0.0373
 2119TIP3    H227849   1.828   5.874  12.464 -0.1659  0.2790  0.4806
 2120TIP3   OH227850   0.401   5.717  16.783 -0.0223 -0.3127 -0.0729
 2120TIP3    H127851   0.320   5.766  16.773  0.0720 -0.3013 -0.8225
 2120TIP3    H227852   0.455   5.744  16.708  0.7188 -0.2369  0.4720
 2121TIP3   OH227853   5.847   4.601   6.328  0.3574  0.4942  0.6397
 2121TIP3    H127854   5.813   4.521   6.369  0.8498 -0.3753 -0.5784
 2121TIP3    H227855   5.807   4.673   6.377  0.6797 -0.4821  2.4289
 2122TIP3   OH227856   3.004   5.347   5.785  0.8614  0.8823 -0.8784
 2122TIP3    H127857   3.006   5.423   5.727  1.0570  2.0591  0.6230
 2122TIP3    H227858   3.061   5.370   5.858 -0.5787  0.0881  0.5720
 2123TIP3   OH227859   5.681   2.598  15.909 -0.5869  0.6387  0.2273
 2123TIP3    H127860   5.690   2.526  15.846 -0.3746  0.2927  0.6424
 2123TIP3    H227861   5.653   2.555  15.990 -0.6659  1.0527  0.4184
 2124TIP3   OH227862   6.722   5.939   0.993  0.0830 -0.5293 -0.0963
 2124TIP3    H127863   6.635   5.968   0.965 -0.0203 -2.2877 -1.7954
 2124TIP3    H227864   6.712   5.917   1.086 -2.4392 -4.4635 -1.0886
 2125TIP3   OH227865   2.119   0.042  13.175  0.3415 -0.2987  0.2566
 2125TIP3    H127866   2.153  -0.040  13.138  1.6581  0.1425  0.4438
 2125TIP3    H227867   2.078   0.087  13.100  0.6023 -0.6199 -0.0814
 2126TIP3   OH227868   4.033   2.950  14.158 -0.4117  0.8473  0.2256
 2126TIP3    H127869   3.947   2.992  14.168 -1.0492  0.0047 -1.3236
 2126TIP3    H227870   4.095   3.023  14.154 -1.2852  1.5725 -0.5760
 2127TIP3   OH227871   5.199   0.089  16.078  0.4196 -0.7870  0.0885
 2127TIP3    H127872   5.159   0.004  16.100  2.4655 -1.2771  2.3361
 2127TIP3    H227873   5.139   0.153  16.117 -0.6088 -1.1964 -0.7456
 2128TIP3   OH227874   5.080   3.964  17.155 -0.5179  0.2591  0.6561
 2128TIP3    H127875   5.038   4.010  17.081  1.6541 -0.9538 -1.4854
 2128TIP3    H227876   5.135   4.031  17.195  3.0558 -0.2152 -2.7833
 2129TIP3   OH227877   2.231   2.791   4.636 -0.1176  0.1343 -0.0547
 2129TIP3    H127878   2.235   2.867   4.696 -3.1917  0.9964 -0.7797
 2129TIP3    H227879   2.265   2.825   4.553 -1.4769  0.7783 -0.3754
 2130TIP3   OH227880   3.605   2.392   4.645 -0.5155 -0.1405  0.0812
 2130TIP3    H127881   3.556   2.312   4.665 -1.1428  0.2867  0.3131
 2130TIP3    H227882   3.582   2.412   4.554 -0.8923  0.1282  0.2284
 2131TIP3   OH227883   1.996   3.447  10.783 -0.3515  0.0864  0.3250
 2131TIP3    H127884   1.945   3.413  10.709  0.2980  1.0520 -0.5980
 2131TIP3    H227885   2.027   3.532  10.753  1.0965 -0.1083  1.1789
 2132TIP3   OH227886   6.477   1.277   0.500  0.2585  0.1698 -0.1029
 2132TIP3    H127887   6.503   1.252   0.411  2.2556 -0.9437  0.7213
 2132TIP3    H227888   6.415   1.210   0.527  0.9908 -0.4887 -0.0434
 2133TIP3   OH227889   0.802   1.028  14.796 -0.5363 -0.1230  0.2896
 2133TIP3    H127890   0.792   1.003  14.888  2.3538  0.5567  0.8883
 2133TIP3    H227891   0.743   1.102  14.785 -2.5440 -1.5211  0.9210
 2134TIP3   OH227892   6.332   2.799  13.472  0.6310 -0.1506 -0.0590
 2134TIP3    H127893   6.332   2.892  13.497 -0.6093 -0.1066 -0.1769
 2134TIP3    H227894   6.248   2.765  13.503  0.1084 -0.6991 -1.9141
 2135TIP3   OH227895   3.979   5.037   4.173 -0.2124 -0.8449 -0.3042
 2135TIP3    H127896   4.056   5.066   4.125  0.8169 -0.9435  1.2445
 2135TIP3    H227897   4.006   4.954   4.213 -0.9288 -0.5805  0.7373
 2136TIP3   OH227898   4.021   6.097  12.002  0.4284  0.2493  0.3969
 2136TIP3    H127899   4.011   6.186  11.969  1.1774  0.0145 -0.5152
 2136TIP3    H227900   4.058   6.048  11.928  0.9877 -0.5842  1.2018
 2137TIP3   OH227901   6.808   6.154  16.969 -0.8574 -0.1112 -0.5160
 2137TIP3    H127902   6.821   6.179  16.877 -1.4804  1.4627 -0.2154
 2137TIP3    H227903   6.814   6.059  16.969  0.5310 -0.0707 -1.9627
 2138TIP3   OH227904   2.262   4.609   0.127 -0.1911  0.1407 -0.0533
 2138TIP3    H127905   2.242   4.524   0.167  0.3723 -0.8989 -1.8851
 2138TIP3    H227906   2.356   4.620   0.141 -0.3048  0.6081  0.3942
 2139TIP3   OH227907   1.175   5.494  16.231  0.8047  0.2352 -0.4898
 2139TIP3    H127908   1.169   5.550  16.154  1.5806 -0.4021 -1.0364
 2139TIP3    H227909   1.226   5.545  16.294 -0.4496  1.0509 -0.1075
 2140TIP3   OH227910   2.973   3.290  11.364 -0.0505 -0.2474 -0.5126
 2140TIP3    H127911   2.975   3.323  11.454  1.3556  1.5694 -1.1389
 2140TIP3    H227912   2.967   3.369  11.310 -1.0564 -1.3114 -2.0363
 2141TIP3   OH227913   2.709   0.733  15.950  0.0424 -0.2564  0.7516
 2141TIP3    H127914   2.636   0.792  15.967 -0.7014 -1.0030  0.2225
 2141TIP3    H227915   2.669   0.646  15.941  1.0379 -0.7414  0.8450
 2142TIP3   OH227916   2.466   0.717  11.184  0.4249  0.7064  0.2434
 2142TIP3    H127917   2.435   0.667  11.260  1.4967  1.3038  1.0906
 2142TIP3    H227918   2.561   0.719  11.193  1.0557 -2.4840 -3.1732
 2143TIP3   OH227919   6.702   3.532  16.642  0.3763  0.0420 -0.0219
 2143TIP3    H127920   6.798   3.534  16.647  0.3975  0.2929 -0.5636
 2143TIP3    H227921   6.678   3.455  16.695  0.8312  0.3865  0.7022
 2144TIP3   OH227922   4.770   3.260   3.537  0.2528 -0.0239  0.5380
 2144TIP3    H127923   4.698   3.319   3.515  2.8085  2.3050 -2.6634
 2144TIP3    H227924   4.736   3.172   3.518 -1.7816  0.9649 -0.7923
 2145TIP3   OH227925   3.818   4.583   2.671 -0.4948  0.6088  0.1697
 2145TIP3    H127926   3.800   4.620   2.757  1.5307 -0.6125  1.2222
 2145TIP3    H227927   3.913   4.594   2.660 -0.4682 -0.6240 -1.2005
 2146TIP3   OH227928   4.765   5.463  11.251  0.4354 -0.1972  0.2913
 2146TIP3    H127929   4.773   5.379  11.205 -0.0893 -0.0897  0.0009
 2146TIP3    H227930   4.752   5.527  11.181  2.0323  0.3083  0.4121
 2147TIP3   OH227931   0.177   2.082  14.806 -0.1925  0.8390  0.2314
 2147TIP3    H127932   0.189   2.112  14.896 -0.7560  1.0518  0.2344
 2147TIP3    H227933   0.082   2.080  14.794 -0.1090  1.2981 -0.5236
 2148TIP3   OH227934   5.895   4.127  15.445  0.6664 -0.5541  0.2528
 2148TIP3    H127935   5.974   4.073  15.435  0.0940 -1.8031  1.9500
 2148TIP3    H227936   5.914   4.182  15.521  1.2892  1.8542 -1.5246
 2149TIP3   OH227937   2.506   1.455  11.724  0.4058 -0.0580 -0.6269
 2149TIP3    H127938   2.527   1.498  11.807  1.4809 -0.3071 -0.7534
 2149TIP3    H227939   2.438   1.509  11.685 -1.9907 -1.2929  1.5527
 2150TIP3   OH227940   3.588   2.284  13.146  0.3543 -0.1408  0.2156
 2150TIP3    H127941   3.594   2.376  13.169 -0.5581 -0.4187  1.6686
 2150TIP3    H227942   3.680   2.254  13.143  0.6156  0.6192  0.5153
 2151TIP3   OH227943   5.595   4.954   5.094  0.0370  0.3262  0.1447
 2151TIP3    H127944   5.579   4.959   5.188 -2.1208  0.7749 -0.1752
 2151TIP3    H227945   5.541   5.024   5.057  0.2343 -0.3293 -1.4762
 2152TIP3   OH227946   1.151   1.345   2.856  0.2748 -0.2101 -0.0487
 2152TIP3    H127947   1.176   1.307   2.940  0.8297 -0.2582 -0.2300
 2152TIP3    H227948   1.068   1.389   2.874  0.0587 -0.7729  0.3659
 2153TIP3   OH227949   1.816   3.526  11.587  0.0194 -0.4694  0.4043
 2153TIP3    H127950   1.881   3.559  11.525 -1.2307  0.4443 -0.4693
 2153TIP3    H227951   1.822   3.431  11.581  1.0715 -0.3970  0.1422
 2154TIP3   OH227952   6.526   5.518  16.782  0.2527 -0.1363 -0.1768
 2154TIP3    H127953   6.454   5.556  16.731  1.3603 -0.3744 -2.0408
 2154TIP3    H227954   6.567   5.593  16.825 -0.3245  0.1708 -0.1518
 2155TIP3   OH227955   6.100   2.237  16.972 -0.0064  0.1864 -0.1153
 2155TIP3    H127956   6.169   2.292  16.935  0.8573 -1.9055 -1.8202
 2155TIP3    H227957   6.088   2.270  17.061  0.7812  2.7583 -0.8773
 2156TIP3   OH227958   0.688   0.507  15.911 -0.1138 -0.1925 -0.2329
 2156TIP3    H127959   0.601   0.503  15.871  0.8459  0.2945 -2.4858
 2156TIP3    H227960   0.683   0.581  15.971 -1.2716 -0.2124 -0.2837
 2157TIP3   OH227961   5.130   1.486   1.931 -0.6443 -0.1141 -0.3503
 2157TIP3    H127962   5.037   1.503   1.918 -0.6207 -1.4416 -2.7856
 2157TIP3    H227963   5.168   1.572   1.947 -2.0555  0.6482 -0.9009
 2158TIP3   OH227964   1.202   2.330  15.334 -0.5270 -0.3613  0.2448
 2158TIP3    H127965   1.185   2.256  15.274  0.0318 -0.7701  0.5792
 2158TIP3    H227966   1.206   2.406  15.277  0.3462 -0.7945 -0.2988
 2159TIP3   OH227967   6.783   0.467  11.680  0.3402 -0.6501 -0.0386
 2159TIP3    H127968   6.845   0.485  11.751  0.5602 -0.2757 -0.3176
 2159TIP3    H227969   6.838   0.467  11.601 -0.4059  3.0947 -0.7651
 2160TIP3   OH227970   1.815   4.751   1.362 -0.2049  0.5250  0.4970
 2160TIP3    H127971   1.881   4.795   1.416  1.3016 -1.5439  0.4331
 2160TIP3    H227972   1.734   4.760   1.413  0.2934  2.2198  1.0698
 2161TIP3   OH227973   6.632   3.549  14.241  0.3974  0.2539  0.1256
 2161TIP3    H127974   6.727   3.553  14.239  0.3524  1.2591 -0.5057
 2161TIP3    H227975   6.609   3.490  14.170  0.5338  0.3659 -0.0118
 2162TIP3   OH227976   5.407   5.149   4.969 -0.2176  0.1168 -0.1577
 2162TIP3    H127977   5.375   5.116   5.053 -0.9871  2.6723  0.6432
 2162TIP3    H227978   5.354   5.227   4.952  1.5537  1.0508 -1.8134
 2163TIP3   OH227979   5.571   2.501   6.290  0.0341  0.1691  0.7429
 2163TIP3    H127980   5.627   2.436   6.247 -0.5704  0.3060 -0.2846
 2163TIP3    H227981   5.576   2.478   6.383  0.0839 -1.1512  0.4416
 2164TIP3   OH227982   1.531   3.873   0.892 -0.1572  0.1110  0.0760
 2164TIP3    H127983   1.527   3.963   0.924  1.2393  0.0737  0.4437
 2164TIP3    H227984   1.543   3.882   0.797  2.5825  0.4536  0.3519
 2165TIP3   OH227985   3.745   0.990   3.788  0.7704  0.1625  0.8461
 2165TIP3    H127986   3.824   0.987   3.844  1.6937 -3.2658 -0.3779
 2165TIP3    H227987   3.672   0.985   3.850  1.6435 -0.2250  1.8821
 2166TIP3   OH227988   0.975   3.557  13.280  0.1866  0.2373  0.1298
 2166TIP3    H127989   0.925   3.503  13.217  0.2615  0.1512  0.1435
 2166TIP3    H227990   0.926   3.639  13.285  0.3081  0.3334 -0.2178
 2167TIP3   OH227991   3.554   2.690   2.390 -0.3462  0.4188  0.1161
 2167TIP3    H127992   3.557   2.618   2.327 -0.6261  0.8139 -0.3452
 2167TIP3    H227993   3.530   2.767   2.339 -2.0947  0.4640  0.9350
 2168TIP3   OH227994   1.298   1.097  14.889  0.5761 -0.1470 -0.0156
 2168TIP3    H127995   1.308   1.007  14.858 -3.1539 -1.2949  1.5004
 2168TIP3    H227996   1.253   1.143  14.818  0.9763  0.0309 -0.1518
 2169TIP3   OH227997   6.739   1.081   2.970 -0.4039  0.0148 -0.3410
 2169TIP3    H127998   6.746   1.169   2.933  2.4343 -0.2638 -0.7480
 2169TIP3    H227999   6.830   1.051   2.975 -0.8047 -1.1139  4.2085
 2170TIP3   OH228000   6.743   2.782   2.929  0.0611 -0.1159  0.0172
 2170TIP3    H128001   6.825   2.734   2.914 -0.4460 -1.5729  1.5560
 2170TIP3    H228002   6.745   2.804   3.022 -0.7784  0.8400 -0.1791
 2171TIP3   OH228003   2.236   1.025  15.070  0.1960  0.0634 -0.1395
 2171TIP3    H128004   2.151   1.046  15.109  0.1270  0.1541 -0.3404
 2171TIP3    H228005   2.282   1.108  15.067 -0.1946  0.2589 -1.2233
 2172TIP3   OH228006   5.804   4.259  16.285 -0.2364  0.5020  0.2204
 2172TIP3    H128007   5.877   4.197  16.291  0.1755  1.0954  1.8131
 2172TIP3    H228008   5.728   4.205  16.266  0.5505 -0.1582 -1.2653
 2173TIP3   OH228009   3.066   6.734  15.826  0.2478 -0.2259  0.3633
 2173TIP3    H128010   3.135   6.670  15.846  0.6431  0.4644  1.2621
 2173TIP3    H228011   3.108   6.799  15.770  1.0363  1.4438  2.7356
 2174TIP3   OH228012   1.052   5.561   3.129  0.2440  0.2284  0.3868
 2174TIP3    H128013   1.014   5.480   3.096  0.4411  0.5932 -0.7802
 2174TIP3    H228014   1.141   5.562   3.094 -0.3382  1.8040 -1.2197
 2175TIP3   OH228015   4.712   0.836   5.871 -0.2363  0.1826  0.2911
 2175TIP3    H128016   4.650   0.774   5.831  0.3412 -0.7587  0.8073
 2175TIP3    H228017   4.730   0.799   5.957 -2.4919  2.8629  2.0694
 2176TIP3   OH228018   3.545   6.334  14.077 -0.0055  0.2239 -0.2547
 2176TIP3    H128019   3.504   6.334  14.163 -1.3434  1.8245 -0.8451
 2176TIP3    H228020   3.638   6.348  14.095  0.1170 -1.8495  1.0145
 2177TIP3   OH228021   2.244   1.439   1.704 -0.1519  0.1468  0.2297
 2177TIP3    H128022   2.262   1.532   1.715 -0.1314  0.4160 -1.7507
 2177TIP3    H228023   2.315   1.407   1.648 -2.3814 -0.0725 -2.7129
 2178TIP3   OH228024   4.627   3.043  10.945 -0.3400  0.4722 -0.3358
 2178TIP3    H128025   4.563   2.972  10.932  0.0386  0.3328 -1.5589
 2178TIP3    H228026   4.605   3.107  10.878  0.0246  1.0087  0.0519
 2179TIP3   OH228027   4.851   2.141  16.488  0.4911  0.2602  0.1083
 2179TIP3    H128028   4.870   2.162  16.579  1.9419 -3.8744  0.9594
 2179TIP3    H228029   4.757   2.123  16.487  0.6942 -1.0481  1.2006
 2180TIP3   OH228030   6.048   3.880   2.260  0.0211 -0.2496 -0.6139
 2180TIP3    H128031   5.960   3.896   2.226  0.2772  0.8440 -0.8072
 2180TIP3    H228032   6.078   3.801   2.215 -0.8323 -0.6062 -0.5817
 2181TIP3   OH228033   2.491   2.405   1.267  0.4104 -0.5467  0.6282
 2181TIP3    H128034   2.396   2.410   1.258  0.3775 -1.1745  0.5562
 2181TIP3    H228035   2.509   2.311   1.278  1.0412 -0.4575  0.4078
 2182TIP3   OH228036   0.083   3.576  14.234 -0.6294 -0.2234  0.0767
 2182TIP3    H128037   0.130   3.504  14.275 -0.0485 -0.5025 -1.0144
 2182TIP3    H228038   0.101   3.565  14.140 -0.0545  1.6385 -0.0731
 2183TIP3   OH228039   1.117   4.280  10.322  0.5604 -0.2163  0.3901
 2183TIP3    H128040   1.211   4.263  10.326  0.3588 -2.0287 -1.0323
 2183TIP3    H228041   1.087   4.230  10.246 -1.3030  1.6691 -0.2142
 2184TIP3   OH228042   4.745   5.982  14.230 -0.4547  0.2537 -0.4050
 2184TIP3    H128043   4.799   5.932  14.291 -2.0089 -0.2422  0.6154
 2184TIP3    H228044   4.669   6.008  14.281  0.1670  3.5510 -0.9266
 2185TIP3   OH228045   3.207   6.035  12.660  0.2051 -0.2414  0.3431
 2185TIP3    H128046   3.188   6.029  12.566  2.0790  0.2788 -0.1048
 2185TIP3    H228047   3.228   5.945  12.686  0.7241 -0.2190  0.0143
 2186TIP3   OH228048   3.965   5.063  15.191 -0.1683  0.4291  0.2887
 2186TIP3    H128049   3.971   5.143  15.242  0.8740  0.3880  0.2429
 2186TIP3    H228050   3.942   4.995  15.254  1.3407  0.3358  0.7606
 2187TIP3   OH228051   1.878   0.475   4.138 -0.1505  0.9583  0.1755
 2187TIP3    H128052   1.867   0.389   4.098 -0.4524  0.6975  0.8153
 2187TIP3    H228053   1.967   0.474   4.175  0.0666  1.1397 -0.3320
 2188TIP3   OH228054   5.841   4.368  15.252  0.0031  0.1638  0.5882
 2188TIP3    H128055   5.922   4.351  15.204 -0.2662  0.1848  0.1217
 2188TIP3    H228056   5.826   4.288  15.302  0.1211  0.0196  0.3966
 2189TIP3   OH228057   0.785   5.190   4.387 -0.2740 -0.4883  0.2776
 2189TIP3    H128058   0.778   5.156   4.476 -1.2011 -1.5931 -0.1932
 2189TIP3    H228059   0.783   5.112   4.331 -0.1523  0.2130 -0.7288
 2190TIP3   OH228060   1.786   5.843   5.731 -0.0092  0.8833 -0.7353
 2190TIP3    H128061   1.743   5.894   5.800  1.3194  2.7351 -1.2085
 2190TIP3    H228062   1.769   5.752   5.755 -1.5885  1.5077  0.7220
 2191TIP3   OH228063   2.547   5.534  11.644 -0.4191 -0.5596 -0.2736
 2191TIP3    H128064   2.586   5.448  11.661  0.4952 -0.0510  0.2302
 2191TIP3    H228065   2.456   5.514  11.620  0.2268 -1.8072 -1.8825
 2192TIP3   OH228066   1.971   1.442  14.158 -0.3442 -0.1415  0.0426
 2192TIP3    H128067   1.915   1.368  14.182  0.5304 -2.0089 -3.0935
 2192TIP3    H228068   1.912   1.503  14.115 -0.5181 -0.7044 -0.5434
 2193TIP3   OH228069   1.313   2.476   0.041  0.4428  0.0622  0.0476
 2193TIP3    H128070   1.329   2.432  -0.042 -2.6109 -0.7778 -0.2285
 2193TIP3    H228071   1.289   2.566   0.016  0.0265 -0.0486  0.0342
 2194TIP3   OH228072   2.334   5.469  15.252 -0.9100 -0.1032 -0.7895
 2194TIP3    H128073   2.376   5.554  15.244 -0.5637 -0.3123 -1.2267
 2194TIP3    H228074   2.241   5.489  15.262 -0.5087  0.5622  3.5586
 2195TIP3   OH228075   1.314   2.831   3.288 -0.0493 -0.0613  0.0706
 2195TIP3    H128076   1.327   2.738   3.306  0.3743  0.4532  2.9542
 2195TIP3    H228077   1.220   2.839   3.270 -0.3707 -0.9196  1.2201
 2196TIP3   OH228078   5.995   4.824  16.557  0.5709 -0.6213 -0.2813
 2196TIP3    H128079   5.982   4.781  16.472  1.6512 -2.3852  0.3964
 2196TIP3    H228080   6.008   4.916  16.535  3.2257 -1.3672 -2.3004
 2197TIP3   OH228081   2.002   4.238   1.986 -0.2148  0.5662 -0.3389
 2197TIP3    H128082   1.957   4.314   1.948 -1.8582 -0.0376  0.3228
 2197TIP3    H228083   1.970   4.234   2.076  0.4055 -0.4990 -0.1500
 2198TIP3   OH228084   5.415   4.097   2.418 -0.4880  0.0802 -0.4284
 2198TIP3    H128085   5.367   4.177   2.439 -2.3989 -1.0910 -0.1148
 2198TIP3    H228086   5.416   4.047   2.499  0.5558 -0.3076 -0.6611
 2199TIP3   OH228087   3.232   5.960   4.304 -0.2958  0.0230 -0.0752
 2199TIP3    H128088   3.197   5.878   4.340 -0.2309 -0.0472 -0.1695
 2199TIP3    H228089   3.177   6.028   4.340 -0.8270 -0.1242 -0.5913
 2200TIP3   OH228090   0.353   5.229  12.671  0.5018  0.3900 -0.1161
 2200TIP3    H128091   0.278   5.267  12.715 -0.0168  0.7048 -1.2379
 2200TIP3    H228092   0.358   5.140  12.706 -1.0893 -0.0187 -0.8451
 2201TIP3   OH228093   1.814   6.799  12.267  0.0452  0.5805 -0.7555
 2201TIP3    H128094   1.909   6.789  12.262  0.3065  2.0345  0.4990
 2201TIP3    H228095   1.794   6.872  12.208  0.0407  1.7793  0.6693
 2202TIP3   OH228096   3.815   0.479  17.030  0.5995  0.1874  0.0736
 2202TIP3    H128097   3.828   0.402  17.086  0.6569  1.4051  1.8016
 2202TIP3    H228098   3.724   0.472  17.001  1.0305 -1.2969 -1.0505
 2203TIP3   OH228099   2.224   2.901   3.676 -0.0820  0.4135  0.3244
 2203TIP3    H128100   2.160   2.901   3.604 -0.8609  2.2696  0.9815
 2203TIP3    H228101   2.182   2.849   3.745  0.2464 -0.5340 -0.1671
 2204TIP3   OH228102   5.455   2.420  11.751 -0.4414  0.3133  0.6251
 2204TIP3    H128103   5.400   2.499  11.752  1.6350  1.8146  0.9210
 2204TIP3    H228104   5.522   2.437  11.685  0.0242 -1.2574  0.6337
 2205TIP3   OH228105   5.159   3.636   4.085 -0.1659  0.5428 -0.1026
 2205TIP3    H128106   5.082   3.588   4.116  0.3896  0.4507  1.2244
 2205TIP3    H228107   5.172   3.605   3.995  0.6879 -2.5126  0.9398
 2206TIP3   OH228108   3.980   2.660  17.087 -0.0826 -0.5417  0.4982
 2206TIP3    H128109   3.916   2.731  17.083 -1.8300 -2.0683 -0.0804
 2206TIP3    H228110   4.063   2.701  17.063 -0.9638  1.3487  0.5038
 2207TIP3   OH228111   4.973   1.897   1.762  0.4923 -0.1371  0.1541
 2207TIP3    H128112   5.067   1.905   1.775  0.6306 -0.6087 -0.5175
 2207TIP3    H228113   4.936   1.906   1.850  1.0730  1.1846  0.2934
 2208TIP3   OH228114   2.148   4.656   4.771 -0.6977  0.3116 -0.1982
 2208TIP3    H128115   2.173   4.713   4.844 -1.7081  0.0064  0.4136
 2208TIP3    H228116   2.229   4.613   4.745 -0.4051  0.0394  1.0964
 2209TIP3   OH228117   4.347   4.328   5.829  0.0184 -0.3916  0.5275
 2209TIP3    H128118   4.390   4.314   5.913  3.8073 -1.4839 -1.3707
 2209TIP3    H228119   4.347   4.423   5.818 -1.7296 -0.1251  2.1958
 2210TIP3   OH228120   2.778   6.640   5.571 -0.2715 -0.0816  0.5435
 2210TIP3    H128121   2.726   6.564   5.597 -2.7919  0.3192 -2.7136
 2210TIP3    H228122   2.802   6.623   5.480  1.3910  1.8487  0.5542
 2211TIP3   OH228123   2.279   4.473   4.021 -0.3539  0.1557  0.0237
 2211TIP3    H128124   2.237   4.419   4.088 -0.7678 -0.4404 -0.6923
 2211TIP3    H228125   2.358   4.424   3.997  0.6553  1.1627  1.2065
 2212TIP3   OH228126   6.092   3.890  12.849 -0.3299 -0.2522 -0.2103
 2212TIP3    H128127   6.065   3.847  12.930  1.2045 -0.7081  0.0965
 2212TIP3    H228128   6.052   3.838  12.780 -3.9200  1.6810  0.1856
 2213TIP3   OH228129   3.732   2.149   4.982 -0.5012 -0.0784  0.4642
 2213TIP3    H128130   3.707   2.106   4.900 -1.1424  1.2367 -0.0566
 2213TIP3    H228131   3.826   2.134   4.990 -0.3125  0.3158 -0.8533
 2214TIP3   OH228132   4.609   1.567  16.151 -0.0394  0.2571 -0.1115
 2214TIP3    H128133   4.519   1.572  16.121 -0.6780 -0.0318  1.6135
 2214TIP3    H228134   4.661   1.554  16.072 -1.5960 -0.4728 -1.0514
 2215TIP3   OH228135   3.684   6.615  15.356  0.0320  0.1787  0.0693
 2215TIP3    H128136   3.730   6.621  15.273  2.1878  1.7949  1.2600
 2215TIP3    H228137   3.706   6.529  15.390  1.6321  0.6115  0.2396
 2216TIP3   OH228138   4.701   4.307   3.457 -0.0349  0.0265  0.1489
 2216TIP3    H128139   4.711   4.236   3.520  0.2085  2.2663  2.7730
 2216TIP3    H228140   4.788   4.319   3.420 -0.3190 -1.7498 -1.3006
 2217TIP3   OH228141   5.580   6.599  15.934 -0.0623 -0.5492 -0.0565
 2217TIP3    H128142   5.552   6.641  16.016  1.0380  0.3095 -0.0998
 2217TIP3    H228143   5.617   6.515  15.962  0.2817 -0.2739  0.3243
 2218TIP3   OH228144   2.148   3.389   5.916  0.3168  0.4216 -0.4038
 2218TIP3    H128145   2.233   3.391   5.959  0.4873  1.1245 -0.7654
 2218TIP3    H228146   2.167   3.377   5.823  0.0106  0.2655 -0.4497
 2219TIP3   OH228147   1.503   0.304   5.044  0.1096  0.1085 -0.1207
 2219TIP3    H128148   1.574   0.359   5.011  0.2331  0.1122  0.1543
 2219TIP3    H228149   1.446   0.363   5.092  1.5447 -0.3904  2.3287
 2220TIP3   OH228150   4.557   3.350  12.793  0.9375  0.2421  0.0615
 2220TIP3    H128151   4.637   3.395  12.766  0.3716  0.3600 -1.5228
 2220TIP3    H228152   4.562   3.264  12.749 -0.7090  0.9966 -1.7569
 2221TIP3   OH228153   6.098   2.718  11.511 -0.1035  0.4455  0.1855
 2221TIP3    H128154   6.059   2.794  11.555 -2.3326 -0.2457 -0.4443
 2221TIP3    H228155   6.039   2.645  11.532 -0.0006 -0.3706 -2.0241
 2222TIP3   OH228156   5.602   0.182  11.855 -0.1209  0.0422  0.5802
 2222TIP3    H128157   5.528   0.152  11.907  1.1094 -1.1265  1.7438
 2222TIP3    H228158   5.617   0.112  11.791 -0.0418  0.2934  0.3171
 2223TIP3   OH228159   1.979   4.167  11.242  0.0438 -0.2836 -0.4902
 2223TIP3    H128160   1.948   4.096  11.298 -0.8397  0.0646 -0.5121
 2223TIP3    H228161   1.947   4.144  11.155 -0.4023  0.2145 -0.4664
 2224TIP3   OH228162   0.539   0.190   2.660 -0.1389  0.1478 -0.6648
 2224TIP3    H128163   0.543   0.206   2.565  0.3269  0.2862 -0.6232
 2224TIP3    H228164   0.604   0.122   2.676 -1.8635 -1.6265 -0.7864
 2225TIP3   OH228165   4.443   4.246   2.659  0.9134 -0.7675  0.3140
 2225TIP3    H128166   4.520   4.301   2.650 -0.3355  0.8356 -1.4589
 2225TIP3    H228167   4.396   4.283   2.734 -0.0805  0.9067 -1.0612
 2226TIP3   OH228168   6.186   5.951   2.436 -0.5458  0.1686 -0.0494
 2226TIP3    H128169   6.119   6.018   2.445 -2.6345 -1.7782 -0.2954
 2226TIP3    H228170   6.150   5.888   2.373  1.8234 -0.6188 -0.7225
 2227TIP3   OH228171   3.020   2.204   3.104 -0.1431  0.0419 -0.8523
 2227TIP3    H128172   3.106   2.219   3.066 -0.1100  2.2338 -0.0570
 2227TIP3    H228173   3.024   2.244   3.191 -1.8913  0.0458 -0.7279
 2228TIP3   OH228174   1.523   2.820  17.161 -0.2304 -0.2037 -0.2004
 2228TIP3    H128175   1.515   2.852  17.251  1.7947 -0.1430 -0.0014
 2228TIP3    H228176   1.531   2.900  17.109  0.3336 -0.2607 -0.2119
 2229TIP3   OH228177   3.606   5.191  14.646  0.4065  0.2139  0.2900
 2229TIP3    H128178   3.528   5.155  14.687  0.0756  0.5927 -0.0064
 2229TIP3    H228179   3.616   5.278  14.685  0.2394  0.4729 -0.2434
 2230TIP3   OH228180   6.752   0.063   0.411  0.0501 -0.0742  0.0500
 2230TIP3    H128181   6.746   0.158   0.399  0.4897 -0.0368  0.1263
 2230TIP3    H228182   6.746   0.028   0.322  2.4121  0.1621 -0.2592
 2231TIP3   OH228183   6.814   5.101   2.778  0.0990  0.7877  0.1340
 2231TIP3    H128184   6.895   5.068   2.817  0.8727 -0.2316 -2.1568
 2231TIP3    H228185   6.822   5.080   2.685 -2.6274  1.0427 -0.2407
 2232TIP3   OH228186   3.659   0.295  13.607  0.1948  0.0729 -0.1354
 2232TIP3    H128187   3.647   0.234  13.679  1.5508 -0.0265  0.0286
 2232TIP3    H228188   3.691   0.241  13.535 -0.2505  0.3272 -0.5367
 2233TIP3   OH228189   5.774   3.130  16.725  0.3247  0.1770 -0.2014
 2233TIP3    H128190   5.678   3.121  16.728  0.4719 -1.5698  0.3374
 2233TIP3    H228191   5.798   3.095  16.639  0.5833 -0.9102  0.2914
 2234TIP3   OH228192   3.015   1.815  14.357  0.3178  0.8244  0.3195
 2234TIP3    H128193   3.016   1.839  14.264 -0.6280  0.4467  0.2004
 2234TIP3    H228194   2.923   1.813  14.380  0.4543 -0.7873  0.8242
 2235TIP3   OH228195   1.608   3.723  13.032 -0.2231 -0.2469 -0.2388
 2235TIP3    H128196   1.567   3.790  12.978  1.4555  1.7537  0.8247
 2235TIP3    H228197   1.644   3.660  12.970  0.4118  1.2222 -1.4238
 2236TIP3   OH228198   3.538   6.567   4.037 -0.2170  0.1430  0.4134
 2236TIP3    H128199   3.577   6.497   3.985  1.7917  0.9924  0.6802
 2236TIP3    H228200   3.506   6.524   4.116 -0.9579 -0.7642 -0.3585
 2237TIP3   OH228201   5.117   0.624  17.129  0.1809  0.6704 -0.3880
 2237TIP3    H128202   5.187   0.585  17.182 -0.5847  1.6051  1.3914
 2237TIP3    H228203   5.114   0.715  17.158 -1.5604  0.7287 -0.6895
 2238TIP3   OH228204   0.733   5.935  12.683 -0.2029  0.2196  0.4784
 2238TIP3    H128205   0.682   5.881  12.743 -0.3775  0.6526  0.7262
 2238TIP3    H228206   0.791   5.874  12.639  1.3332  0.1164  2.4780
 2239TIP3   OH228207   1.132   6.142  11.754 -0.6224 -1.1124  0.6512
 2239TIP3    H128208   1.048   6.172  11.721 -1.3546 -2.1878  1.4667
 2239TIP3    H228209   1.147   6.058  11.711 -0.4505 -1.3899  1.2313
 2240TIP3   OH228210   0.830   5.896  13.797 -0.0213  0.1958  0.2271
 2240TIP3    H128211   0.846   5.990  13.789 -0.7389  0.1720 -2.8824
 2240TIP3    H228212   0.746   5.890  13.842 -0.7650  1.1642 -0.9678
 2241TIP3   OH228213   6.026   6.331  13.233 -0.2834  0.4872 -0.7154
 2241TIP3    H128214   5.978   6.249  13.234  0.3553  0.0998 -1.2204
 2241TIP3    H228215   6.050   6.345  13.141 -1.3751  1.8301 -0.8256
 2242TIP3   OH228216   5.961   2.637   4.790 -0.4160 -0.3751  0.1319
 2242TIP3    H128217   6.056   2.638   4.800 -0.2375 -2.5436 -0.8765
 2242TIP3    H228218   5.947   2.641   4.696 -1.3854  0.7785  0.3010
 2243TIP3   OH228219   1.020   1.025  13.524  0.3042  0.5756  0.2249
 2243TIP3    H128220   0.973   0.975  13.590 -2.0465 -1.2703 -2.5813
 2243TIP3    H228221   1.102   0.976  13.510 -0.0836 -0.1317  0.4060
 2244TIP3   OH228222   1.809   5.082  14.531  0.0507  0.7157 -0.7655
 2244TIP3    H128223   1.888   5.095  14.583  0.3118 -2.2460 -0.2263
 2244TIP3    H228224   1.771   5.170  14.521  2.4826  1.9832  0.3830
 2245TIP3   OH228225   0.338   3.689  17.279  0.1274 -0.4501 -0.5965
 2245TIP3    H128226   0.265   3.648  17.234  0.1048  1.1569 -2.1726
 2245TIP3    H228227   0.309   3.698  17.370 -0.6828 -1.8905 -0.6893
 2246TIP3   OH228228   3.522   2.906  12.516  0.3250 -0.2368  0.1345
 2246TIP3    H128229   3.430   2.906  12.540  0.6250  1.6765  1.5276
 2246TIP3    H228230   3.523   2.903  12.421 -1.1619 -0.2346  0.1078
 2247TIP3   OH228231   4.347   2.291  11.702  0.6642 -0.6095  0.5694
 2247TIP3    H128232   4.439   2.264  11.694  1.0685  0.6849  0.5886
 2247TIP3    H228233   4.310   2.232  11.768  1.0160 -2.2512 -0.6415
 2248TIP3   OH228234   1.810   1.763  16.906  0.0422  0.4615  0.3919
 2248TIP3    H128235   1.792   1.775  16.812  1.4440 -0.9061 -0.0910
 2248TIP3    H228236   1.729   1.790  16.949 -1.4296 -0.8757 -1.3485
 2249TIP3   OH228237   2.174   6.542   5.636 -0.1505  0.5049  0.0969
 2249TIP3    H128238   2.146   6.493   5.559  0.5248 -0.5431  0.4978
 2249TIP3    H228239   2.137   6.494   5.710 -1.0088  1.6443  0.4330
 2250TIP3   OH228240   6.344   3.510   5.024  0.2657 -0.4190 -0.1273
 2250TIP3    H128241   6.368   3.588   4.973  0.1124 -0.0816  0.3075
 2250TIP3    H228242   6.428   3.468   5.044  0.3275 -0.5511 -0.6494
 2251TIP3   OH228243   0.722   3.884  12.947  0.0084 -0.0056 -0.1260
 2251TIP3    H128244   0.752   3.800  12.983 -0.3527  0.7265  2.0268
 2251TIP3    H228245   0.643   3.905  12.997 -0.6195  1.0387 -1.4966
 2252TIP3   OH228246   5.594   0.531   4.779  0.2924  0.0727 -0.0414
 2252TIP3    H128247   5.627   0.606   4.829 -0.0839 -0.0101  0.3394
 2252TIP3    H228248   5.618   0.455   4.831  0.0534 -0.0267 -0.0767
 2253TIP3   OH228249   5.424   1.315   0.670  0.1540 -0.0561  0.2932
 2253TIP3    H128250   5.423   1.391   0.611  3.0823 -0.0532  0.1249
 2253TIP3    H228251   5.502   1.266   0.646 -1.1287 -2.6772  1.0592
 2254TIP3   OH228252   3.381   3.597   3.947  0.1197 -0.0319 -0.2444
 2254TIP3    H128253   3.295   3.634   3.925  0.4778  2.2050  1.6611
 2254TIP3    H228254   3.440   3.634   3.880 -0.3325 -1.5474 -1.5380
 2255TIP3   OH228255   3.128   6.041  15.153  1.3382 -0.6543 -0.4956
 2255TIP3    H128256   3.094   6.083  15.074  1.5720  0.5673  0.0247
 2255TIP3    H228257   3.069   5.968  15.169 -1.5961  1.7781  0.7795
 2256TIP3   OH228258   6.173   3.399   5.201 -0.4627  0.3086  0.0828
 2256TIP3    H128259   6.226   3.451   5.141 -1.8207 -0.4933 -1.9533
 2256TIP3    H228260   6.139   3.462   5.265 -0.2168  1.5057 -0.9383
 2257TIP3   OH228261   4.330   4.228  11.590  0.1099  0.5506 -0.2332
 2257TIP3    H128262   4.249   4.178  11.596  2.2004 -3.1081 -0.0009
 2257TIP3    H228263   4.333   4.279  11.671 -1.5424  0.1844  0.0958
 2258TIP3   OH228264   1.816   1.636  13.532 -0.6445  0.1548  0.4752
 2258TIP3    H128265   1.734   1.668  13.495 -1.5581 -2.1673  0.2784
 2258TIP3    H228266   1.802   1.639  13.627  0.1423  2.2900  0.5776
 2259TIP3   OH228267   5.554   3.707  11.424 -0.1816  0.1480  0.0771
 2259TIP3    H128268   5.562   3.787  11.476  3.2148  0.6102 -0.8787
 2259TIP3    H228269   5.541   3.738  11.335 -0.0622 -0.4049 -0.1344
 2260TIP3   OH228270   6.778   1.315   0.242  0.0351  0.5733 -0.1223
 2260TIP3    H128271   6.829   1.264   0.179  1.4957  1.1164  0.5723
 2260TIP3    H228272   6.690   1.278   0.237  0.7249 -1.1015 -0.6279
 2261TIP3   OH228273   0.565   5.995   2.849  0.1264  0.0698 -0.4253
 2261TIP3    H128274   0.621   6.000   2.926  1.8107 -0.4289 -1.5597
 2261TIP3    H228275   0.599   6.061   2.789 -0.3233 -0.4070 -1.2352
 2262TIP3   OH228276   5.766   6.125   4.725  0.7323 -0.1000  0.0231
 2262TIP3    H128277   5.766   6.220   4.715  3.6665 -0.1920 -2.2961
 2262TIP3    H228278   5.713   6.093   4.652  0.6010 -0.2494  0.1840
 2263TIP3   OH228279   2.517   1.670   2.320 -0.0776  0.2634  0.1125
 2263TIP3    H128280   2.519   1.586   2.365  1.3986  0.0759 -0.2645
 2263TIP3    H228281   2.469   1.652   2.239  1.5553 -0.6235 -0.6951
 2264TIP3   OH228282   3.275   0.267  12.899 -0.4261  0.2051  0.0279
 2264TIP3    H128283   3.313   0.188  12.859  0.4166  0.6546 -0.0781
 2264TIP3    H228284   3.321   0.276  12.983  3.0780  3.1829 -1.8920
 2265TIP3   OH228285   0.253   2.994   1.021 -0.1323  0.1062 -0.4260
 2265TIP3    H128286   0.170   2.999   0.974 -1.5024 -2.0751  1.5440
 2265TIP3    H228287   0.305   2.932   0.971 -0.2507  0.3530 -0.8626
 2266TIP3   OH228288   2.659   4.934  12.686  0.0095 -0.1977  0.3211
 2266TIP3    H128289   2.706   5.017  12.680  0.6027 -0.4152  1.5042
 2266TIP3    H228290   2.567   4.958  12.674  0.4036  0.1153 -2.9473
 2267TIP3   OH228291   2.069   1.307   5.212 -0.0573  0.0619  0.0990
 2267TIP3    H128292   2.008   1.336   5.143  1.3270 -2.1952 -2.2282
 2267TIP3    H228293   2.094   1.388   5.257 -5.0074  1.1176  1.5786
 2268TIP3   OH228294   0.425   2.238   6.330 -0.0788 -0.5476  0.1218
 2268TIP3    H128295   0.518   2.252   6.346 -0.0420  2.1284 -1.7763
 2268TIP3    H228296   0.411   2.271   6.241 -2.7814 -1.2172  0.2215
 2269TIP3   OH228297   4.473   2.005   2.774 -0.1371  0.2738  0.6376
 2269TIP3    H128298   4.382   2.026   2.794 -0.7504  0.9487 -2.3596
 2269TIP3    H228299   4.470   1.918   2.734  0.2747  0.8954 -0.8147
 2270TIP3   OH228300   5.142   2.109  11.853 -0.0528 -0.4279  1.0169
 2270TIP3    H128301   5.057   2.126  11.893 -0.1190 -3.0351  2.1527
 2270TIP3    H228302   5.133   2.023  11.813  0.6321  1.1427 -3.0952
 2271TIP3   OH228303   4.699   5.406  14.670  0.0486  0.1547  0.2463
 2271TIP3    H128304   4.721   5.315  14.693  1.7496 -0.0047 -1.7218
 2271TIP3    H228305   4.627   5.398  14.608  0.4457  0.1078 -0.2148
 2272TIP3   OH228306   1.402   6.296   4.130  0.2463 -0.9248  0.1917
 2272TIP3    H128307   1.488   6.326   4.159  0.1496 -1.2958  0.8968
 2272TIP3    H228308   1.344   6.372   4.143  0.4864 -0.6413 -0.3893
 2273TIP3   OH228309   1.108   2.403  16.377 -0.1075  0.3663 -0.0498
 2273TIP3    H128310   1.119   2.308  16.385  0.2677  0.3130 -1.1186
 2273TIP3    H228311   1.045   2.425  16.446 -1.0158 -0.8211 -0.4623
 2274TIP3   OH228312   6.315   4.352  13.648  0.5050  0.5437  0.4758
 2274TIP3    H128313   6.257   4.399  13.588  1.2000 -0.3343 -0.9456
 2274TIP3    H228314   6.349   4.279  13.596  1.0035 -0.3671  2.0079
 2275TIP3   OH228315   2.925   2.246   1.452 -0.1686  0.1458 -0.4259
 2275TIP3    H128316   2.852   2.307   1.437 -0.3603 -0.1394 -0.6708
 2275TIP3    H228317   2.986   2.264   1.381  0.5513  1.1862  0.4334
 2276TIP3   OH228318   1.545   4.095   2.550  0.1462  0.1328  0.0126
 2276TIP3    H128319   1.451   4.093   2.532  0.5006 -1.7605 -2.0774
 2276TIP3    H228320   1.561   4.015   2.600  0.4857  1.1676  1.6364
 2277TIP3   OH228321   2.268   3.876  15.564 -0.7968 -0.8350 -0.3542
 2277TIP3    H128322   2.319   3.930  15.625 -2.6897  1.0230 -0.3085
 2277TIP3    H228323   2.321   3.797  15.552  0.9139 -0.0693  1.5540
 2278TIP3   OH228324   5.813   1.596  14.020  0.2374  0.5993  0.3999
 2278TIP3    H128325   5.883   1.614  13.957  0.5358  1.0791  0.8611
 2278TIP3    H228326   5.740   1.652  13.993 -0.1808 -0.3270 -0.4268
 2279TIP3   OH228327   6.495   4.165  13.066 -0.4718  0.4046  0.2832
 2279TIP3    H128328   6.403   4.155  13.091 -0.6778  2.3453  0.4339
 2279TIP3    H228329   6.526   4.240  13.118  0.2815  1.8399 -2.0935
 2280TIP3   OH228330   5.473   4.223   5.405 -0.3150 -0.0268  0.2076
 2280TIP3    H128331   5.380   4.215   5.383 -0.8158  2.3897  1.0586
 2280TIP3    H228332   5.494   4.314   5.384  1.8213 -0.4601  0.2518
 2281TIP3   OH228333   3.607   6.708   0.809  0.4768  0.1303  0.0510
 2281TIP3    H128334   3.669   6.769   0.770  0.0570 -0.1123 -1.0378
 2281TIP3    H228335   3.600   6.637   0.746 -1.8567  0.7573 -0.5015
 2282TIP3   OH228336   2.036   0.743  12.113 -0.1878 -0.2240  0.0936
 2282TIP3    H128337   2.097   0.734  12.040  0.7418  1.4903  0.5997
 2282TIP3    H228338   2.018   0.653  12.140 -0.4283 -0.8736 -2.1079
 2283TIP3   OH228339   1.579   2.352   4.112 -0.1581  0.2150 -0.4733
 2283TIP3    H128340   1.640   2.288   4.148 -2.4911 -1.3673  0.9604
 2283TIP3    H228341   1.619   2.437   4.132  0.4513 -0.6875  2.7194
 2284TIP3   OH228342   4.166   3.241  11.168  0.3212 -0.3407 -0.0971
 2284TIP3    H128343   4.133   3.331  11.175  0.4300 -0.3870  1.0974
 2284TIP3    H228344   4.189   3.232  11.075  0.5379  0.9379 -0.1905
 2285TIP3   OH228345   5.565   5.947   3.977 -0.3263  0.0850 -0.1710
 2285TIP3    H128346   5.521   5.862   3.973 -0.3100  0.1208 -3.3418
 2285TIP3    H228347   5.658   5.926   3.968  0.2399  0.2323  3.6308
 2286TIP3   OH228348   0.988   4.675  16.872 -0.2639  0.3090 -0.1804
 2286TIP3    H128349   1.033   4.610  16.927 -0.8521 -0.7725 -0.9450
 2286TIP3    H228350   0.912   4.701  16.924 -1.4308 -1.5285 -0.8696
 2287TIP3   OH228351   6.069   3.168   2.972 -0.2638  0.2924 -0.1082
 2287TIP3    H128352   6.159   3.165   3.004 -0.1089  0.6338 -0.5131
 2287TIP3    H228353   6.022   3.107   3.029  0.2021  0.1810  0.1635
 2288TIP3   OH228354   0.857   6.053   2.227  0.2256  0.0308 -0.5168
 2288TIP3    H128355   0.911   6.100   2.291  1.7471 -1.3641 -0.6787
 2288TIP3    H228356   0.836   5.970   2.270 -0.6971  0.0147 -0.9748
 2289TIP3   OH228357   2.711   1.249  12.725 -0.5719  0.1956 -0.0640
 2289TIP3    H128358   2.674   1.338  12.723 -0.5612  0.2639  1.3807
 2289TIP3    H228359   2.772   1.251  12.800 -0.1009 -0.8522 -0.4080
 2290TIP3   OH228360   2.890   4.624   1.069  0.3202  0.1138  0.4812
 2290TIP3    H128361   2.881   4.636   0.975 -0.8410  2.0924  0.7783
 2290TIP3    H228362   2.830   4.553   1.091  0.8458 -0.5821 -0.2921
 2291TIP3   OH228363   1.909   0.586  10.963  0.0125  0.5343  0.4271
 2291TIP3    H128364   1.973   0.604  11.032  0.7065 -0.7223  0.1302
 2291TIP3    H228365   1.841   0.653  10.976  0.8432  1.2235  1.4097
 2292TIP3   OH228366   4.279   0.877   1.867 -0.0117  0.3200 -0.2747
 2292TIP3    H128367   4.187   0.897   1.878  0.0217  0.6071 -0.5013
 2292TIP3    H228368   4.315   0.953   1.820  0.4569  0.4656  0.3155
 2293TIP3   OH228369   6.318   4.649  11.308  0.1283 -0.4716  0.4887
 2293TIP3    H128370   6.358   4.606  11.232 -0.1095  0.0913  0.0302
 2293TIP3    H228371   6.233   4.606  11.318  1.1599 -2.3097  2.0339
 2294TIP3   OH228372   2.870   0.997   2.873  0.4284 -0.1369  0.1456
 2294TIP3    H128373   2.800   0.948   2.831  0.7312 -1.5706  1.2387
 2294TIP3    H228374   2.945   0.937   2.875  1.3287  0.9356  0.0797
 2295TIP3   OH228375   5.452   4.278  15.730  0.4238 -0.3784  0.2870
 2295TIP3    H128376   5.364   4.314  15.731  0.3484 -0.5480  1.7683
 2295TIP3    H228377   5.507   4.351  15.702 -0.1132 -0.1179 -0.1171
 2296TIP3   OH228378   2.125   4.035  17.113  0.6204  0.3648  0.0936
 2296TIP3    H128379   2.194   3.968  17.122  0.0042 -0.9521 -3.3286
 2296TIP3    H228380   2.044   3.989  17.134  0.3397  0.4689 -0.7357
 2297TIP3   OH228381   1.935   2.321  14.054 -0.2880  0.0069 -0.1288
 2297TIP3    H128382   1.930   2.372  14.134 -1.3471  0.5650 -0.5291
 2297TIP3    H228383   1.964   2.235  14.082  2.1813  0.9530  0.4948
 2298TIP3   OH228384   4.456   6.047  17.096 -0.3618 -0.4724  0.4734
 2298TIP3    H128385   4.428   6.133  17.127  1.7580  1.7109 -2.9205
 2298TIP3    H228386   4.534   6.027  17.148  0.2136  0.6318  0.0782
 2299TIP3   OH228387   1.466   6.483   3.105  0.1051 -0.3480 -0.1595
 2299TIP3    H128388   1.540   6.544   3.106 -0.5355  0.4402  0.4873
 2299TIP3    H228389   1.466   6.445   3.194  0.2805 -1.0317 -0.4439
 2300TIP3   OH228390   3.901   2.306   5.599 -0.2880  0.4571  0.2061
 2300TIP3    H128391   3.954   2.251   5.542  1.9318  1.0750  1.5406
 2300TIP3    H228392   3.922   2.274   5.687 -3.0412  0.0107  0.7767
 2301TIP3   OH228393   3.460   2.155   2.712 -0.0444  0.4294 -0.1467
 2301TIP3    H128394   3.523   2.170   2.783 -2.1690  0.7513  1.8010
 2301TIP3    H228395   3.415   2.239   2.702  1.5032  1.0328 -3.3843
 2302TIP3   OH228396   2.387   4.921   4.033  0.0735  0.2275  0.2844
 2302TIP3    H128397   2.425   4.894   4.116  1.2540 -2.4176 -0.9924
 2302TIP3    H228398   2.348   4.842   3.997 -0.1184  1.2033 -1.8287
 2303TIP3   OH228399   3.869   4.129   0.728  0.4707 -0.0007  0.5022
 2303TIP3    H128400   3.931   4.158   0.795  0.9395 -0.3085  0.2100
 2303TIP3    H228401   3.830   4.049   0.764  0.7008 -0.1492  0.4232
 2304TIP3   OH228402   3.091   4.100  13.785  0.1951 -0.2990  0.0953
 2304TIP3    H128403   3.137   4.018  13.806  0.5769  0.2235  1.3929
 2304TIP3    H228404   3.134   4.133  13.707 -0.1233 -1.4510 -0.5923
 2305TIP3   OH228405   0.476   5.336  13.015  0.2288  0.3243  0.3839
 2305TIP3    H128406   0.564   5.349  13.050  0.9729 -1.5211 -0.6957
 2305TIP3    H228407   0.466   5.242  13.008 -1.8073  0.5017  0.3605
 2306TIP3   OH228408   2.529   2.490  15.134 -0.2189 -0.0478 -0.0692
 2306TIP3    H128409   2.434   2.486  15.119  0.0362 -0.4962 -1.8777
 2306TIP3    H228410   2.567   2.451  15.055  1.4833  0.0570  0.6514
 2307TIP3   OH228411   4.662   1.524  16.899 -0.3958  0.0756  0.1403
 2307TIP3    H128412   4.682   1.617  16.883 -0.8174  0.2130  0.3969
 2307TIP3    H228413   4.576   1.525  16.942 -1.1821 -0.5351 -1.3542
 2308TIP3   OH228414   6.010   6.137   3.092 -0.3683  0.6135 -0.6626
 2308TIP3    H128415   6.069   6.211   3.105  1.3417 -0.0051 -3.8761
 2308TIP3    H228416   5.925   6.168   3.124  0.9575  2.6821  1.1828
 2309TIP3   OH228417   2.833   5.013   5.217 -0.1469 -0.7841 -1.1485
 2309TIP3    H128418   2.787   4.967   5.147 -2.3462 -0.6293  0.0829
 2309TIP3    H228419   2.843   4.947   5.286 -1.4593 -0.0237 -0.1764
 2310TIP3   OH228420   4.552   0.081   4.258  0.4315  0.0098  0.1473
 2310TIP3    H128421   4.584   0.155   4.206  0.8328 -1.0110 -1.1034
 2310TIP3    H228422   4.526   0.016   4.194  0.1375 -0.9780  1.2307
 2311TIP3   OH228423   1.730   1.543   1.138  0.3051 -0.0381  0.0254
 2311TIP3    H128424   1.670   1.492   1.083  0.6058  1.1850 -1.5086
 2311TIP3    H228425   1.673   1.594   1.195 -0.0436 -0.4513  0.0514
 2312TIP3   OH228426   0.181   2.130  13.045  0.4133 -0.0603  0.3066
 2312TIP3    H128427   0.177   2.050  12.993 -3.1762 -0.7183  1.2701
 2312TIP3    H228428   0.257   2.119  13.101  0.3841 -2.5315 -0.0303
 2313TIP3   OH228429   4.780   6.221   2.169  0.3151  0.3394 -0.0598
 2313TIP3    H128430   4.776   6.149   2.232  1.3196 -2.0800 -2.5529
 2313TIP3    H228431   4.873   6.238   2.156  0.1920 -0.2456 -1.9301
 2314TIP3   OH228432   2.046   2.573   4.100 -0.6131 -0.2465 -0.0190
 2314TIP3    H128433   2.129   2.560   4.054 -0.5463 -2.6579  0.6364
 2314TIP3    H228434   1.987   2.507   4.062 -2.5742  1.9853 -1.0995
 2315TIP3   OH228435   2.424   0.371  15.590 -0.0094 -0.8228 -0.7167
 2315TIP3    H128436   2.409   0.324  15.672  2.0641 -0.1956  0.0802
 2315TIP3    H228437   2.432   0.303  15.523 -0.8870 -1.3793 -0.2643
 2316TIP3   OH228438   6.676   6.516   2.017  0.5012 -0.0708  0.1552
 2316TIP3    H128439   6.701   6.499   1.927 -0.0483 -0.6555  0.0985
 2316TIP3    H228440   6.755   6.548   2.059  0.9544 -0.5056 -0.3571
 2317TIP3   OH228441   3.549   4.521  13.146  0.1791 -0.2083 -0.0599
 2317TIP3    H128442   3.580   4.535  13.056 -1.9275 -0.7279 -0.9245
 2317TIP3    H228443   3.471   4.576  13.152 -0.7237 -1.5490  0.8484
 2318TIP3   OH228444   1.142   0.284  13.336  0.2801  0.9660  0.2709
 2318TIP3    H128445   1.176   0.287  13.425 -0.1055  0.7141  0.4301
 2318TIP3    H228446   1.203   0.337  13.285  0.2212  1.5208  0.7717
 2319TIP3   OH228447   3.701   2.093   5.582  0.3118 -0.5434 -0.6504
 2319TIP3    H128448   3.729   2.059   5.497 -0.6316  1.5580 -1.8979
 2319TIP3    H228449   3.750   2.174   5.592 -0.1210 -0.4087  0.4765
 2320TIP3   OH228450   0.226   0.810   0.020 -0.1100 -0.7704  0.3521
 2320TIP3    H128451   0.234   0.876  -0.048 -0.1396  2.4550  3.2278
 2320TIP3    H228452   0.309   0.762   0.017  0.5499  0.3940 -0.8685
 2321TIP3   OH228453   3.442   6.192   5.127 -0.5211 -0.3966 -0.0110
 2321TIP3    H128454   3.351   6.194   5.159  0.0622 -1.5029  1.8773
 2321TIP3    H228455   3.472   6.283   5.134 -0.7494 -0.4233  1.7259
 2322TIP3   OH228456   2.244   4.875  14.952  0.1688 -0.2630  0.2868
 2322TIP3    H128457   2.149   4.868  14.959  0.2454 -1.2121  0.4472
 2322TIP3    H228458   2.258   4.953  14.899 -0.7703 -1.4233 -1.7891
 2323TIP3   OH228459   6.365   5.758  13.758 -0.2302  0.5443  0.1109
 2323TIP3    H128460   6.352   5.793  13.670  1.0674 -0.4978 -0.5399
 2323TIP3    H228461   6.287   5.705  13.775 -1.1011  1.8068  0.1471
 2324TIP3   OH228462   4.364   4.470   1.099  0.4542 -0.0817 -0.1502
 2324TIP3    H128463   4.319   4.420   1.167  0.8564  0.5603  0.6060
 2324TIP3    H228464   4.317   4.450   1.018  0.1696 -1.1049  0.2646
 2325TIP3   OH228465   6.371   5.894  14.883 -0.5996  0.5997  0.0238
 2325TIP3    H128466   6.291   5.897  14.830 -0.2487  1.0160 -0.4848
 2325TIP3    H228467   6.439   5.930  14.827  0.9640 -3.8349 -1.3104
 2326TIP3   OH228468   2.335   1.172  13.074  0.6919 -0.0905 -0.4734
 2326TIP3    H128469   2.378   1.154  13.157  1.7910 -0.9666 -1.2021
 2326TIP3    H228470   2.248   1.133  13.084  0.7231  0.0211  0.3349
 2327TIP3   OH228471   6.273   2.521   1.826  0.4014 -0.7937  0.4295
 2327TIP3    H128472   6.252   2.428   1.836 -1.6936 -0.9728 -3.6492
 2327TIP3    H228473   6.345   2.523   1.763  1.1797  0.3749  1.3240
 2328TIP3   OH228474   6.585   0.794   5.598  0.0055  0.1292  0.7571
 2328TIP3    H128475   6.561   0.718   5.651  0.2541 -0.2142  0.3842
 2328TIP3    H228476   6.617   0.859   5.661 -0.1225 -0.1101  1.0688
 2329TIP3   OH228477   0.372   3.668   0.270  0.0829 -0.0107  0.1565
 2329TIP3    H128478   0.346   3.699   0.356  0.1830  0.0237  0.1747
 2329TIP3    H228479   0.290   3.654   0.223 -0.0173 -1.0724  0.6162
 2330TIP3   OH228480   4.717   0.082  17.021  0.3897  0.1654  0.0827
 2330TIP3    H128481   4.682   0.034  16.945  0.1989  0.4815 -0.0319
 2330TIP3    H228482   4.689   0.031  17.097  1.8157 -0.9701 -0.0959
 2331TIP3   OH228483   5.877   1.722   2.097  0.0222 -0.1479 -0.0195
 2331TIP3    H128484   5.802   1.744   2.153 -0.1356 -0.6057 -0.0469
 2331TIP3    H228485   5.887   1.797   2.039 -0.2873  0.0008  0.1191
 2332TIP3   OH228486   3.714   1.628  16.008  0.3744  0.0824  0.5019
 2332TIP3    H128487   3.784   1.593  15.954  0.2037  1.8597 -0.9569
 2332TIP3    H228488   3.634   1.603  15.963  0.2136  1.1948  0.1448
 2333TIP3   OH228489   1.674   2.294  17.070  0.1939  0.2369 -0.2364
 2333TIP3    H128490   1.640   2.242  16.997 -1.6302 -1.6510  1.7998
 2333TIP3    H228491   1.758   2.326  17.039  0.9260 -3.0178 -2.1186
 2334TIP3   OH228492   0.088   1.088   1.231  0.3376  0.2701 -0.7275
 2334TIP3    H128493   0.029   1.133   1.291  0.0531 -1.0315 -0.0102
 2334TIP3    H228494   0.071   0.995   1.245  2.1269 -0.1274 -0.9443
 2335TIP3   OH228495   2.036   6.679  14.779 -0.1334  0.6320 -0.5300
 2335TIP3    H128496   2.085   6.608  14.737 -1.9699 -0.3871 -1.0524
 2335TIP3    H228497   2.029   6.652  14.870 -3.4382 -1.5574 -1.2535
 2336TIP3   OH228498   5.175   3.790   0.054 -0.7471 -0.1301  0.0551
 2336TIP3    H128499   5.194   3.738  -0.024  1.6868  1.3749 -0.4473
 2336TIP3    H228500   5.090   3.830   0.035 -1.6309 -2.1260 -0.4723
 2337TIP3   OH228501   1.375   3.077  13.785 -0.3381 -0.2697 -0.7719
 2337TIP3    H128502   1.409   3.155  13.830 -0.2121 -1.4279  1.2326
 2337TIP3    H228503   1.429   3.069  13.707  0.4598  0.9459 -0.3763
 2338TIP3   OH228504   0.764   2.034  16.913 -0.1953 -0.7501 -0.1899
 2338TIP3    H128505   0.823   2.089  16.965  0.4686 -1.2803 -0.3757
 2338TIP3    H228506   0.684   2.030  16.964 -0.1951  0.2373 -0.0788
 2339TIP3   OH228507   5.128   3.355  12.716  0.1920  0.1033 -0.0875
 2339TIP3    H128508   5.216   3.384  12.740  0.0426  0.0642  0.5350
 2339TIP3    H228509   5.102   3.298  12.789 -0.1760 -0.2358 -0.4805
 2340TIP3   OH228510   1.196   5.593  12.314 -0.0888 -0.1868  0.4612
 2340TIP3    H128511   1.196   5.597  12.409  0.9111  0.0246  0.4680
 2340TIP3    H228512   1.260   5.524  12.293  0.8639  0.8220 -0.0655
 2341TIP3   OH228513   4.154   0.638   2.431 -0.4529  0.5160 -0.2520
 2341TIP3    H128514   4.216   0.576   2.471 -1.7414 -0.9460 -0.4399
 2341TIP3    H228515   4.210   0.700   2.383  0.8623 -1.8231 -1.9573
 2342TIP3   OH228516   5.624   2.086  15.228  0.0811 -0.0896 -0.2845
 2342TIP3    H128517   5.604   2.085  15.321 -1.3020  1.0363 -0.5280
 2342TIP3    H228518   5.638   1.994  15.204  0.5201 -0.3761  1.0271
 2343TIP3   OH228519   5.464   2.071   5.896 -0.2761 -0.2018 -0.5425
 2343TIP3    H128520   5.537   2.019   5.862 -1.7656 -1.6365 -1.7204
 2343TIP3    H228521   5.447   2.034   5.982  0.3274  0.0889 -0.2928
 2344TIP3   OH228522   3.298   1.922  11.322  0.0455  0.2579 -0.7267
 2344TIP3    H128523   3.252   1.872  11.254 -1.7136  0.6510  0.1269
 2344TIP3    H228524   3.391   1.909  11.302 -0.3323 -2.7317 -0.9863
 2345TIP3   OH228525   1.815   3.884   2.603 -0.1535  0.1216  0.1414
 2345TIP3    H128526   1.832   3.803   2.555 -0.2598 -0.1943  0.6329
 2345TIP3    H228527   1.844   3.953   2.543 -2.6111 -0.1105 -1.4457
 2346TIP3   OH228528   5.211   5.781  16.335  0.2517 -0.6412 -0.2576
 2346TIP3    H128529   5.136   5.736  16.295 -0.9544  2.2933 -1.5992
 2346TIP3    H228530   5.283   5.766  16.275 -0.1273 -0.8149 -0.6783
 2347TIP3   OH228531   2.044   3.852  14.582  0.1714 -0.2314  0.1986
 2347TIP3    H128532   2.069   3.944  14.571 -0.1281 -0.1723 -0.0109
 2347TIP3    H228533   1.949   3.855  14.596 -0.4418 -0.7016 -3.0463
 2348TIP3   OH228534   1.422   2.398  12.318 -0.2549 -0.0211 -0.2115
 2348TIP3    H128535   1.499   2.414  12.373 -0.0251 -1.4516 -0.0883
 2348TIP3    H228536   1.449   2.327  12.259 -1.1368  0.1767 -0.8697
 2349TIP3   OH228537   6.178   5.694  14.372  0.5629 -0.4578 -0.0643
 2349TIP3    H128538   6.220   5.650  14.298 -0.7383  0.1327 -1.1997
 2349TIP3    H228539   6.142   5.623  14.424 -2.0971 -0.8567 -2.2237
 2350TIP3   OH228540   6.558   3.461  11.269 -0.4109 -0.0108  0.1112
 2350TIP3    H128541   6.493   3.431  11.332 -1.0809 -0.4055 -0.7483
 2350TIP3    H228542   6.570   3.554  11.288  0.3523 -0.3990  1.6378
 2351TIP3   OH228543   0.336   3.146   3.058  0.4005  0.1040 -0.5211
 2351TIP3    H128544   0.293   3.062   3.047  1.1329 -0.3180 -0.2200
 2351TIP3    H228545   0.320   3.170   3.149 -0.7401  0.8308 -0.8873
 2352TIP3   OH228546   3.340   1.812  14.779 -0.5636  0.2467  0.7161
 2352TIP3    H128547   3.253   1.821  14.739 -1.5299  0.2710  2.6864
 2352TIP3    H228548   3.364   1.901  14.804  0.7291  0.4526 -1.1160
 2353TIP3   OH228549   2.353   4.925   3.345  0.1514  0.4718 -0.5333
 2353TIP3    H128550   2.315   4.845   3.309 -0.2750 -0.2211  1.3483
 2353TIP3    H228551   2.277   4.980   3.366  0.1310 -0.4227  2.1224
 2354TIP3   OH228552   2.421   1.766  11.970  0.4788  0.4337 -0.9062
 2354TIP3    H128553   2.423   1.823  11.893 -0.6283  0.7923 -0.6805
 2354TIP3    H228554   2.494   1.706  11.956  1.2230  1.4391 -1.5075
 2355TIP3   OH228555   5.260   3.672  12.020 -0.3918  0.2674  0.1023
 2355TIP3    H128556   5.301   3.609  11.962  0.6567  1.7177 -0.8013
 2355TIP3    H228557   5.325   3.688  12.088 -1.1349 -0.4995  1.0305
 2356TIP3   OH228558   6.136   3.976   0.138  1.0901  0.4986  0.6207
 2356TIP3    H128559   6.075   3.986   0.212  2.2203  4.3558  1.2594
 2356TIP3    H228560   6.083   3.989   0.060  0.7164  1.6543  1.0581
 2357TIP3   OH228561   0.077   0.644  14.640  0.2093 -0.1324  0.8036
 2357TIP3    H128562   0.082   0.572  14.577  0.0670 -0.0465  0.6941
 2357TIP3    H228563   0.160   0.640  14.687  0.7727  0.4482 -0.0986
 2358TIP3   OH228564   6.259   3.454  14.486  0.2469 -0.0339  0.0628
 2358TIP3    H128565   6.336   3.509  14.474  0.0072 -0.0472 -1.7721
 2358TIP3    H228566   6.208   3.464  14.405  0.0076 -2.6383 -0.2033
 2359TIP3   OH228567   0.784   4.618  13.411  0.0880 -0.3279 -0.1488
 2359TIP3    H128568   0.704   4.657  13.376 -0.3916 -0.6063  0.5914
 2359TIP3    H228569   0.838   4.692  13.437  0.3364 -0.1256 -1.1967
 2360TIP3   OH228570   3.111   1.757  13.723 -0.0902 -0.1851 -0.0683
 2360TIP3    H128571   3.089   1.820  13.792  0.7771  0.7272 -0.5993
 2360TIP3    H228572   3.207   1.759  13.719 -0.0258 -1.7318  0.0588
 2361TIP3   OH228573   4.070   1.546  14.981 -0.1806 -0.1075  0.4255
 2361TIP3    H128574   4.124   1.551  15.061  0.9168 -1.5852 -0.1705
 2361TIP3    H228575   4.127   1.580  14.912 -0.7220  0.1084  0.0797
 2362TIP3   OH228576   2.819   0.621   2.206  0.4829  0.3307 -0.0533
 2362TIP3    H128577   2.875   0.693   2.235  2.3583 -1.4655  1.0923
 2362TIP3    H228578   2.829   0.621   2.111  2.6346 -0.0102  0.1221
 2363TIP3   OH228579   2.877   5.132  12.704 -0.0263 -0.1604  0.0489
 2363TIP3    H128580   2.925   5.213  12.724 -1.7606  0.9447 -0.0634
 2363TIP3    H228581   2.869   5.088  12.789  0.9118 -0.2208  0.1189
 2364TIP3   OH228582   3.499   1.909   3.186 -0.6416 -0.6959 -0.0395
 2364TIP3    H128583   3.540   1.823   3.174  0.2537 -0.4034  0.8210
 2364TIP3    H228584   3.423   1.907   3.128 -0.6467 -2.0766 -0.0257
 2365TIP3   OH228585   5.602   5.515   5.480  0.0574  0.3679 -0.4493
 2365TIP3    H128586   5.676   5.538   5.424  0.8990  2.8827  1.5108
 2365TIP3    H228587   5.550   5.595   5.485 -2.2320 -1.0021 -0.8258
 2366TIP3   OH228588   5.763   1.092   5.555 -0.1975 -0.4013  0.2032
 2366TIP3    H128589   5.706   1.051   5.489 -0.2837 -2.7051  1.6178
 2366TIP3    H228590   5.716   1.080   5.638  0.9660  0.4079  1.0073
 2367TIP3   OH228591   3.412   3.556  12.889  0.1787  0.0873 -0.3037
 2367TIP3    H128592   3.343   3.586  12.830 -0.1105  2.2600  1.0440
 2367TIP3    H228593   3.481   3.622  12.881  0.1299  0.4525  1.7589
 2368TIP3   OH228594   4.192   6.093   2.037 -0.8909 -0.0117  0.4670
 2368TIP3    H128595   4.203   6.045   1.955 -0.6584  0.1469  0.4060
 2368TIP3    H228596   4.254   6.166   2.031 -1.3449  0.3890  0.4915
 2369TIP3   OH228597   6.020   4.120  11.202  0.2561  0.1851  0.6597
 2369TIP3    H128598   5.983   4.083  11.281  0.7785 -0.9541  0.3875
 2369TIP3    H228599   6.021   4.048  11.139 -1.7331  1.4483 -0.9715
 2370TIP3   OH228600   1.755   2.100  13.331  0.0955 -0.2324  0.1404
 2370TIP3    H128601   1.729   2.057  13.413 -0.7239 -0.4344 -0.2216
 2370TIP3    H228602   1.794   2.030  13.279  0.0485 -0.2353  0.1090
 2371TIP3   OH228603   4.158   6.095   3.392 -0.6062 -0.4188  0.2864
 2371TIP3    H128604   4.253   6.097   3.381 -0.7823 -0.6331 -1.5865
 2371TIP3    H228605   4.132   6.187   3.389 -0.3730 -0.2835  1.8944
 2372TIP3   OH228606   0.398   6.203  13.743  0.2379  1.1192  0.4983
 2372TIP3    H128607   0.347   6.151  13.805  0.6184  0.6200  0.3965
 2372TIP3    H228608   0.351   6.193  13.660  0.4514  0.7243  0.4217
 2373TIP3   OH228609   4.475   3.736   5.376  0.7398 -0.4858  0.1538
 2373TIP3    H128610   4.545   3.702   5.320  0.6411  1.5539 -1.2920
 2373TIP3    H228611   4.428   3.657   5.404  1.3274 -1.6857 -1.9359
 2374TIP3   OH228612   3.192   2.542   4.124  0.6564 -0.5302  0.7048
 2374TIP3    H128613   3.169   2.451   4.145  1.8475 -0.4510  2.6184
 2374TIP3    H228614   3.266   2.534   4.064  1.5979 -0.8759  1.8710
 2375TIP3   OH228615   0.485   1.559  16.658  0.4170  0.3525 -0.0871
 2375TIP3    H128616   0.532   1.642  16.657  0.6333  0.2461  0.8110
 2375TIP3    H228617   0.470   1.541  16.751  0.3398 -0.5919 -0.2765
 2376TIP3   OH228618   4.483   0.526   6.106  0.1868 -0.2311 -0.1458
 2376TIP3    H128619   4.448   0.442   6.076  1.1592 -0.2061 -1.4391
 2376TIP3    H228620   4.534   0.505   6.185  0.3071 -0.8306 -0.3839
 2377TIP3   OH228621   5.410   4.383  15.195 -0.1312  0.3439  0.2880
 2377TIP3    H128622   5.447   4.367  15.282 -0.3467  0.2226  0.3573
 2377TIP3    H228623   5.484   4.371  15.135 -0.0189  0.2701  0.4412
 2378TIP3   OH228624   1.872   0.758  15.691  0.0347  0.9323 -0.4949
 2378TIP3    H128625   1.940   0.692  15.679  0.8087  1.9136 -1.6740
 2378TIP3    H228626   1.915   0.841  15.669 -0.9168  1.8554  0.9215
 2379TIP3   OH228627   4.916   1.100  12.856 -0.0099 -0.3078 -0.7122
 2379TIP3    H128628   4.904   1.015  12.812  1.0677  0.3814 -2.4276
 2379TIP3    H228629   4.895   1.082  12.947 -1.5014 -2.0262 -1.3209
 2380TIP3   OH228630   6.458   5.299   6.059  0.1930 -0.1452  0.1021
 2380TIP3    H128631   6.454   5.355   6.137  2.0117  0.1215  0.0578
 2380TIP3    H228632   6.433   5.212   6.091 -2.7050  0.5944  0.1638
 2381TIP3   OH228633   3.483   4.906   5.404  0.1179 -1.1450 -0.4121
 2381TIP3    H128634   3.558   4.894   5.345 -0.8423  0.3770 -2.0387
 2381TIP3    H228635   3.481   5.000   5.422 -1.3842 -1.1594 -0.3781
 2382TIP3   OH228636   1.450   2.694  13.226 -0.0826 -0.0416 -0.7970
 2382TIP3    H128637   1.497   2.702  13.142  0.9151 -0.5365 -0.3030
 2382TIP3    H228638   1.426   2.601  13.231  0.0329 -0.0508 -0.4438
 2383TIP3   OH228639   3.217   2.010  17.255 -0.1671  0.0037  0.2050
 2383TIP3    H128640   3.163   2.026  17.332  1.0244  0.9829  0.8866
 2383TIP3    H228641   3.224   1.915  17.249 -1.8563 -0.1367  0.1448
 2384TIP3   OH228642   2.777   0.064  15.599  0.1308 -0.1414  0.0520
 2384TIP3    H128643   2.818   0.108  15.673  2.9727 -0.8932 -0.9365
 2384TIP3    H228644   2.757  -0.024  15.631 -0.2253  0.0604  0.3905
 2385TIP3   OH228645   1.897   5.430  14.392  0.1239  0.1722  0.3464
 2385TIP3    H128646   1.915   5.511  14.439  0.2462  0.3572 -0.0140
 2385TIP3    H228647   1.824   5.451  14.333  0.3268  0.0961  0.0635
 2386TIP3   OH228648   0.983   5.591  16.470  0.0549  0.2166 -0.6829
 2386TIP3    H128649   0.908   5.589  16.412 -0.4799 -0.3266  0.0094
 2386TIP3    H228650   1.006   5.499  16.483  2.5250  0.3812 -2.9897
 2387TIP3   OH228651   0.447   5.633  16.438  0.1158  0.6566  0.7644
 2387TIP3    H128652   0.414   5.722  16.432 -0.5297  0.4232  0.7888
 2387TIP3    H228653   0.491   5.617  16.355 -1.8672  0.1751 -0.2700
 2388TIP3   OH228654   4.430   3.626   0.739 -0.2312  0.2790 -0.1631
 2388TIP3    H128655   4.467   3.559   0.682 -0.5717  0.2982 -0.4099
 2388TIP3    H228656   4.410   3.580   0.820 -0.1638  0.1533 -0.2167
 2389TIP3   OH228657   4.963   5.754  13.867 -0.3823  0.2700 -0.1475
 2389TIP3    H128658   5.050   5.740  13.904  0.2403  1.1333 -1.2420
 2389TIP3    H228659   4.904   5.743  13.942  0.7390  0.8396  0.8662
 2390TIP3   OH228660   6.568   3.871  17.138 -0.3657 -0.3757  0.1505
 2390TIP3    H128661   6.582   3.840  17.228 -3.1399  0.1321  0.8555
 2390TIP3    H228662   6.524   3.799  17.094  0.8546 -0.5685 -0.8179
 2391TIP3   OH228663   4.731   3.655   2.473 -0.8196 -0.2959  0.3047
 2391TIP3    H128664   4.653   3.688   2.427 -2.1857 -2.1464  1.1645
 2391TIP3    H228665   4.782   3.611   2.405 -0.8709  0.3101 -0.1361
 2392TIP3   OH228666   3.065   6.658  16.575  0.3935  0.3555  0.3252
 2392TIP3    H128667   3.111   6.670  16.659  1.0388 -1.5953  0.3130
 2392TIP3    H228668   3.052   6.563  16.569 -0.0237  0.5006 -1.5978
 2393TIP3   OH228669   4.473   0.774   0.821  0.4532 -0.0245 -0.2777
 2393TIP3    H128670   4.402   0.813   0.770 -0.1200  2.0488  1.9312
 2393TIP3    H228671   4.549   0.828   0.800  0.5514 -0.0663 -0.0306
 2394TIP3   OH228672   6.452   5.860   4.170  0.2951  0.1560  0.1893
 2394TIP3    H128673   6.410   5.854   4.256  0.0878 -0.3384  0.0597
 2394TIP3    H228674   6.545   5.848   4.188  0.0842 -1.8366  0.1664
 2395TIP3   OH228675   5.337   5.393   6.659  0.6617  0.0693  0.0847
 2395TIP3    H128676   5.375   5.476   6.688  0.3322  0.3862 -0.3856
 2395TIP3    H228677   5.370   5.329   6.722  1.1030  0.5166  0.3186
 2396TIP3   OH228678   5.687   4.708   1.705  0.0436  0.5991 -0.2514
 2396TIP3    H128679   5.739   4.650   1.760 -0.9607  0.5092  0.6231
 2396TIP3    H228680   5.752   4.760   1.657  0.9863  1.7187  2.0804
 2397TIP3   OH228681   1.711   2.279  14.413 -0.5410  0.7016  0.1774
 2397TIP3    H128682   1.760   2.299  14.493 -2.6277  1.2259  1.3852
 2397TIP3    H228683   1.675   2.192  14.428 -0.2032  0.4216 -0.5907
 2398TIP3   OH228684   0.164   5.828   2.158 -0.3640  0.1015 -0.6434
 2398TIP3    H128685   0.203   5.847   2.243 -1.4955  0.6217 -0.2152
 2398TIP3    H228686   0.189   5.737   2.140  3.6581  1.2479 -1.8972
 2399TIP3   OH228687   3.808   2.396   4.384 -0.0006  0.1339 -0.0965
 2399TIP3    H128688   3.716   2.381   4.359  0.2832  0.5462 -1.4965
 2399TIP3    H228689   3.832   2.320   4.437 -1.1238 -0.0147  0.2238
 2400TIP3   OH228690   1.209   6.368   5.466 -0.2429  0.4544  0.4270
 2400TIP3    H128691   1.203   6.308   5.392  0.7409 -0.8007  1.3050
 2400TIP3    H228692   1.252   6.316   5.534  0.6072  2.1578  1.2345
 2401TIP3   OH228693   3.379   1.376  16.438  0.1158  0.3991  0.0738
 2401TIP3    H128694   3.380   1.281  16.431 -1.9565  0.2845  0.6489
 2401TIP3    H228695   3.449   1.396  16.500  0.3418 -0.7827  0.2262
 2402TIP3   OH228696   6.092   3.041   3.794 -0.1069  0.0156  0.3938
 2402TIP3    H128697   6.031   3.020   3.724  0.3710 -0.7584  0.1890
 2402TIP3    H228698   6.039   3.039   3.874 -0.4432 -0.1902  0.1685
 2403TIP3   OH228699   2.048   4.156   4.679 -0.2787  0.3722 -0.1319
 2403TIP3    H128700   2.036   4.197   4.764  0.1821 -0.7922  0.5240
 2403TIP3    H228701   2.007   4.069   4.688  2.8469 -1.2149  0.1377
 2404TIP3   OH228702   5.333   5.930  13.946 -0.8335  0.2998  0.3619
 2404TIP3    H128703   5.269   5.937  13.875 -0.0007 -0.2839 -0.4663
 2404TIP3    H228704   5.414   5.904  13.903 -0.1096  0.7065  1.4394
 2405TIP3   OH228705   6.708   3.714  11.966 -0.3880  0.7533  0.0622
 2405TIP3    H128706   6.769   3.786  11.983  1.0114 -1.0332  3.4799
 2405TIP3    H228707   6.763   3.641  11.938 -1.3515  0.0011  0.0454
 2406TIP3   OH228708   0.328   1.044  12.502 -0.8234  0.4347  0.0442
 2406TIP3    H128709   0.258   1.107  12.484 -1.6984 -0.7007 -0.6180
 2406TIP3    H228710   0.388   1.054  12.427  0.0319  1.7606  0.8576
 2407TIP3   OH228711   5.688   2.909   2.743  0.2263  0.4708  0.8227
 2407TIP3    H128712   5.663   2.822   2.712 -0.1723  1.1541 -0.8726
 2407TIP3    H228713   5.722   2.894   2.831 -0.3803 -1.3178  0.7971
 2408TIP3   OH228714   2.602   5.063   4.511 -0.2795 -0.0442  0.9393
 2408TIP3    H128715   2.527   5.063   4.452  0.5859  0.3157 -0.1824
 2408TIP3    H228716   2.588   4.986   4.567 -1.1242 -0.3834  0.2802
 2409TIP3   OH228717   2.839   2.662   4.549 -0.2154 -0.5433 -0.0666
 2409TIP3    H128718   2.834   2.727   4.479  0.6942 -2.5771 -2.1301
 2409TIP3    H228719   2.883   2.708   4.621 -2.4244  2.0327 -0.1907
 2410TIP3   OH228720   5.199   2.059   2.467  0.2383 -0.3152  0.3477
 2410TIP3    H128721   5.271   2.083   2.526  0.3477 -1.7596  0.8363
 2410TIP3    H228722   5.241   2.052   2.381  0.2595  0.8742  0.2432
 2411TIP3   OH228723   4.626   3.249   2.872  0.1370 -0.1985  0.3446
 2411TIP3    H128724   4.601   3.157   2.866  0.9636 -0.6201  2.3374
 2411TIP3    H228725   4.578   3.281   2.948 -0.6911  1.2407 -0.7528
 2412TIP3   OH228726   5.097   3.331  15.047  0.2303 -0.4321  0.0977
 2412TIP3    H128727   5.024   3.362  14.994  0.9753 -0.9622 -1.3133
 2412TIP3    H228728   5.107   3.397  15.116 -0.8732  0.2075 -0.3295
 2413TIP3   OH228729   6.114   5.376   2.303  0.7148  0.8788 -0.3819
 2413TIP3    H128730   6.185   5.336   2.253  0.5453  1.2472 -0.9247
 2413TIP3    H228731   6.155   5.405   2.384  0.9536  0.1029 -0.2119
 2414TIP3   OH228732   0.541   3.496  13.896 -0.3874  0.4238  0.0396
 2414TIP3    H128733   0.580   3.556  13.832  0.9598 -0.2481  0.1816
 2414TIP3    H228734   0.535   3.412  13.849  1.4498 -0.3109  0.9984
 2415TIP3   OH228735   3.411   3.076   0.831 -0.5115  0.2763  0.3890
 2415TIP3    H128736   3.487   3.133   0.832 -2.2782  2.7876  1.6648
 2415TIP3    H228737   3.427   3.013   0.901  0.2682  0.9524  0.8297
 2416TIP3   OH228738   2.850   3.068   2.579 -0.4757  0.0141 -0.1730
 2416TIP3    H128739   2.833   3.020   2.659 -1.7835  1.0348  0.2006
 2416TIP3    H228740   2.765   3.105   2.554  0.6141  3.2050  0.2863
 2417TIP3   OH228741   3.426   0.866   1.487 -0.3440  0.5887 -0.2463
 2417TIP3    H128742   3.416   0.837   1.397  0.5029  2.6133 -1.0464
 2417TIP3    H228743   3.373   0.946   1.493 -0.3000  0.5474  1.0146
 2418TIP3   OH228744   1.213   4.932   1.285  0.1002 -0.1380  0.5294
 2418TIP3    H128745   1.209   5.004   1.349  1.2051  0.7435 -0.3554
 2418TIP3    H228746   1.255   4.860   1.334  2.9413  1.2060  0.2874
 2419TIP3   OH228747   5.720   0.887  11.471 -0.0591  0.0267  0.4080
 2419TIP3    H128748   5.775   0.811  11.487 -2.7928 -1.7606  2.0351
 2419TIP3    H228749   5.749   0.952  11.535  2.0042  0.3165 -0.7133
 2420TIP3   OH228750   1.840   0.649  16.910 -0.0218  0.1543 -0.2487
 2420TIP3    H128751   1.790   0.572  16.885  1.6674 -1.1841  0.2688
 2420TIP3    H228752   1.920   0.644  16.857  1.5138 -0.1873  1.9778
 2421TIP3   OH228753   2.997   2.678   2.281 -0.2492 -0.3416  0.0968
 2421TIP3    H128754   2.976   2.609   2.218 -4.9635  0.6372  0.2678
 2421TIP3    H228755   3.037   2.747   2.228  2.1539 -2.0484 -0.4946
 2422TIP3   OH228756   4.338   5.747   2.575  0.3444  0.0079 -0.6728
 2422TIP3    H128757   4.355   5.816   2.512 -2.3022  0.6071 -0.8325
 2422TIP3    H228758   4.357   5.666   2.528 -0.7955  0.4792 -2.0009
 2423TIP3   OH228759   4.113   5.616  12.417  0.5990  0.2135 -0.0673
 2423TIP3    H128760   4.176   5.670  12.369 -0.8628  0.1124 -2.1946
 2423TIP3    H228761   4.029   5.632  12.374 -0.6937 -0.4357  2.0459
 2424TIP3   OH228762   3.063   6.009  12.093 -0.3239  0.4336  0.0826
 2424TIP3    H128763   3.093   5.965  12.014 -0.8793 -1.8089  1.0413
 2424TIP3    H228764   3.105   5.962  12.164 -1.2322  1.2406  1.2006
 2425TIP3   OH228765   0.053   4.542   5.898 -0.3881  0.1869 -0.2383
 2425TIP3    H128766  -0.023   4.584   5.858 -0.6692 -0.8708 -0.8845
 2425TIP3    H228767   0.097   4.498   5.824  2.8622  3.5605 -0.6093
 2426TIP3   OH228768   5.550   5.614   0.337  0.4616  0.6562 -0.1225
 2426TIP3    H128769   5.495   5.536   0.334  0.5479  0.5948 -0.1044
 2426TIP3    H228770   5.492   5.685   0.309  0.3002  0.6354  0.1581
 2427TIP3   OH228771   4.940   0.710   0.087 -0.3640 -0.1212 -0.0345
 2427TIP3    H128772   5.018   0.654   0.091 -0.5983 -0.4100  0.5593
 2427TIP3    H228773   4.888   0.672   0.016  0.1691  0.2572 -0.6398
 2428TIP3   OH228774   0.538   6.671  13.877 -0.3150 -0.4557 -0.7296
 2428TIP3    H128775   0.624   6.707  13.899 -0.1516 -0.3206 -1.5703
 2428TIP3    H228776   0.493   6.666  13.961  0.6321 -0.8601 -0.2221
 2429TIP3   OH228777   5.177   2.680   5.326  0.0939 -0.0401 -0.6400
 2429TIP3    H128778   5.083   2.697   5.320 -0.2262 -1.5115 -0.4096
 2429TIP3    H228779   5.193   2.611   5.261  1.0896  0.4263 -0.9157
 2430TIP3   OH228780   1.430   6.243  13.297 -0.4365 -0.1116 -0.0547
 2430TIP3    H128781   1.509   6.298  13.291  0.4513 -1.0436  2.1332
 2430TIP3    H228782   1.413   6.217  13.207  1.6573  0.2710 -0.6299
 2431TIP3   OH228783   1.943   2.599   4.775  0.3708 -0.2683 -0.2012
 2431TIP3    H128784   1.941   2.690   4.747  0.5425 -0.3282 -0.4171
 2431TIP3    H228785   1.859   2.563   4.746  0.2422 -0.1405  0.0156
 2432TIP3   OH228786   0.145   3.229  15.281 -0.0557  0.5511 -0.2621
 2432TIP3    H128787   0.127   3.228  15.187  2.3187 -0.5249 -0.7750
 2432TIP3    H228788   0.071   3.183  15.320  0.5701 -2.1496 -2.0088
 2433TIP3   OH228789   4.302   2.305   3.172 -0.5379 -0.2487 -0.2943
 2433TIP3    H128790   4.323   2.244   3.101 -0.5078 -0.6776  0.0782
 2433TIP3    H228791   4.386   2.326   3.212 -0.4616  0.6352 -0.8957
 2434TIP3   OH228792   1.437   0.014  13.459  0.0424 -0.4038 -0.1378
 2434TIP3    H128793   1.453  -0.007  13.551 -0.1524 -0.6948 -0.1680
 2434TIP3    H228794   1.350  -0.020  13.441  0.2363 -0.7060 -0.5377
 2435TIP3   OH228795   3.961   1.109   0.797  0.4298 -0.0585  0.4837
 2435TIP3    H128796   3.944   1.202   0.810 -3.5473 -0.4485 -0.6572
 2435TIP3    H228797   4.007   1.082   0.877  1.2567  2.7311  1.0534
 2436TIP3   OH228798   0.202   0.935   2.715 -0.8841  0.5152 -0.0710
 2436TIP3    H128799   0.107   0.943   2.731 -0.7628  0.0464  0.9892
 2436TIP3    H228800   0.241   0.939   2.803 -0.0079 -0.5123 -0.3968
 2437TIP3   OH228801   5.766   3.717   4.362 -0.1269  0.0292 -0.3245
 2437TIP3    H128802   5.771   3.637   4.309  0.9061  0.9860 -1.7597
 2437TIP3    H228803   5.840   3.711   4.421 -0.6142 -0.5024  0.2539
 2438TIP3   OH228804   0.612   4.897  15.659 -0.2288 -0.2144 -0.6256
 2438TIP3    H128805   0.609   4.956  15.734 -1.2114  0.8308 -1.4431
 2438TIP3    H228806   0.698   4.911  15.620 -0.5074  0.8048 -0.8943
 2439TIP3   OH228807   6.754   6.229   0.390  0.3645 -0.1831 -0.1227
 2439TIP3    H128808   6.822   6.162   0.391  1.4836  0.9169 -0.2618
 2439TIP3    H228809   6.683   6.190   0.339  0.8769 -1.3572  0.0242
 2440TIP3   OH228810   5.197   0.301  17.225  0.2600 -0.0859  0.2076
 2440TIP3    H128811   5.181   0.300  17.131 -0.9681  0.2577  0.3826
 2440TIP3    H228812   5.262   0.233  17.240  0.7217  0.0847 -0.9272
 2441TIP3   OH228813   4.332   0.277  12.393  0.1038 -0.2708  0.4618
 2441TIP3    H128814   4.249   0.275  12.442  1.4500 -0.9526  2.8321
 2441TIP3    H228815   4.367   0.365  12.409  1.2509 -0.9780  2.0299
 2442TIP3   OH228816   5.556   3.529   5.020  0.0220 -0.0445 -0.4415
 2442TIP3    H128817   5.466   3.508   5.047  0.1818  0.4469  0.5170
 2442TIP3    H228818   5.547   3.609   4.968 -0.1802 -0.4598 -1.0590
 2443TIP3   OH228819   6.002   4.509  15.516  0.3480  0.0218 -0.3269
 2443TIP3    H128820   6.027   4.475  15.430 -2.1275 -1.0830 -0.6719
 2443TIP3    H228821   6.063   4.467  15.576  1.2686 -0.2123 -1.3808
 2444TIP3   OH228822   0.412   3.239   5.460  0.0443 -0.5273  0.1240
 2444TIP3    H128823   0.378   3.177   5.394 -0.0031 -0.6385  0.2524
 2444TIP3    H228824   0.501   3.209   5.478  1.1337  1.1402 -1.9636
 2445TIP3   OH228825   3.256   4.552   4.761  0.3286  0.1414 -0.1125
 2445TIP3    H128826   3.260   4.560   4.665 -0.5053 -2.4907 -0.4299
 2445TIP3    H228827   3.203   4.627   4.789 -0.9254 -0.0169 -1.8946
 2446TIP3   OH228828   6.025   3.879   1.579  0.3438  0.0736  0.2282
 2446TIP3    H128829   6.055   3.846   1.663 -0.5598 -1.2300  0.0642
 2446TIP3    H228830   5.940   3.839   1.566  0.1272  0.8584 -0.9657
 2447TIP3   OH228831   5.784   4.152  14.582  0.1225 -0.1003 -0.0338
 2447TIP3    H128832   5.731   4.089  14.632  0.9460 -1.0809 -0.3720
 2447TIP3    H228833   5.744   4.153  14.495  0.9500 -1.2291 -0.4405
 2448TIP3   OH228834   0.020   6.219   1.101  0.3026  0.0305  0.0131
 2448TIP3    H128835   0.110   6.231   1.070  0.8770  1.6120  2.0958
 2448TIP3    H228836   0.013   6.125   1.116  2.3820  0.0944  1.8504
 2449TIP3   OH228837   4.150   1.764   1.830  0.0338  0.4939  0.6360
 2449TIP3    H128838   4.098   1.812   1.766  2.1113  0.9791 -0.7998
 2449TIP3    H228839   4.130   1.806   1.914 -1.5721  0.8827  0.0876
 2450TIP3   OH228840   2.550   3.533   3.130 -0.1395 -0.0157  0.1227
 2450TIP3    H128841   2.553   3.510   3.223 -1.7066  0.4414  0.3090
 2450TIP3    H228842   2.491   3.609   3.126 -0.8781 -0.6296 -1.3457
 2451TIP3   OH228843   3.298   3.005   0.574  0.5207 -0.2548  0.1373
 2451TIP3    H128844   3.297   3.036   0.665  0.6546  1.2483 -0.3506
 2451TIP3    H228845   3.391   2.995   0.554  0.4668 -1.6824  0.4982
 2452TIP3   OH228846   6.494   2.104  12.720 -0.0076  0.2196 -0.1639
 2452TIP3    H128847   6.563   2.119  12.655  1.5584 -0.8241  1.1733
 2452TIP3    H228848   6.414   2.098  12.668  0.7582  2.1830 -1.7060
 2453TIP3   OH228849   1.424   2.107   0.759  0.0820 -0.0353 -0.1560
 2453TIP3    H128850   1.398   2.071   0.674  2.3879  0.5096 -1.1880
 2453TIP3    H228851   1.356   2.171   0.780 -0.1392  0.4140 -2.0207
 2454TIP3   OH228852   0.551   5.703  11.993  0.1135 -0.0472  0.1557
 2454TIP3    H128853   0.495   5.692  12.070  0.2378 -0.5636  0.1741
 2454TIP3    H228854   0.637   5.723  12.028  0.3394 -1.0055  0.1813
 2455TIP3   OH228855   0.555   0.032  16.202 -0.3136 -0.1225  0.4476
 2455TIP3    H128856   0.615   0.071  16.137  0.7559 -1.7924  0.3883
 2455TIP3    H228857   0.608   0.023  16.281 -0.9635 -0.1636  0.8842
 2456TIP3   OH228858   4.030   2.154   1.157  0.0897  0.5849 -0.3050
 2456TIP3    H128859   4.084   2.119   1.228  0.5601 -0.9030 -1.3629
 2456TIP3    H228860   4.068   2.240   1.140 -0.9042  1.6279  2.1312
 2457TIP3   OH228861   5.001   0.321   1.772  0.5592 -0.1121  0.2797
 2457TIP3    H128862   5.003   0.226   1.780  1.0040 -0.0496  0.9693
 2457TIP3    H228863   4.910   0.345   1.791  0.8544 -0.2545  2.0165
 2458TIP3   OH228864   4.016   1.038   1.772 -0.0150  0.0710 -0.3128
 2458TIP3    H128865   3.984   1.066   1.686 -1.6381 -1.2597 -0.1897
 2458TIP3    H228866   4.002   1.113   1.829 -0.0611  0.5473 -0.9382
 2459TIP3   OH228867   4.820   1.161  12.555  0.4964  0.3373  0.3425
 2459TIP3    H128868   4.750   1.148  12.620  0.7491  1.5122  0.8877
 2459TIP3    H228869   4.830   1.076  12.512 -1.5459  0.2490 -0.0370
 2460TIP3   OH228870   0.683   0.480   2.431  0.2248 -0.0441  0.0174
 2460TIP3    H128871   0.759   0.425   2.413 -0.1708 -0.5361 -0.1683
 2460TIP3    H228872   0.720   0.559   2.470  1.0417  0.7399 -2.2223
 2461TIP3   OH228873   1.526   6.559   0.321 -0.0455  0.1510 -0.1991
 2461TIP3    H128874   1.594   6.497   0.347 -1.0937 -1.0062 -0.1222
 2461TIP3    H228875   1.460   6.505   0.277 -1.6377  0.9997  1.0657
 2462TIP3   OH228876   3.982   0.369   0.516  0.2456 -0.2043 -0.9655
 2462TIP3    H128877   3.925   0.339   0.587  0.1896  1.8553 -0.0676
 2462TIP3    H228878   4.069   0.337   0.541  0.3515  1.0782  0.4389
 2463TIP3   OH228879   6.159   6.515   2.037 -0.4100 -0.2400  0.0987
 2463TIP3    H128880   6.112   6.574   1.979 -0.7398  0.2007  0.7976
 2463TIP3    H228881   6.182   6.569   2.112 -0.8232 -1.0214  0.8093
 2464TIP3   OH228882   3.621   5.319   1.781 -0.3247 -0.1276  0.4346
 2464TIP3    H128883   3.594   5.227   1.789 -1.0047 -0.0926 -1.1017
 2464TIP3    H228884   3.558   5.367   1.835 -0.0002 -0.5538  1.2038
 2465TIP3   OH228885   4.921   1.695   2.258 -0.4500  0.0762  0.0525
 2465TIP3    H128886   4.924   1.755   2.183  0.0091  1.3845  1.0761
 2465TIP3    H228887   4.828   1.672   2.267 -0.5203 -0.0331 -0.8521
 2466TIP3   OH228888   1.328   5.257   4.969 -0.4662 -0.1201  0.0291
 2466TIP3    H128889   1.259   5.243   4.904 -2.1852 -1.8003  2.0817
 2466TIP3    H228890   1.283   5.263   5.052  1.6761  2.0190  1.1436
 2467TIP3   OH228891   5.521   6.430  16.571 -0.5850 -0.1296 -0.4310
 2467TIP3    H128892   5.481   6.354  16.528 -1.4482 -0.1523  0.3870
 2467TIP3    H228893   5.492   6.425  16.662 -3.0869  2.7370 -0.9335
 2468TIP3   OH228894   3.160   3.227   3.686 -0.0144 -0.0704 -0.6399
 2468TIP3    H128895   3.180   3.301   3.628  2.1186 -0.4662 -0.5111
 2468TIP3    H228896   3.144   3.268   3.771 -0.9473  0.3556 -1.0029
 2469TIP3   OH228897   6.588   6.417  15.034 -0.3438  0.1562 -0.1755
 2469TIP3    H128898   6.633   6.428  15.117 -1.9639  3.2139  0.4370
 2469TIP3    H228899   6.632   6.477  14.974 -1.5273  0.7688 -0.4586
 2470TIP3   OH228900   3.820   3.642   4.732 -0.1146 -0.5547 -0.9293
 2470TIP3    H128901   3.887   3.708   4.714  0.9182 -1.6335 -1.2269
 2470TIP3    H228902   3.819   3.633   4.827  0.5074 -0.8513 -0.9441
 2471TIP3   OH228903   1.405   6.325   2.356  0.5711 -0.1786 -0.0924
 2471TIP3    H128904   1.495   6.312   2.324  0.7606 -1.6832  0.9321
 2471TIP3    H228905   1.356   6.251   2.319 -0.5367  1.1852 -1.4959
 2472TIP3   OH228906   4.027   1.305   1.048 -0.3687  0.5130 -0.2657
 2472TIP3    H128907   4.107   1.354   1.031 -0.1020  0.0058 -0.4816
 2472TIP3    H228908   4.050   1.242   1.116 -0.7863  0.8640  0.2163
 2473TIP3   OH228909   3.317   3.997  12.229 -0.4075 -0.1708  0.4001
 2473TIP3    H128910   3.339   3.911  12.193 -0.3329 -0.4742  1.1511
 2473TIP3    H228911   3.298   3.980  12.321 -1.0447  0.5197  0.4077
 2474TIP3   OH228912   5.618   4.944   4.472 -0.2206 -0.6660  0.1931
 2474TIP3    H128913   5.581   5.014   4.525 -0.5704 -0.3279 -0.4859
 2474TIP3    H228914   5.542   4.897   4.437  0.0087 -1.3323  0.5731
 2475TIP3   OH228915   5.575   4.285   3.684  0.6369 -0.0715  0.2414
 2475TIP3    H128916   5.564   4.219   3.753  1.2550 -0.2064  0.2234
 2475TIP3    H228917   5.606   4.235   3.609 -0.3989  0.0237 -0.2530
 2476TIP3   OH228918   3.422   0.704   1.715 -0.4428 -0.1705  0.2127
 2476TIP3    H128919   3.514   0.691   1.740 -0.7534 -0.1221  1.4733
 2476TIP3    H228920   3.423   0.781   1.659  0.5892 -1.6225 -1.9123
 2477TIP3   OH228921   2.515   4.419   5.098 -0.2573 -0.6774  0.3558
 2477TIP3    H128922   2.486   4.381   5.181  1.1075 -0.8025  0.7947
 2477TIP3    H228923   2.608   4.396   5.092 -0.3308 -0.7004 -1.2265
 2478TIP3   OH228924   1.523   2.881  12.171 -0.3205 -0.3796 -0.2166
 2478TIP3    H128925   1.484   2.930  12.243 -0.1382 -1.3218  0.5567
 2478TIP3    H228926   1.486   2.793  12.180 -0.3676 -0.4802 -1.3459
 2479TIP3   OH228927   5.727   2.053   1.881  0.5981  0.0587  0.2533
 2479TIP3    H128928   5.775   2.113   1.823  2.2167  0.3791  1.8433
 2479TIP3    H228929   5.788   1.981   1.896 -0.1421 -0.4457  0.8713
 2480TIP3   OH228930   4.650   0.652   6.443 -0.1148 -0.4871 -0.5590
 2480TIP3    H128931   4.574   0.595   6.435  0.5607 -1.7307  1.2288
 2480TIP3    H228932   4.719   0.605   6.395  0.7450 -1.8879  1.8352
 2481TIP3   OH228933   3.709   5.918  11.003  0.0003 -0.1391 -0.8380
 2481TIP3    H128934   3.784   5.920  10.944 -0.6188 -0.2220 -1.6483
 2481TIP3    H228935   3.645   5.862  10.959 -0.3929 -0.3818  0.0198
 2482TIP3   OH228936   2.083   0.914   1.011  0.5783 -0.2160  0.0814
 2482TIP3    H128937   2.105   0.980   0.945  1.3763 -0.4655  0.0889
 2482TIP3    H228938   2.047   0.841   0.962  0.7083 -0.2069 -0.0254
 2483TIP3   OH228939   3.772   4.050  12.088 -0.4696 -0.0111 -0.2875
 2483TIP3    H128940   3.771   3.955  12.104  0.9681 -0.0550 -0.3210
 2483TIP3    H228941   3.688   4.081  12.122 -0.3358 -1.0857  1.1425
 2484TIP3   OH228942   6.387   0.316  13.574 -0.4307  0.1321 -0.3214
 2484TIP3    H128943   6.384   0.350  13.663  0.4923 -1.5114  0.3790
 2484TIP3    H228944   6.452   0.246  13.576 -0.2329  0.1837 -2.3459
 2485TIP3   OH228945   0.827   5.450  11.553 -0.3547  0.6892 -0.2314
 2485TIP3    H128946   0.795   5.522  11.607 -1.1160 -0.1935  0.5376
 2485TIP3    H228947   0.829   5.485  11.464  0.4491  2.0117  0.2847
 2486TIP3   OH228948   1.350   1.101  11.711  0.3435 -0.0723 -0.2016
 2486TIP3    H128949   1.322   1.174  11.656  1.7781  0.5338 -0.1550
 2486TIP3    H228950   1.415   1.138  11.771  1.3647 -1.4384 -0.4096
 2487TIP3   OH228951   0.639   2.365   1.504 -0.1935 -0.1098 -0.5031
 2487TIP3    H128952   0.714   2.330   1.455 -2.3800 -0.4652 -3.9383
 2487TIP3    H228953   0.628   2.454   1.470 -1.9579 -0.4680 -0.9949
 2488TIP3   OH228954   5.436   6.012  16.192  0.6303  0.2919 -0.1656
 2488TIP3    H128955   5.353   6.058  16.179  1.8629  2.5681 -0.5750
 2488TIP3    H228956   5.425   5.929  16.146 -1.6806  0.1736  0.4849
 2489TIP3   OH228957   1.674   3.436  16.107 -0.4818 -0.4258 -0.0858
 2489TIP3    H128958   1.690   3.441  16.202 -1.0142 -0.4934  0.0094
 2489TIP3    H228959   1.750   3.390  16.072  0.6095  1.1580  0.0715
 2490TIP3   OH228960   2.714   1.733   3.945 -0.0254  0.1957 -0.5612
 2490TIP3    H128961   2.651   1.710   4.014  0.0698  3.3393  0.7106
 2490TIP3    H228962   2.661   1.738   3.866 -0.5026 -1.4883 -0.3987
 2491TIP3   OH228963   3.650   1.523   1.724 -0.0456  0.2506  0.1428
 2491TIP3    H128964   3.648   1.475   1.807 -1.8970  0.9138  0.5297
 2491TIP3    H228965   3.724   1.583   1.733  1.2154 -1.2939  0.3513
 2492TIP3   OH228966   3.315   3.823   5.766  0.0701  0.1076  0.6869
 2492TIP3    H128967   3.257   3.898   5.755 -0.8823 -0.4148  1.9477
 2492TIP3    H228968   3.352   3.833   5.853 -1.0217 -1.4884  1.3847
 2493TIP3   OH228969   4.352   1.490  14.504  0.2534 -0.1680  0.4464
 2493TIP3    H128970   4.260   1.515  14.516  0.8304  1.2163  2.6576
 2493TIP3    H228971   4.350   1.419  14.440 -2.2389  0.5731 -0.3972
 2494TIP3   OH228972   3.731   5.828  13.176  0.2078 -0.9352  0.0729
 2494TIP3    H128973   3.810   5.826  13.230 -0.1544 -1.3942  0.5954
 2494TIP3    H228974   3.709   5.921  13.168 -0.0401 -0.8898  1.1693
 2495TIP3   OH228975   4.299   6.363  14.516 -0.4960  0.4800  0.1420
 2495TIP3    H128976   4.341   6.284  14.484 -0.7325  0.9952 -1.5041
 2495TIP3    H228977   4.343   6.435  14.470  2.2660  1.7603  4.1266
 2496TIP3   OH228978   4.643   1.690  14.657 -0.2154  0.3847 -0.3358
 2496TIP3    H128979   4.723   1.732  14.626  0.7578 -0.1190  1.3483
 2496TIP3    H228980   4.609   1.749  14.724 -0.2735 -0.2585  0.2088
 2497TIP3   OH228981   0.407   0.949  14.504 -0.5954 -0.4534  0.1050
 2497TIP3    H128982   0.390   0.957  14.598 -0.7318  1.4800 -0.0483
 2497TIP3    H228983   0.321   0.946  14.464 -0.5758 -2.7916  0.0772
 2498TIP3   OH228984   5.052   5.032   3.711  0.3078  0.3277 -0.6145
 2498TIP3    H128985   5.004   5.016   3.793  0.0774  1.9580 -0.3915
 2498TIP3    H228986   5.144   5.031   3.737  0.2692  0.0547 -0.4857
 2499TIP3   OH228987   4.028   3.592   0.834 -0.5366 -0.1108  0.6424
 2499TIP3    H128988   4.082   3.526   0.790 -0.6691  0.0503  0.2246
 2499TIP3    H228989   3.938   3.567   0.814 -0.6132  1.7781 -2.0568
 2500TIP3   OH228990   1.039   3.745   3.379  0.2992 -0.0325 -0.4888
 2500TIP3    H128991   1.078   3.739   3.466 -0.0189 -0.6199 -0.3772
 2500TIP3    H228992   0.946   3.757   3.395 -0.1617 -2.6455 -0.6813
 2501TIP3   OH228993   5.119   0.750  11.627  1.1393  0.0018 -0.2056
 2501TIP3    H128994   5.192   0.687  11.633  1.5632  0.5541  0.7729
 2501TIP3    H228995   5.041   0.699  11.647  1.4877 -0.2234  0.6353
 2502TIP3   OH228996   5.275   1.295  16.873  0.0738 -0.4365  0.0502
 2502TIP3    H128997   5.290   1.307  16.779 -0.4300 -1.5522 -0.1810
 2502TIP3    H228998   5.345   1.346  16.915 -0.2030  0.7717 -0.9046
 2503TIP3   OH228999   0.763   4.870  16.240  0.0392  0.0567 -0.0618
 2503TIP3    H129000   0.834   4.838  16.185  0.8761  0.3785  0.8108
 2503TIP3    H229001   0.710   4.793  16.259  0.0917 -0.1671 -0.7869
 2504TIP3   OH229002   2.549   0.576   3.276  0.3079  0.5253 -0.4739
 2504TIP3    H129003   2.486   0.507   3.296  1.9819 -0.5819  1.2819
 2504TIP3    H229004   2.537   0.593   3.182 -1.0447 -1.2049 -0.6668
 2505TIP3   OH229005   5.571   4.217   0.089  0.0051 -0.5523 -0.1806
 2505TIP3    H129006   5.640   4.206   0.155 -0.9125  2.5209  1.5129
 2505TIP3    H229007   5.489   4.211   0.138 -0.7722  0.1515 -1.3409
 2506TIP3   OH229008   1.155   2.178   0.001 -0.5072 -0.1315  0.0010
 2506TIP3    H129009   1.230   2.229  -0.028 -0.2972  0.2391  1.1557
 2506TIP3    H229010   1.156   2.100  -0.056  0.0817  0.3909 -0.7268
 2507TIP3   OH229011   4.098   4.185   2.993 -0.1640 -0.1341  0.0482
 2507TIP3    H129012   4.016   4.208   3.036  0.0722 -0.9034  0.9171
 2507TIP3    H229013   4.161   4.176   3.064  0.7390  0.6666 -0.6285
 2508TIP3   OH229014   4.517   0.831  11.109  0.0991 -0.5347 -0.3206
 2508TIP3    H129015   4.519   0.882  11.028  2.7501 -0.1833 -0.1204
 2508TIP3    H229016   4.483   0.891  11.174 -0.5406 -0.3048 -0.8585
 2509TIP3   OH229017   2.021   5.319   3.730 -0.0405  0.2900  1.0658
 2509TIP3    H129018   1.996   5.333   3.822  1.7974 -0.0882  1.6583
 2509TIP3    H229019   2.084   5.247   3.733  0.9171  1.0313 -0.3531
 2510TIP3   OH229020   2.547   6.206   4.614  0.1418  0.8123  0.2496
 2510TIP3    H129021   2.527   6.170   4.700  1.9044 -0.5938  0.1381
 2510TIP3    H229022   2.507   6.293   4.614 -1.4333  0.1388  1.7842
 2511TIP3   OH229023   2.343   4.433  15.415 -0.6171  0.0568  0.0543
 2511TIP3    H129024   2.434   4.430  15.384 -0.5344  0.5702  0.2458
 2511TIP3    H229025   2.333   4.520  15.452 -0.9309 -0.2997  0.8231
 2512TIP3   OH229026   6.361   0.796  10.974  0.4239 -0.0698 -0.3625
 2512TIP3    H129027   6.276   0.839  10.964  0.3616 -0.0268  0.3081
 2512TIP3    H229028   6.412   0.826  10.899 -0.7054 -1.4207 -1.7121
 2513TIP3   OH229029   4.708   0.521   0.580 -0.1942  0.8877 -0.3196
 2513TIP3    H129030   4.788   0.571   0.566  0.3312  0.0627 -0.2952
 2513TIP3    H229031   4.720   0.479   0.666 -0.6190  0.6970 -0.3495
 2514TIP3   OH229032   0.597   3.917  11.925  0.2881  0.0087  0.0210
 2514TIP3    H129033   0.602   3.891  11.833 -1.3523 -0.0466 -0.0937
 2514TIP3    H229034   0.686   3.910  11.958  0.4594 -2.8940 -0.7940
 2515TIP3   OH229035   0.119   0.034   2.669  0.2246 -0.3788 -0.3641
 2515TIP3    H129036   0.157  -0.017   2.598  0.3727  0.3463 -0.8162
 2515TIP3    H229037   0.194   0.073   2.714  0.1242 -0.7190  0.1059
 2516TIP3   OH229038   4.767   4.295   1.748 -0.0370  0.3946  0.7065
 2516TIP3    H129039   4.818   4.363   1.791  2.4938 -1.7299  1.3269
 2516TIP3    H229040   4.737   4.238   1.819  0.0503 -0.4944  0.0563
 2517TIP3   OH229041   5.337   2.720   0.638 -0.0030 -0.1955  0.2440
 2517TIP3    H129042   5.402   2.682   0.579 -0.2746  0.0264 -0.1997
 2517TIP3    H229043   5.301   2.644   0.685  0.9095 -0.2734  0.8490
 2518TIP3   OH229044   0.634   4.669   4.952 -0.0160  0.7123  0.5869
 2518TIP3    H129045   0.562   4.695   5.009 -0.1493 -0.0611  0.7822
 2518TIP3    H229046   0.658   4.581   4.981 -0.8362 -0.1820 -1.2462
 2519TIP3   OH229047   5.146   6.195  16.842 -0.1658  0.2995 -0.1602
 2519TIP3    H129048   5.167   6.218  16.751 -1.3184  1.0261 -0.2638
 2519TIP3    H229049   5.097   6.113  16.835  1.6927 -0.8732  0.0070
 2520TIP3   OH229050   1.131   4.181   6.318 -0.8026  0.4656  0.3596
 2520TIP3    H129051   1.129   4.226   6.402  0.4433  1.6697 -0.2193
 2520TIP3    H229052   1.198   4.227   6.268 -0.8674 -0.8204 -0.9651
 2521TIP3   OH229053   6.240   1.544  17.247  0.6640 -0.4691  0.3569
 2521TIP3    H129054   6.221   1.470  17.189 -2.4410 -0.3444  1.0670
 2521TIP3    H229055   6.215   1.621  17.195 -0.1922 -0.2337  1.0979
 2522TIP3   OH229056   2.488   0.453  10.684  0.5085  0.1897 -0.2721
 2522TIP3    H129057   2.548   0.492  10.620 -0.6555  1.6468 -0.5339
 2522TIP3    H229058   2.434   0.526  10.713 -1.2662 -1.1008 -0.1752
 2523TIP3   OH229059   5.600   2.489  14.690  0.6053  0.2046  0.1749
 2523TIP3    H129060   5.529   2.504  14.628  0.3604 -0.8188  0.1846
 2523TIP3    H229061   5.656   2.566  14.682  0.4884  0.1700 -1.1916
 2524TIP3   OH229062   5.734   6.791  16.217 -0.1154 -0.7276  0.1065
 2524TIP3    H129063   5.704   6.716  16.268  0.6855 -1.8391 -1.0046
 2524TIP3    H229064   5.655   6.824  16.175 -0.5191 -0.7794  0.8086
 2525TIP3   OH229065   4.598   6.627  16.408  0.0493  0.3310 -0.8107
 2525TIP3    H129066   4.645   6.605  16.488 -0.2124 -1.0718 -1.0309
 2525TIP3    H229067   4.578   6.543  16.367  1.0870  1.0134 -2.8978
 2526TIP3   OH229068   5.273   3.197   0.848 -0.3343 -0.1247  0.0128
 2526TIP3    H129069   5.231   3.236   0.925  1.3302 -0.1319  0.9599
 2526TIP3    H229070   5.218   3.122   0.826 -1.1434  0.2075  0.8483
 2527TIP3   OH229071   5.761   6.465   3.697 -0.2827 -0.0566  0.0398
 2527TIP3    H129072   5.765   6.554   3.660  0.5261 -0.2356 -0.3316
 2527TIP3    H229073   5.671   6.455   3.727 -0.6355  0.5498 -0.7903
 2528TIP3   OH229074   3.490   1.617  14.659  0.3947 -0.2946 -0.2837
 2528TIP3    H129075   3.445   1.694  14.693  0.4391  0.6574 -2.2548
 2528TIP3    H229076   3.476   1.550  14.726 -1.0349  0.9379  0.7271
 2529TIP3   OH229077   2.111   4.214   1.665 -0.3384  0.0861 -0.0171
 2529TIP3    H129078   2.133   4.141   1.724 -1.3728 -0.5930 -0.4399
 2529TIP3    H229079   2.150   4.189   1.581 -1.1967 -0.2862 -0.3182
 2530TIP3   OH229080   5.632   6.689  10.734 -0.8252 -1.0962 -0.1525
 2530TIP3    H129081   5.651   6.742  10.657 -1.8809  0.3102  0.5098
 2530TIP3    H229082   5.547   6.649  10.715 -0.4497 -1.8490 -0.2746
 2531TIP3   OH229083   2.498   5.402   6.750  0.6859 -0.2020  0.4605
 2531TIP3    H129084   2.468   5.317   6.718  0.8453 -0.0247 -0.1763
 2531TIP3    H229085   2.438   5.465   6.710  0.5484 -0.0130  0.9555
 2532TIP3   OH229086   2.874   1.407  13.611  0.3513 -0.2658 -0.2569
 2532TIP3    H129087   2.841   1.347  13.544  0.4766 -1.3429  0.6232
 2532TIP3    H229088   2.923   1.351  13.672 -0.2458  0.5848  1.0540
 2533TIP3   OH229089   1.170   3.899   6.282  0.1853  0.3032  0.4928
 2533TIP3    H129090   1.100   3.871   6.341  0.1595  0.8769  0.7449
 2533TIP3    H229091   1.165   3.994   6.283  0.2563  0.3236 -0.3585
 2534TIP3   OH229092   4.728   2.385  14.756  0.0981  0.0649 -0.1676
 2534TIP3    H129093   4.733   2.299  14.714 -1.3612  0.4064 -1.1113
 2534TIP3    H229094   4.795   2.438  14.711 -0.1888 -0.0955 -0.7922
 2535TIP3   OH229095   3.497   3.530   6.767 -0.0288 -0.1575 -0.4439
 2535TIP3    H129096   3.576   3.584   6.758  1.3431 -2.2557 -1.8255
 2535TIP3    H229097   3.467   3.517   6.677 -1.6443  0.1393  0.0329
 2536TIP3   OH229098   2.426   6.693   2.869  0.2658  0.1810 -0.0382
 2536TIP3    H129099   2.415   6.763   2.804 -0.9543  0.1963  0.1761
 2536TIP3    H229100   2.359   6.629   2.847 -1.4964  1.0658  2.3565
 2537TIP3   OH229101   5.509   3.598   1.878  0.0945 -0.4766  0.0578
 2537TIP3    H129102   5.600   3.599   1.847 -0.0469 -0.7766 -0.3709
 2537TIP3    H229103   5.504   3.519   1.932  0.2487 -0.1341  0.5838
 2538TIP3   OH229104   1.692   3.320   3.557 -0.3538  0.2429 -0.1285
 2538TIP3    H129105   1.696   3.329   3.462 -0.2573  0.6159 -0.0897
 2538TIP3    H229106   1.606   3.353   3.581 -0.2134  0.5571 -0.0444
 2539TIP3   OH229107   4.773   3.541  17.283 -0.3989  0.0931  0.1161
 2539TIP3    H129108   4.792   3.491  17.204 -1.7542  0.3296 -0.3950
 2539TIP3    H229109   4.799   3.631  17.261 -0.0727  0.0224  0.2121
 2540TIP3   OH229110   6.343   0.544  16.501  0.1627 -0.0067  0.1822
 2540TIP3    H129111   6.432   0.578  16.516 -0.0676 -0.0642  1.8550
 2540TIP3    H229112   6.286   0.615  16.528 -0.3225 -0.0086 -0.8013
 2541TIP3   OH229113   5.886   1.188  11.547  0.0462 -0.1941 -0.3169
 2541TIP3    H129114   5.880   1.157  11.457  0.9561 -1.3108 -0.0105
 2541TIP3    H229115   5.859   1.113  11.600 -0.0003  0.2972  0.3703
 2542TIP3   OH229116   5.020   0.074   0.993 -0.3954  0.1463 -0.2404
 2542TIP3    H129117   5.096   0.039   1.039  0.2262 -0.5165 -1.7145
 2542TIP3    H229118   5.003   0.158   1.036  2.0494  0.9909 -0.7595
 2543TIP3   OH229119   4.512   3.541   3.802  0.2398  0.3128 -0.5679
 2543TIP3    H129120   4.551   3.581   3.724  0.7830 -1.0411 -1.0178
 2543TIP3    H229121   4.423   3.575   3.803  0.2555  0.4526 -1.7249
 2544TIP3   OH229122   3.025   6.147   0.450 -0.4204  0.3628 -0.1697
 2544TIP3    H129123   3.033   6.198   0.369 -1.5211 -1.3419 -1.4244
 2544TIP3    H229124   2.930   6.146   0.468 -0.4219 -1.2209 -0.1918
 2545TIP3   OH229125   6.141   3.005  15.025 -0.3929  0.4490 -0.3107
 2545TIP3    H129126   6.235   2.999  15.008 -0.2524  0.4340  0.4383
 2545TIP3    H229127   6.100   2.971  14.946  0.1736  2.9255 -1.7497
 2546TIP3   OH229128   0.502   4.785  10.970  0.2582  0.4908 -0.0685
 2546TIP3    H129129   0.420   4.833  10.974 -0.0399 -0.0744  0.7761
 2546TIP3    H229130   0.553   4.829  10.902  0.1427  2.2099  0.9170
 2547TIP3   OH229131   4.108   0.107   1.524  0.0827 -0.4786  0.4269
 2547TIP3    H129132   4.179   0.043   1.527  1.0241  0.4192 -1.2607
 2547TIP3    H229133   4.151   0.192   1.522 -1.0650  0.1264  0.2803
 2548TIP3   OH229134   0.211   4.221  15.927  0.1180  0.3326  0.2542
 2548TIP3    H129135   0.207   4.184  15.838 -1.3342 -0.3006  0.5450
 2548TIP3    H229136   0.302   4.210  15.954  0.0636 -1.7533 -0.2419
 2549TIP3   OH229137   1.380   1.680   1.760  0.6834  0.1855 -0.4155
 2549TIP3    H129138   1.351   1.694   1.669  1.0479 -2.0482 -0.9284
 2549TIP3    H229139   1.314   1.623   1.798  0.6366  0.9544  0.7085
 2550TIP3   OH229140   2.267   0.856   3.041 -0.6063  0.6807  0.0084
 2550TIP3    H129141   2.234   0.893   3.123 -0.3198  0.3971  0.2570
 2550TIP3    H229142   2.276   0.762   3.060  0.7183  0.8022  0.0835
 2551TIP3   OH229143   1.935   3.958   0.792  0.2615  0.3646 -0.1977
 2551TIP3    H129144   2.005   3.985   0.851  0.5365  1.8170 -1.1093
 2551TIP3    H229145   1.970   3.882   0.746  0.2739 -0.4042  1.0344
 2552TIP3   OH229146   5.014   2.717  16.881  0.9095 -0.4118 -0.3739
 2552TIP3    H129147   5.018   2.658  16.957  0.0407 -0.1145 -0.0896
 2552TIP3    H229148   4.950   2.677  16.823  0.1807  0.3272 -0.0994
 2553TIP3   OH229149   2.435   6.101  14.386 -1.0678 -0.0556 -0.0785
 2553TIP3    H129150   2.521   6.065  14.409 -1.3177 -0.6543 -0.0656
 2553TIP3    H229151   2.439   6.192  14.415  0.1081  0.3620 -1.4546
 2554TIP3   OH229152   4.281   4.425   4.331 -0.2777  0.4092 -0.3827
 2554TIP3    H129153   4.288   4.451   4.239 -1.4024  0.4657 -0.4550
 2554TIP3    H229154   4.269   4.330   4.328 -1.6838  0.5765 -0.3628
 2555TIP3   OH229155   2.055   4.739  12.728 -0.3575  0.4374 -0.4055
 2555TIP3    H129156   1.999   4.662  12.716  0.1142 -0.7231  3.3781
 2555TIP3    H229157   2.140   4.714  12.692 -0.1737 -0.9385  0.9130
 2556TIP3   OH229158   6.438   5.278  13.252 -0.0710  0.1175 -0.3922
 2556TIP3    H129159   6.476   5.234  13.176  0.1005  0.3632 -0.4516
 2556TIP3    H229160   6.357   5.230  13.269 -0.1835  0.1473 -0.8182
 2557TIP3   OH229161   6.618   6.437  10.991 -0.4118 -0.2987 -0.0473
 2557TIP3    H129162   6.698   6.452  11.041  0.3024 -2.0973 -0.5556
 2557TIP3    H229163   6.550   6.425  11.058  0.5503 -2.8085  0.6019
 2558TIP3   OH229164   3.180   6.100  15.799 -0.4315 -0.8245  0.2656
 2558TIP3    H129165   3.133   6.020  15.822 -0.4278 -1.5771 -2.0133
 2558TIP3    H229166   3.265   6.069  15.768 -0.4428  0.0430 -0.6858
 2559TIP3   OH229167   4.732   5.883   3.584 -0.3745 -0.3769  0.2172
 2559TIP3    H129168   4.745   5.906   3.492  0.3111  0.7143  0.5765
 2559TIP3    H229169   4.644   5.845   3.587 -1.0393  1.0240 -0.6324
 2560TIP3   OH229170   2.619   1.252  12.088 -0.0619  0.1631  0.4884
 2560TIP3    H129171   2.587   1.163  12.075 -2.0257  0.7480  0.8713
 2560TIP3    H229172   2.662   1.250  12.173 -0.3801 -0.3466  0.6417
 2561TIP3   OH229173   6.368   2.868  14.361  0.2353  0.0998 -0.2083
 2561TIP3    H129174   6.313   2.928  14.311 -1.9632 -0.1766  1.6851
 2561TIP3    H229175   6.379   2.792  14.304 -0.0791  0.7904 -1.2143
 2562TIP3   OH229176   6.042   1.039  12.511  0.1189 -0.1291  0.9371
 2562TIP3    H129177   6.082   0.995  12.586 -1.5156  0.9377  2.5109
 2562TIP3    H229178   5.986   1.106  12.549 -2.3528 -0.8307 -1.1815
 2563TIP3   OH229179   0.135   0.391   4.188  0.0218 -0.3405  0.3133
 2563TIP3    H129180   0.166   0.332   4.121  0.9133 -0.6369  0.9729
 2563TIP3    H229181   0.071   0.340   4.238  1.1598 -0.9292  1.1934
 2564TIP3   OH229182   6.613   5.192  12.304 -0.2277 -0.2491 -0.4404
 2564TIP3    H129183   6.555   5.263  12.333  1.1770  0.6673  0.1870
 2564TIP3    H229184   6.627   5.140  12.383 -0.2815 -0.5497 -0.6268
 2565TIP3   OH229185   5.409   5.306   2.042 -0.2903  0.5157  0.0631
 2565TIP3    H129186   5.444   5.276   2.125  0.0091 -0.1661 -0.3028
 2565TIP3    H229187   5.462   5.262   1.976  0.1778  1.8728 -0.4985
 2566TIP3   OH229188   0.046   0.325  17.241  0.1373  0.3712 -0.6224
 2566TIP3    H129189   0.071   0.401  17.293  0.4653  0.6643 -1.2083
 2566TIP3    H229190  -0.020   0.358  17.180 -0.7499 -0.1187  0.0443
 2567TIP3   OH229191   6.344   5.658  16.640 -0.0667 -0.2229  0.2820
 2567TIP3    H129192   6.279   5.660  16.569 -0.4174  1.4452  0.5934
 2567TIP3    H229193   6.295   5.683  16.718  0.5828 -0.7784  0.8801
 2568TIP3   OH229194   1.335   0.137   0.911  0.1227 -0.3457  0.3095
 2568TIP3    H129195   1.402   0.191   0.869  0.2457 -1.3909 -0.8801
 2568TIP3    H229196   1.371   0.119   0.998  0.6376  0.4402  0.2789
 2569TIP3   OH229197   4.085   1.807  13.452  0.4009 -0.4793  0.0082
 2569TIP3    H129198   4.083   1.816  13.547  2.0297 -2.1417  0.2590
 2569TIP3    H229199   4.178   1.811  13.429  0.0785 -0.6828 -1.4598
 2570TIP3   OH229200   5.978   3.226   0.477  0.1165 -0.0625 -0.2140
 2570TIP3    H129201   6.006   3.168   0.547 -0.4130  1.2917  1.1785
 2570TIP3    H229202   6.040   3.298   0.479  0.1700 -0.0608 -1.2425
 2571TIP3   OH229203   3.579   6.353  16.909  0.1261  0.4479  0.3025
 2571TIP3    H129204   3.654   6.346  16.968 -0.2581  1.1420  0.8819
 2571TIP3    H229205   3.515   6.406  16.956 -0.4439  0.4789 -0.4774
 2572TIP3   OH229206   4.056   0.522  11.717 -0.2589 -0.8476 -0.1991
 2572TIP3    H129207   4.104   0.545  11.637  1.4236  2.5677  1.5445
 2572TIP3    H229208   4.078   0.430  11.733  1.7398 -0.8001 -2.1393
 2573TIP3   OH229209   0.496   2.260   3.116  0.4238 -0.4372  0.2746
 2573TIP3    H129210   0.408   2.230   3.093 -0.0268  0.6006  0.5839
 2573TIP3    H229211   0.521   2.205   3.190  0.0593 -0.7763  0.1486
 2574TIP3   OH229212   1.988   2.539  17.170 -0.1357 -0.4628  0.2330
 2574TIP3    H129213   1.987   2.463  17.229 -0.0143 -0.1952  0.5811
 2574TIP3    H229214   1.899   2.574  17.174  0.0702  0.0193  0.8707
 2575TIP3   OH229215   4.961   6.758   3.191 -0.0906 -0.5099  0.1786
 2575TIP3    H129216   4.886   6.767   3.249  0.2412  0.4384  0.4759
 2575TIP3    H229217   5.030   6.720   3.245 -0.0729 -0.5240  0.1466
 2576TIP3   OH229218   3.671   2.225   6.515 -0.2061  0.3263 -0.3883
 2576TIP3    H129219   3.693   2.186   6.599  1.6585  0.3443 -0.8331
 2576TIP3    H229220   3.737   2.293   6.501  0.1416 -0.3168 -2.2768
 2577TIP3   OH229221   1.078   2.447   2.816 -0.1066  0.1361  0.2570
 2577TIP3    H129222   1.058   2.496   2.736 -1.4084 -1.9272 -0.7813
 2577TIP3    H229223   1.094   2.514   2.882  0.1555  1.9188 -1.5186
 2578TIP3   OH229224   6.579   0.489   4.629 -0.3115 -0.0097 -0.1214
 2578TIP3    H129225   6.641   0.560   4.617 -0.1704 -0.3913 -1.9653
 2578TIP3    H229226   6.610   0.442   4.707  1.5850 -0.0406 -0.8464
 2579TIP3   OH229227   5.924   0.689   5.952  0.1218  0.3818  0.2051
 2579TIP3    H129228   5.935   0.783   5.967 -2.2394  0.5126  1.7319
 2579TIP3    H229229   6.006   0.650   5.982  0.6028  1.8502  0.9113
 2580TIP3   OH229230   6.144   1.394  16.548 -0.3767  0.3118 -0.0173
 2580TIP3    H129231   6.176   1.430  16.630 -1.3007  0.6732  0.1915
 2580TIP3    H229232   6.198   1.316  16.533  1.3904  1.5229 -0.2775
 2581TIP3   OH229233   1.650   4.668   5.741  0.3954 -0.3159 -0.0578
 2581TIP3    H129234   1.695   4.632   5.817  0.6912  0.1691 -0.0010
 2581TIP3    H229235   1.660   4.601   5.673  0.6572 -0.4859  0.1480
 2582TIP3   OH229236   1.791   3.650  17.142  0.2145  0.3502 -0.3231
 2582TIP3    H129237   1.704   3.613  17.155  0.6800 -0.2699  1.2411
 2582TIP3    H229238   1.831   3.595  17.074 -0.2024 -0.0724 -0.2277
 2583TIP3   OH229239   6.299   4.964  12.156  0.1092 -0.3625 -0.0436
 2583TIP3    H129240   6.361   5.028  12.121  0.1260 -0.7671 -0.7873
 2583TIP3    H229241   6.219   5.013  12.173  0.0957 -0.1576 -0.6912
 2584TIP3   OH229242   1.273   6.624  17.155  0.0785  0.1466  0.1932
 2584TIP3    H129243   1.229   6.604  17.238 -0.3000 -2.0422 -0.4813
 2584TIP3    H229244   1.233   6.706  17.127 -2.0429 -0.6318  0.6892
 2585TIP3   OH229245   6.181   4.459  15.759 -0.2428 -0.7503  0.2377
 2585TIP3    H129246   6.248   4.406  15.715  0.0955  0.0345 -0.2243
 2585TIP3    H229247   6.150   4.404  15.831 -0.7809 -2.0603 -0.9358
 2586TIP3   OH229248   3.898   3.703   5.871 -0.2125  0.0081 -0.0183
 2586TIP3    H129249   3.862   3.689   5.783  0.0432  2.1156 -0.5313
 2586TIP3    H229250   3.844   3.649   5.928  0.0146 -1.9228 -1.5077
 2587TIP3   OH229251   1.188   4.300   1.936  0.0643  0.5100  0.0927
 2587TIP3    H129252   1.154   4.378   1.979 -2.4917  0.2544 -1.2564
 2587TIP3    H229253   1.148   4.301   1.849  0.7046 -1.7976 -0.3053
 2588TIP3   OH229254   1.203   2.802   2.884 -0.2340 -0.2274 -0.5065
 2588TIP3    H129255   1.167   2.730   2.936 -1.4321  0.2649 -0.6229
 2588TIP3    H229256   1.126   2.851   2.855  0.5892  1.8722  0.6813
 2589TIP3   OH229257   1.818   1.531   5.249  0.2156  0.1531 -0.2151
 2589TIP3    H129258   1.902   1.524   5.295  0.6827  2.3787 -0.5766
 2589TIP3    H229259   1.753   1.533   5.319  0.6152  0.0257  0.1695
 2590TIP3   OH229260   6.065   5.131  12.147 -0.1739  0.1953  0.1383
 2590TIP3    H129261   6.029   5.121  12.235  0.9610  0.4050  0.6534
 2590TIP3    H229262   6.032   5.215  12.117  0.9656  1.0525  1.1623
 2591TIP3   OH229263   2.633   1.063  13.324 -0.0746  0.2826  0.1666
 2591TIP3    H129264   2.659   1.154  13.309 -1.6996  0.5665 -1.2466
 2591TIP3    H229265   2.538   1.064  13.316 -0.3044 -1.2507  1.9775
 2592TIP3   OH229266   6.115   2.844  12.232  0.4108  0.7252 -0.7423
 2592TIP3    H129267   6.038   2.791  12.210  0.6169  0.6503 -1.2940
 2592TIP3    H229268   6.081   2.933  12.241  0.0973  0.5381 -0.0154
 2593TIP3   OH229269   5.098   1.398  12.493 -0.5657 -0.8053  0.1615
 2593TIP3    H129270   5.152   1.368  12.420  0.8299  0.1982  0.7233
 2593TIP3    H229271   5.121   1.340  12.566 -0.1410 -0.3314  0.4203
 2594TIP3   OH229272   6.034   4.661  15.947  0.2681 -0.5282 -0.4002
 2594TIP3    H129273   6.030   4.641  15.853  1.0011  0.2052 -0.5996
 2594TIP3    H229274   6.040   4.575  15.989 -0.9735 -0.9151 -0.9566
 2595TIP3   OH229275   2.159   3.352  15.350 -0.3189  0.5116  0.4125
 2595TIP3    H129276   2.254   3.338  15.348 -0.1922  0.9955  1.7569
 2595TIP3    H229277   2.125   3.294  15.282  0.8940  0.0016  0.2040
 2596TIP3   OH229278   2.160   3.559  11.014 -0.0382 -0.0383  0.4938
 2596TIP3    H129279   2.084   3.613  10.993 -0.5914 -0.8111  0.4673
 2596TIP3    H229280   2.162   3.493  10.944  0.5615 -0.1180  0.5812
 2597TIP3   OH229281   1.026   2.194  14.258 -0.2227  0.3760  0.0464
 2597TIP3    H129282   1.024   2.165  14.167 -1.4446 -1.2678  0.5538
 2597TIP3    H229283   1.011   2.289  14.253 -0.4170  0.2954 -1.4382
 2598TIP3   OH229284   5.992   0.785   1.967  0.0355  0.6843 -0.5512
 2598TIP3    H129285   6.039   0.707   1.997 -1.5368  0.1613  0.6658
 2598TIP3    H229286   6.007   0.850   2.036 -3.4452 -0.4653  1.5214
 2599TIP3   OH229287   1.977   6.400   5.448  0.0464 -1.0768 -0.2159
 2599TIP3    H129288   1.929   6.422   5.527  1.4045 -3.3074  1.3487
 2599TIP3    H229289   1.909   6.376   5.385 -1.1364  2.1647 -0.3280
 2600TIP3   OH229290   2.046   1.621   0.070  0.0760  0.0597 -0.8132
 2600TIP3    H129291   2.136   1.620   0.036  0.4026  1.7731 -0.1031
 2600TIP3    H229292   2.047   1.560   0.144  0.1667 -1.2816 -1.8796
 2601TIP3   OH229293   1.580   6.075  12.989 -0.2362  0.1709  0.1963
 2601TIP3    H129294   1.602   5.989  13.026  0.2900 -0.0503 -0.6144
 2601TIP3    H229295   1.484   6.073  12.982 -0.2588 -0.1987  0.5343
 2602TIP3   OH229296   2.040   2.471   3.656 -1.1052 -0.1659 -0.5020
 2602TIP3    H129297   2.058   2.377   3.646  2.0136  0.1667  0.6437
 2602TIP3    H229298   2.104   2.513   3.599  0.2105  1.2468  1.8612
 2603TIP3   OH229299   5.994   1.852  11.749 -0.1633 -0.3625  0.4241
 2603TIP3    H129300   5.985   1.892  11.662  1.2879  0.8013  0.7882
 2603TIP3    H229301   6.077   1.805  11.745  0.2010  0.2009  1.3899
 2604TIP3   OH229302   1.275   2.852  15.064  0.1836  0.1455  0.0053
 2604TIP3    H129303   1.340   2.900  15.115  0.7419 -2.3659  1.8731
 2604TIP3    H229304   1.319   2.770  15.041 -1.8573 -1.0514  0.1247
 2605TIP3   OH229305   1.838   2.738  13.432  0.3342 -0.5650  0.4825
 2605TIP3    H129306   1.762   2.703  13.479  1.5877 -2.7334  1.0616
 2605TIP3    H229307   1.818   2.725  13.340 -0.0301 -1.0666  0.6311
 2606TIP3   OH229308   2.604   3.799   2.287  0.1709  0.1745 -0.0280
 2606TIP3    H129309   2.590   3.856   2.212 -0.6112 -1.4813 -1.2003
 2606TIP3    H229310   2.558   3.842   2.359 -1.9482  0.1735 -1.2953
 2607TIP3   OH229311   6.043   1.854   5.319  0.0673  0.2971 -0.5746
 2607TIP3    H129312   5.988   1.796   5.266 -1.0959  2.0529 -1.4028
 2607TIP3    H229313   6.029   1.824   5.409 -3.1954  1.2772 -0.6037
 2608TIP3   OH229314   2.853   1.066   2.214 -0.1101 -0.0998 -0.5083
 2608TIP3    H129315   2.921   1.012   2.254 -0.1143  0.7509  0.6929
 2608TIP3    H229316   2.849   1.036   2.124 -0.2678 -2.2616  0.1685
 2609TIP3   OH229317   4.911   5.231   5.859  0.5762 -0.7464 -0.1367
 2609TIP3    H129318   4.947   5.310   5.901 -1.9690 -0.5682  2.0449
 2609TIP3    H229319   4.961   5.159   5.896  1.0245 -0.3199  0.1000
 2610TIP3   OH229320   2.222   3.788  17.287 -0.9782 -0.7772 -0.5229
 2610TIP3    H129321   2.129   3.772  17.299 -1.1902  0.5356 -0.3045
 2610TIP3    H229322   2.240   3.763  17.197 -1.1772 -2.5822 -0.1081
 2611TIP3   OH229323   4.374   2.327   1.470 -0.3579 -0.2025 -0.2314
 2611TIP3    H129324   4.415   2.267   1.531 -1.7395 -1.1597 -0.2054
 2611TIP3    H229325   4.433   2.329   1.395  1.2624  0.8405  1.0071
 2612TIP3   OH229326   5.473   0.694  11.761 -0.3611  0.3653  0.0044
 2612TIP3    H129327   5.480   0.781  11.722 -0.1664  0.1261 -0.5048
 2612TIP3    H229328   5.534   0.640  11.711 -1.8005 -0.4948 -0.8988
 2613TIP3   OH229329   3.100   3.033   5.839  0.4051  0.0275 -0.3415
 2613TIP3    H129330   3.049   3.068   5.766 -0.0787 -2.3854 -1.2589
 2613TIP3    H229331   3.037   2.979   5.887  1.8677 -2.7050 -1.2838
 2614TIP3   OH229332   0.056   5.168   3.702 -0.3157  0.3116  0.1946
 2614TIP3    H129333   0.003   5.230   3.753 -0.8258  0.5554 -0.6012
 2614TIP3    H229334   0.005   5.154   3.622  0.2282 -0.4453 -0.0306
 2615TIP3   OH229335   3.947   4.817   1.047  0.8019  0.3391 -0.0396
 2615TIP3    H129336   3.878   4.861   1.096  0.7833 -1.0795  1.2926
 2615TIP3    H229337   4.026   4.829   1.099  1.1554  0.2969 -0.5582
 2616TIP3   OH229338   3.804   1.928  12.357  0.0336  0.1396  0.0632
 2616TIP3    H129339   3.719   1.963  12.384  0.7460  1.2786  0.9295
 2616TIP3    H229340   3.861   1.946  12.431  1.0815 -0.4462 -0.5854
 2617TIP3   OH229341   0.899   5.993   5.381 -0.1705 -0.1128  0.0240
 2617TIP3    H129342   0.916   6.034   5.466 -2.1934  0.6254  0.1308
 2617TIP3    H229343   0.872   6.066   5.325 -0.1859 -0.7976 -0.8837
 2618TIP3   OH229344   1.256   5.182   2.456  0.3068  0.0116 -0.0727
 2618TIP3    H129345   1.236   5.265   2.412  1.4646  1.4593  1.9407
 2618TIP3    H229346   1.182   5.168   2.516 -0.6340 -1.2690 -1.4726
 2619TIP3   OH229347   5.448   2.584   2.021  0.0930  0.9967  0.1408
 2619TIP3    H129348   5.415   2.541   1.942  0.1717  0.8665  0.1786
 2619TIP3    H229349   5.447   2.515   2.088 -1.1269  1.4115  0.5709
 2620TIP3   OH229350   0.418   5.209  14.528  0.2463  0.1023  0.2007
 2620TIP3    H129351   0.338   5.167  14.497  0.1424 -0.6908  1.5018
 2620TIP3    H229352   0.475   5.136  14.552  2.7568  0.4262 -3.7807
 2621TIP3   OH229353   5.241   4.891   0.978 -0.3039  0.2934  0.6579
 2621TIP3    H129354   5.291   4.854   0.905  3.0528  0.9009  2.4583
 2621TIP3    H229355   5.178   4.823   1.000  2.8572 -2.7241  1.1738
 2622TIP3   OH229356   4.654   6.347   4.404 -0.3061 -0.2766  0.2714
 2622TIP3    H129357   4.603   6.420   4.437  1.2590 -0.0158  2.2815
 2622TIP3    H229358   4.647   6.354   4.309  0.0292  2.6788  0.3740
 2623TIP3   OH229359   0.663   6.216   3.050 -0.4300  1.2962  0.0160
 2623TIP3    H129360   0.604   6.209   2.976 -0.4585 -0.5207  0.1714
 2623TIP3    H229361   0.729   6.149   3.035 -0.9883  0.1819  2.0709
 2624TIP3   OH229362   2.819   1.795   6.829 -0.2496  0.5287 -0.1975
 2624TIP3    H129363   2.824   1.701   6.846 -2.2998  0.7832  2.3757
 2624TIP3    H229364   2.897   1.831   6.872 -0.6516  0.2036  0.8354
 2625TIP3   OH229365   4.884   3.082   5.812 -0.2176  0.2404 -0.4531
 2625TIP3    H129366   4.825   3.110   5.742 -1.0215  0.3113  0.2419
 2625TIP3    H229367   4.837   3.011   5.855  1.3771 -1.5962 -1.5811
 2626TIP3   OH229368   5.600   6.695  13.151 -0.4523 -0.3281 -0.1097
 2626TIP3    H129369   5.545   6.618  13.163  0.3029 -0.9597 -0.6686
 2626TIP3    H229370   5.687   6.661  13.132  0.1412  0.6580  0.6833
 2627TIP3   OH229371   1.227   3.466   3.982 -0.9529 -0.7570 -0.0767
 2627TIP3    H129372   1.284   3.499   4.051 -0.2744 -2.1898  0.0786
 2627TIP3    H229373   1.138   3.480   4.016 -0.6616 -0.3497  0.5440
 2628TIP3   OH229374   4.032   0.515  14.901 -0.0900 -0.6944 -0.2644
 2628TIP3    H129375   4.076   0.445  14.949  1.2718 -0.8857 -1.7139
 2628TIP3    H229376   3.941   0.486  14.894  0.6226 -2.7568 -1.5888
 2629TIP3   OH229377   4.580   1.299  16.625  0.1308  0.4413  0.2868
 2629TIP3    H129378   4.575   1.344  16.709  0.6424  0.3587  0.3637
 2629TIP3    H229379   4.607   1.366  16.563 -1.2163  0.7379 -0.0096
 2630TIP3   OH229380   2.042   0.217   5.741 -0.3480 -0.6832 -0.9694
 2630TIP3    H129381   1.981   0.289   5.755  1.2404  0.3247  1.5385
 2630TIP3    H229382   2.062   0.185   5.830  1.8100 -1.7359 -1.7589
 2631TIP3   OH229383   0.059   1.756   4.248 -0.3060 -0.0116  0.2230
 2631TIP3    H129384   0.029   1.736   4.337 -1.8071  0.1118 -0.2209
 2631TIP3    H229385   0.108   1.679   4.221  1.3431  0.4957  1.6257
 2632TIP3   OH229386   3.803   6.291  14.143 -0.3859 -0.4218  0.1815
 2632TIP3    H129387   3.832   6.232  14.073  3.4248  1.7703 -0.3976
 2632TIP3    H229388   3.848   6.260  14.221 -1.2436 -0.3410  0.7236
 2633TIP3   OH229389   0.255   6.162  15.521 -0.7505 -0.4700 -0.3464
 2633TIP3    H129390   0.312   6.100  15.477  0.8409  1.4484 -1.1572
 2633TIP3    H229391   0.258   6.241  15.466 -1.8720  0.6753  1.1387
 2634TIP3   OH229392   0.400   0.893   2.379  0.7120  0.2135  0.7936
 2634TIP3    H129393   0.459   0.901   2.304  1.4729 -0.5866  1.2939
 2634TIP3    H229394   0.429   0.814   2.424  0.2783  0.6973  1.9533
 2635TIP3   OH229395   6.410   5.754  15.393 -0.5195  0.1109  0.1004
 2635TIP3    H129396   6.319   5.767  15.419 -0.3777  0.9049  0.2086
 2635TIP3    H229397   6.421   5.806  15.314 -0.6300 -1.3951 -0.9480
 2636TIP3   OH229398   4.343   6.717  13.821  0.3234 -0.2207  0.0869
 2636TIP3    H129399   4.302   6.636  13.851 -0.4133  0.3938  0.7885
 2636TIP3    H229400   4.321   6.722  13.728 -1.4066  0.1876  0.4850
 2637TIP3   OH229401   4.757   4.761  12.815  0.1184 -0.4879  0.0753
 2637TIP3    H129402   4.690   4.819  12.778  0.5535 -0.8146 -1.2935
 2637TIP3    H229403   4.711   4.714  12.885  0.4234  3.4131  3.2845
 2638TIP3   OH229404   1.862   5.336   1.875 -0.3881 -0.2261 -0.1541
 2638TIP3    H129405   1.939   5.287   1.845 -2.7867 -2.8155 -2.6536
 2638TIP3    H229406   1.828   5.379   1.797  0.2127  3.7367  1.5191
 2639TIP3   OH229407   1.656   3.101  16.765  0.3356  0.3622 -0.5526
 2639TIP3    H129408   1.719   3.171  16.747 -0.8669  1.0909 -2.2468
 2639TIP3    H229409   1.657   3.047  16.686 -2.8601  1.8337 -1.7845
 2640TIP3   OH229410   2.979   4.028  15.890 -0.7166  0.1480 -0.5486
 2640TIP3    H129411   2.995   4.025  15.984  1.8927 -0.4105 -0.9334
 2640TIP3    H229412   2.911   3.961  15.875 -0.0728 -0.8277  0.7579
 2641TIP3   OH229413   6.101   2.164   0.467 -0.2400 -0.0994 -0.0674
 2641TIP3    H129414   6.145   2.087   0.503  1.7704  0.3993 -1.3150
 2641TIP3    H229415   6.040   2.192   0.536 -0.3561 -2.2406  0.7557
 2642TIP3   OH229416   2.052   3.660  12.210 -0.0624  0.2132 -0.6724
 2642TIP3    H129417   2.018   3.632  12.125  0.0387  0.2505 -0.7249
 2642TIP3    H229418   2.066   3.579  12.258  0.9354  0.1296 -1.0959
 2643TIP3   OH229419   0.313   4.104   5.517 -0.6462 -0.1168  0.5873
 2643TIP3    H129420   0.356   4.059   5.589  1.6429  1.3402  0.2321
 2643TIP3    H229421   0.282   4.186   5.554  2.1170  1.4827 -0.2776
 2644TIP3   OH229422   3.675   3.669   2.473 -0.4099 -0.7742  0.3022
 2644TIP3    H129423   3.661   3.660   2.379  1.0076  0.8591 -0.1215
 2644TIP3    H229424   3.669   3.763   2.489  2.5154 -0.6434  1.2344
 2645TIP3   OH229425   1.247   4.383   5.486 -0.2622  0.3095 -0.0305
 2645TIP3    H129426   1.331   4.386   5.438  0.7717  1.0296  1.7426
 2645TIP3    H229427   1.183   4.357   5.419  1.3762 -0.4026 -1.4206
 2646TIP3   OH229428   2.049   2.061  14.069  0.7490 -0.3026  0.2019
 2646TIP3    H129429   2.036   1.971  14.098 -1.9209 -0.4514 -1.2011
 2646TIP3    H229430   2.099   2.053  13.987  0.1906 -0.5453 -0.1181
 2647TIP3   OH229431   6.499   1.335  16.165 -0.3106  0.1930 -0.1176
 2647TIP3    H129432   6.410   1.309  16.142 -0.4101  0.1538  0.2930
 2647TIP3    H229433   6.550   1.322  16.086 -0.0926 -2.4278  0.3790
 2648TIP3   OH229434   1.839   6.657   2.165  0.2590 -0.0683  0.0116
 2648TIP3    H129435   1.828   6.594   2.095  2.3743 -1.0229  0.4541
 2648TIP3    H229436   1.892   6.611   2.231  2.7482  2.4080 -0.0808
 2649TIP3   OH229437   2.802   4.662   0.819  0.4682  0.3974 -0.1352
 2649TIP3    H129438   2.788   4.712   0.739 -2.4705  0.9559  0.5927
 2649TIP3    H229439   2.723   4.608   0.828  1.2046 -0.4684  1.8183
 2650TIP3   OH229440   6.289   1.747   3.275  0.1819  0.3130 -0.0683
 2650TIP3    H129441   6.240   1.666   3.261  1.4278 -0.4633 -0.1170
 2650TIP3    H229442   6.289   1.759   3.370  2.4375 -1.3929  0.2419
 2651TIP3   OH229443   2.606   0.654   5.372  0.5769  0.3754  0.3046
 2651TIP3    H129444   2.572   0.724   5.428  0.9623 -0.3579  1.5018
 2651TIP3    H229445   2.530   0.601   5.350  0.0251  1.9082 -1.7968
 2652TIP3   OH229446   6.708   4.736   3.651 -0.3735 -0.4203 -0.0243
 2652TIP3    H129447   6.792   4.781   3.642 -0.9799  1.0301  1.3026
 2652TIP3    H229448   6.662   4.782   3.720 -1.4788 -2.4445  0.6909
 2653TIP3   OH229449   5.214   0.059  15.419 -0.2011  0.0124 -0.4507
 2653TIP3    H129450   5.219   0.129  15.354 -2.3815  0.1028 -0.5930
 2653TIP3    H229451   5.124   0.028  15.415  0.2686 -1.7004  0.7863
 2654TIP3   OH229452   1.935   6.351  15.733 -0.2554 -0.0301 -0.0619
 2654TIP3    H129453   1.877   6.414  15.776  0.4675  1.3838 -1.0518
 2654TIP3    H229454   1.989   6.315  15.803  0.1537  1.3958  0.3997
 2655TIP3   OH229455   4.090   6.749  14.160  0.0980  0.0202  0.2432
 2655TIP3    H129456   4.158   6.709  14.213  0.9341  0.1526 -0.6970
 2655TIP3    H229457   4.009   6.738  14.211  1.0940  1.6242  2.3298
 2656TIP3   OH229458   1.759   2.834  14.221  0.4003 -0.4435 -0.1472
 2656TIP3    H129459   1.804   2.854  14.304 -0.7393 -1.9488  0.8976
 2656TIP3    H229460   1.693   2.769  14.245 -0.4681 -0.3630 -2.1348
 2657TIP3   OH229461   6.242   3.715   3.859  0.2317 -0.2111  0.1608
 2657TIP3    H129462   6.264   3.625   3.881  1.6318  0.2298  0.6177
 2657TIP3    H229463   6.267   3.766   3.935 -0.5342  0.5873 -0.0984
 2658TIP3   OH229464   5.673   5.522  11.673  0.0495 -0.0023  0.3541
 2658TIP3    H129465   5.607   5.464  11.635  0.2729  0.1975 -0.3678
 2658TIP3    H229466   5.755   5.473  11.666  0.3247  0.5581 -0.7099
 2659TIP3   OH229467   5.356   5.278  15.893  0.1242  0.1691 -0.0272
 2659TIP3    H129468   5.292   5.245  15.830  0.2311 -0.6447  0.2845
 2659TIP3    H229469   5.306   5.335  15.951  0.0061  0.8450 -0.7848
 2660TIP3   OH229470   5.719   4.358   6.420  0.3528 -0.3352 -0.6751
 2660TIP3    H129471   5.762   4.338   6.503  0.1432  1.2497 -0.1545
 2660TIP3    H229472   5.648   4.294   6.413 -0.3894  0.2576  0.9758
 2661TIP3   OH229473   2.746   0.563   0.352  0.3860 -0.0905 -0.2242
 2661TIP3    H129474   2.738   0.616   0.274  1.8567 -1.4951 -1.4042
 2661TIP3    H229475   2.755   0.626   0.424 -0.1292  1.2121 -1.2738
 2662TIP3   OH229476   5.207   3.906   2.286 -0.4338  0.1691 -0.2190
 2662TIP3    H129477   5.135   3.925   2.226  0.0006 -0.2809 -0.8954
 2662TIP3    H229478   5.165   3.875   2.366 -0.9743 -0.5965 -0.7951
 2663TIP3   OH229479   0.014   0.286   2.556 -0.1725 -0.3264  0.0858
 2663TIP3    H129480  -0.004   0.280   2.462  1.9795 -1.2213 -0.3111
 2663TIP3    H229481  -0.008   0.199   2.590  0.1175 -0.3496  0.2127
 2664TIP3   OH229482   0.927   1.750   5.698  0.8366 -0.1433  0.2329
 2664TIP3    H129483   0.902   1.842   5.686 -0.7377 -0.6561 -0.7136
 2664TIP3    H229484   0.860   1.715   5.757  2.5870 -0.2322  2.2823
 2665TIP3   OH229485   2.044   5.015  13.430 -0.1364  0.2117  0.2244
 2665TIP3    H129486   2.055   4.946  13.365  1.4975 -0.4985  1.2044
 2665TIP3    H229487   2.084   4.981  13.510  1.5600  2.5921  0.5121
 2666TIP3   OH229488   1.126   3.392   2.285 -0.2552  0.0832 -0.2550
 2666TIP3    H129489   1.032   3.373   2.292 -0.4069  0.1254 -1.7354
 2666TIP3    H229490   1.168   3.313   2.319 -0.8034  0.3034  0.9950
 2667TIP3   OH229491   4.908   0.037  16.508 -0.0087 -0.2420 -0.1196
 2667TIP3    H129492   4.991  -0.004  16.482  0.4423 -0.4549  1.4966
 2667TIP3    H229493   4.934   0.108  16.566 -0.9508 -0.2448  0.3261
 2668TIP3   OH229494   3.366   6.688  15.200 -0.0139 -0.4535  0.2419
 2668TIP3    H129495   3.448   6.640  15.215  0.7408  0.8302  0.4120
 2668TIP3    H229496   3.335   6.709  15.288 -0.5583 -0.9663  0.1779
 2669TIP3   OH229497   1.195   0.512  11.834  0.2399 -0.0841  0.7868
 2669TIP3    H129498   1.225   0.430  11.873  0.6377  0.7428  2.2718
 2669TIP3    H229499   1.106   0.523  11.866 -0.1025 -0.3229 -0.0582
 2670TIP3   OH229500   2.500   6.631  14.638  0.1300 -0.6172  0.0829
 2670TIP3    H129501   2.590   6.658  14.654  0.5475 -0.2967 -2.3936
 2670TIP3    H229502   2.454   6.713  14.615 -1.4660 -0.3606  3.5318
 2671TIP3   OH229503   0.014   1.006  14.595 -0.0436  0.2345 -0.0178
 2671TIP3    H129504  -0.034   1.064  14.654 -0.0420 -0.2023  0.4164
 2671TIP3    H229505   0.062   0.947  14.653 -0.6707 -0.7277 -0.4541
 2672TIP3   OH229506   0.856   2.611  16.903 -0.1090  0.2829  0.4946
 2672TIP3    H129507   0.831   2.552  16.832 -1.5312  1.6365 -0.2030
 2672TIP3    H229508   0.877   2.553  16.976 -2.2265 -1.1001  0.1072
 2673TIP3   OH229509   6.158   3.693  17.193 -0.2374  0.1294  0.0854
 2673TIP3    H129510   6.112   3.676  17.275  0.2373 -2.9442 -0.1757
 2673TIP3    H229511   6.104   3.758  17.148 -2.5279 -0.8654  1.2351
 2674TIP3   OH229512   0.865   4.296  13.878 -0.1534 -0.2692  0.8310
 2674TIP3    H129513   0.771   4.308  13.889 -0.0819  0.8259  0.3650
 2674TIP3    H229514   0.874   4.258  13.791 -0.0825  1.1957  0.1751
 2675TIP3   OH229515   0.731   5.784  16.032  0.0765 -0.0428 -0.7771
 2675TIP3    H129516   0.825   5.801  16.040  0.1689  0.6162 -2.8267
 2675TIP3    H229517   0.721   5.744  15.946 -1.8478  2.8007 -2.0342
 2676TIP3   OH229518   3.543   2.061   0.560 -0.3460 -0.7034 -0.6669
 2676TIP3    H129519   3.483   2.136   0.564 -2.3122 -2.0759 -2.0806
 2676TIP3    H229520   3.563   2.041   0.651 -0.2906  1.1123 -0.2376
 2677TIP3   OH229521   2.646   1.143   1.839 -0.3329  0.3189 -0.6426
 2677TIP3    H129522   2.611   1.071   1.892  0.0794  1.4818  1.2747
 2677TIP3    H229523   2.568   1.184   1.800 -0.6338 -0.5434 -0.9983
 2678TIP3   OH229524   4.770   0.980   5.254 -0.4766  0.0973 -0.2909
 2678TIP3    H129525   4.797   0.900   5.210  0.4172  0.4307 -0.3641
 2678TIP3    H229526   4.844   1.002   5.311 -1.0071  0.4818  0.2613
 2679TIP3   OH229527   5.471   6.484   6.393  0.0469  0.0031 -0.5657
 2679TIP3    H129528   5.539   6.544   6.423 -1.9966  1.3484  1.7508
 2679TIP3    H229529   5.398   6.540   6.367 -1.0983 -1.4116 -0.5574
 2680TIP3   OH229530   4.580   2.134  16.475  0.1785 -0.4188 -0.2276
 2680TIP3    H129531   4.522   2.167  16.407  2.0017  1.7905 -0.8049
 2680TIP3    H229532   4.553   2.181  16.554  0.7048  0.1133 -0.3536
 2681TIP3   OH229533   2.338   5.342   4.835  0.2000  0.1167 -0.0586
 2681TIP3    H129534   2.432   5.346   4.818  0.5051 -0.5372  1.2647
 2681TIP3    H229535   2.325   5.253   4.870 -0.8454  0.3204  0.0830
 2682TIP3   OH229536   6.009   0.984  16.319 -0.3904  0.0779  1.0141
 2682TIP3    H129537   5.988   1.019  16.405  2.4652  0.1204  1.7738
 2682TIP3    H229538   6.076   0.918  16.335  0.6829  0.5227 -1.2254
 2683TIP3   OH229539   4.521   4.134   4.291  0.0012 -0.3111  0.0392
 2683TIP3    H129540   4.516   4.041   4.313 -0.0820 -0.8546 -2.0802
 2683TIP3    H229541   4.568   4.136   4.207 -0.1387  1.5482 -0.0268
 2684TIP3   OH229542   3.523   5.239   5.062  0.5315  0.2143 -0.3419
 2684TIP3    H129543   3.464   5.232   5.137  2.0800  0.1586  0.9230
 2684TIP3    H229544   3.513   5.156   5.015  1.4152 -0.8577  1.2714
 2685TIP3   OH229545   6.670   4.158   1.025  0.1476  0.0037  0.0241
 2685TIP3    H129546   6.681   4.251   1.008 -0.8007  0.1363  0.0512
 2685TIP3    H229547   6.717   4.115   0.954 -3.3335  0.5500 -2.9474
 2686TIP3   OH229548   4.564   2.146  11.717  0.0892 -0.1359  0.1639
 2686TIP3    H129549   4.634   2.155  11.653 -0.1355  1.2488  0.0667
 2686TIP3    H229550   4.608   2.150  11.802  0.3438 -1.5543  0.1086
 2687TIP3   OH229551   5.602   5.793   1.107  0.2834  0.0388  0.0271
 2687TIP3    H129552   5.556   5.719   1.068  0.4816 -0.2927  0.4224
 2687TIP3    H229553   5.694   5.767   1.106  0.5503  0.9111 -1.2494
 2688TIP3   OH229554   4.553   1.561  11.563  0.4232  0.0789 -0.7413
 2688TIP3    H129555   4.558   1.526  11.652  0.8045 -1.3062 -1.2654
 2688TIP3    H229556   4.642   1.551  11.529 -0.3724 -2.6571 -2.3697
 2689TIP3   OH229557   6.435   5.875   3.467 -0.2049 -0.5748  0.0909
 2689TIP3    H129558   6.387   5.797   3.495 -0.5749 -0.0438  0.9738
 2689TIP3    H229559   6.505   5.885   3.531  0.2221 -0.5411 -0.3803
 2690TIP3   OH229560   2.287   0.749   1.356 -0.1267 -0.0999  0.0471
 2690TIP3    H129561   2.239   0.676   1.315  1.0408 -1.1484  0.4754
 2690TIP3    H229562   2.346   0.780   1.287  1.1209 -1.2043  0.5739
 2691TIP3   OH229563   6.223   2.432   4.615  0.4802  0.2359 -0.0717
 2691TIP3    H129564   6.127   2.432   4.609  0.5230  2.1378 -1.8706
 2691TIP3    H229565   6.240   2.455   4.706 -0.7970  0.5267  0.1241
 2692TIP3   OH229566   2.236   1.750   1.177  0.1225  0.1003  0.3373
 2692TIP3    H129567   2.149   1.770   1.143  0.6587  3.1490  0.4597
 2692TIP3    H229568   2.294   1.757   1.101  0.3325 -1.6984  0.2972
 2693TIP3   OH229569   0.118   1.476   3.481 -0.5842  0.6828  0.2652
 2693TIP3    H129570   0.072   1.444   3.559 -0.1684  1.7660  0.9781
 2693TIP3    H229571   0.103   1.571   3.482  3.2877  1.4489  1.7105
 2694TIP3   OH229572   6.479   6.514   4.136 -0.7230  0.6854  0.1818
 2694TIP3    H129573   6.541   6.452   4.174  0.2516  0.4619 -1.6636
 2694TIP3    H229574   6.393   6.485   4.167 -0.0694 -0.0887  1.3274
 2695TIP3   OH229575   0.357   4.490   3.258  0.2860 -0.2125  0.2027
 2695TIP3    H129576   0.382   4.546   3.331  1.1372 -1.1591  0.6622
 2695TIP3    H229577   0.336   4.550   3.187 -0.7555  0.7354  1.2663
 2696TIP3   OH229578   6.210   6.663  11.860  0.1656 -0.8982  0.2163
 2696TIP3    H129579   6.171   6.749  11.870  1.6462  0.1336 -1.9503
 2696TIP3    H229580   6.136   6.604  11.847 -0.8043  0.3669 -0.1484
 2697TIP3   OH229581   3.251   1.048  12.879 -0.6271 -0.5704  0.3370
 2697TIP3    H129582   3.304   0.969  12.867 -0.1681 -0.5215  1.8579
 2697TIP3    H229583   3.193   1.028  12.952  0.3098  0.8581  1.5442
 2698TIP3   OH229584   2.706   0.325   0.147  0.1568 -0.3957  0.2150
 2698TIP3    H129585   2.677   0.383   0.218 -0.5731 -1.1347  0.5275
 2698TIP3    H229586   2.744   0.249   0.191  3.2669  0.7859 -0.1561
 2699TIP3   OH229587   6.276   4.302   4.417 -0.1989  0.4825 -0.9369
 2699TIP3    H129588   6.278   4.227   4.358  0.7739 -0.0085 -0.2972
 2699TIP3    H229589   6.368   4.323   4.433 -0.3553 -0.5281  1.7871
 2700TIP3   OH229590   2.505   5.658   2.310  0.3967  0.5153  0.0443
 2700TIP3    H129591   2.458   5.676   2.228 -0.8095  0.5225  0.7163
 2700TIP3    H229592   2.478   5.569   2.334 -0.3340  1.0119  1.1233
 2701TIP3   OH229593   1.825   1.950   4.893 -0.1108 -0.4399  0.3051
 2701TIP3    H129594   1.873   1.870   4.914 -0.3952 -0.6588  0.1497
 2701TIP3    H229595   1.740   1.938   4.936  0.7146  0.9304  2.4957
 2702TIP3   OH229596   2.042   3.618  14.404 -0.0786 -0.1679  0.5745
 2702TIP3    H129597   2.065   3.690  14.462 -0.8956 -1.6165  2.8022
 2702TIP3    H229598   1.980   3.657  14.341 -1.1156  0.9428  2.2015
 2703TIP3   OH229599   6.506   6.479   6.236  0.2006 -0.2514 -0.7226
 2703TIP3    H129600   6.446   6.439   6.299  1.4708  1.3102  1.6188
 2703TIP3    H229601   6.576   6.415   6.226  1.6476  0.7301  2.1163
 2704TIP3   OH229602   4.030   6.696  14.631  0.3399 -0.2428  0.7854
 2704TIP3    H129603   4.090   6.767  14.606 -1.6982  0.7738 -1.7107
 2704TIP3    H229604   3.963   6.739  14.685  0.2709 -0.7448  1.1062
 2705TIP3   OH229605   6.353   1.600  14.860 -0.0384 -0.0021  0.2369
 2705TIP3    H129606   6.275   1.629  14.906  0.6205  2.3874 -0.0137
 2705TIP3    H229607   6.328   1.601  14.767  0.0508 -0.0836  0.2111
 2706TIP3   OH229608   4.361   3.566   5.069  0.5105 -0.9000 -0.1210
 2706TIP3    H129609   4.280   3.609   5.041  0.0727 -0.2242  2.0126
 2706TIP3    H229610   4.373   3.494   5.007 -2.0627 -1.4043 -0.1329
 2707TIP3   OH229611   5.225   0.290  14.817  0.0594  0.4910  0.4128
 2707TIP3    H129612   5.249   0.293  14.910 -0.1681 -1.0889  0.5606
 2707TIP3    H229613   5.169   0.212  14.810  1.0519 -0.1278 -1.2667
 2708TIP3   OH229614   2.969   4.584   1.679  0.3140 -0.0494 -0.2771
 2708TIP3    H129615   2.985   4.506   1.732  1.2648 -0.0717 -0.5709
 2708TIP3    H229616   2.895   4.560   1.623 -0.6447 -0.0553  0.9415
 2709TIP3   OH229617   3.939   1.465  13.761 -0.0017  0.0469  0.2089
 2709TIP3    H129618   3.999   1.390  13.762  0.1261  0.1441  0.9399
 2709TIP3    H229619   3.868   1.439  13.820 -1.5164 -0.7089 -1.8378
 2710TIP3   OH229620   2.612   0.339   5.566  0.1879  1.2149 -0.3702
 2710TIP3    H129621   2.522   0.323   5.536  0.2880  1.0565 -0.5884
 2710TIP3    H229622   2.636   0.258   5.612 -0.1096  1.6103  0.4949
 2711TIP3   OH229623   4.965   5.343   1.082  0.7918 -0.2249  0.0842
 2711TIP3    H129624   4.995   5.383   1.000 -1.6735 -1.3883 -1.5021
 2711TIP3    H229625   4.897   5.402   1.114 -1.1278 -1.7560 -0.9616
 2712TIP3   OH229626   3.007   2.788   2.968  0.4695 -0.6476 -0.6933
 2712TIP3    H129627   2.972   2.701   2.989  0.1476 -0.2365  0.5286
 2712TIP3    H229628   3.065   2.809   3.041 -0.3659  0.6661 -0.3821
 2713TIP3   OH229629   2.674   3.868  12.408  0.1197  0.4531 -0.4958
 2713TIP3    H129630   2.750   3.813  12.428 -1.3391 -1.3815  0.2672
 2713TIP3    H229631   2.681   3.884  12.314  0.5685 -1.1327 -0.7636
 2714TIP3   OH229632   4.124   3.144  17.110  0.0122  0.0578  0.2291
 2714TIP3    H129633   4.172   3.098  17.042  0.6585  1.9284 -0.6323
 2714TIP3    H229634   4.106   3.077  17.176  5.6756 -0.5213  1.7137
 2715TIP3   OH229635   3.961   1.096   3.159  0.2117  0.3515 -0.4447
 2715TIP3    H129636   3.987   1.087   3.251 -0.8886 -0.0937 -0.1552
 2715TIP3    H229637   4.005   1.175   3.129  0.5958  0.4954  0.4686
 2716TIP3   OH229638   5.359   5.245   1.643 -0.1649 -0.4447  0.3422
 2716TIP3    H129639   5.368   5.329   1.599  1.3592 -0.6009  0.2893
 2716TIP3    H229640   5.330   5.267   1.732  0.6387  0.1879  0.4630
 2717TIP3   OH229641   1.002   4.703   2.341  0.3626 -0.5185 -0.2925
 2717TIP3    H129642   1.059   4.738   2.409 -1.0615 -1.7120  1.6141
 2717TIP3    H229643   1.012   4.608   2.347 -1.3649 -0.7343 -0.2649
 2718TIP3   OH229644   4.150   2.106  12.164 -0.3802  0.1779 -0.4898
 2718TIP3    H129645   4.057   2.118  12.146 -0.6315 -0.8843 -0.0333
 2718TIP3    H229646   4.174   2.179  12.220 -1.1777 -0.0172  0.1312
 2719TIP3   OH229647   2.583   4.684  11.603 -0.5279  0.4674 -0.4727
 2719TIP3    H129648   2.510   4.633  11.639  0.6953 -0.0077  1.5048
 2719TIP3    H229649   2.566   4.773  11.632 -1.8435  0.9855 -2.6025
 2720TIP3   OH229650   2.537   5.860  16.124  0.0221 -1.0608  0.2412
 2720TIP3    H129651   2.470   5.828  16.184 -0.2597 -0.4250  0.2728
 2720TIP3    H229652   2.501   5.846  16.037 -1.0198  1.0551  0.2756
 2721TIP3   OH229653   2.026   6.267  17.302  0.2395  0.2203  0.1232
 2721TIP3    H129654   2.010   6.286  17.394 -0.7360  1.4116 -0.2716
 2721TIP3    H229655   1.969   6.327  17.254  0.0308 -1.0080 -1.2563
 2722TIP3   OH229656   1.340   6.589   3.985  0.4199  0.2640  0.1199
 2722TIP3    H129657   1.305   6.553   3.903  1.4923 -1.5663  0.4119
 2722TIP3    H229658   1.433   6.601   3.967  0.7852 -0.7622  1.2610
 2723TIP3   OH229659   2.921   4.029  10.419  0.1699  0.2744 -0.0724
 2723TIP3    H129660   2.956   4.068  10.499  1.8248  0.0049 -0.6172
 2723TIP3    H229661   2.992   4.039  10.355  0.4157 -2.9121 -0.4488
 2724TIP3   OH229662   2.262   1.984   6.472 -0.3188 -0.0599 -0.6382
 2724TIP3    H129663   2.313   2.001   6.552  1.5920 -0.8812 -1.6222
 2724TIP3    H229664   2.241   2.072   6.439  1.3790  0.3433 -0.7396
 2725TIP3   OH229665   1.047   2.435   3.356  0.0309  0.0912  0.1302
 2725TIP3    H129666   1.106   2.473   3.422 -0.3020 -0.7032  0.9040
 2725TIP3    H229667   1.104   2.380   3.303  0.0228 -0.6301  0.8406
 2726TIP3   OH229668   5.201   1.852  12.349  0.0237 -0.1267 -0.3614
 2726TIP3    H129669   5.126   1.804  12.384  0.5440 -1.1457 -0.6106
 2726TIP3    H229670   5.189   1.851  12.254  0.2201 -0.0814 -0.3884
 2727TIP3   OH229671   5.088   4.138  11.172 -0.5361 -0.0896  0.3180
 2727TIP3    H129672   5.022   4.138  11.103  0.7949 -0.0967 -1.0112
 2727TIP3    H229673   5.170   4.117  11.127  0.2078 -1.2249  2.0900
 2728TIP3   OH229674   5.734   1.368   2.151 -0.2800 -0.6714  0.1819
 2728TIP3    H129675   5.821   1.403   2.172  0.0687 -0.1565 -1.8439
 2728TIP3    H229676   5.752   1.293   2.094 -1.1506 -0.8448  0.1343
 2729TIP3   OH229677   3.761   0.905   3.487 -0.0141  0.2961 -0.3685
 2729TIP3    H129678   3.846   0.861   3.490  0.4499  1.1017 -1.2524
 2729TIP3    H229679   3.727   0.895   3.576  0.3921 -1.1824 -0.3441
 2730TIP3   OH229680   3.444   0.968  14.979  0.6184  0.6491 -0.0637
 2730TIP3    H129681   3.351   0.989  14.967  0.1877 -1.4613 -0.8560
 2730TIP3    H229682   3.450   0.942  15.071  0.1467 -0.2773 -0.2739
 2731TIP3   OH229683   2.970   4.536   3.369  0.1985  0.6791  0.5435
 2731TIP3    H129684   3.014   4.460   3.407 -0.0235  0.3009  0.0417
 2731TIP3    H229685   2.922   4.575   3.443  1.2428  1.0131  1.0667
 2732TIP3   OH229686   5.589   2.582   6.038 -0.3484  0.5167  0.6156
 2732TIP3    H129687   5.576   2.497   5.997 -0.2586  1.0390 -0.5432
 2732TIP3    H229688   5.584   2.565   6.132  1.4663 -1.0860  0.4892
 2733TIP3   OH229689   3.394   3.145  14.333 -0.2779  0.0557  0.5216
 2733TIP3    H129690   3.438   3.158  14.249 -1.4644 -1.4737 -0.3867
 2733TIP3    H229691   3.459   3.099  14.387  0.5145  1.1049  0.5022
 2734TIP3   OH229692   5.898   2.630  11.912  0.4491  0.4508 -0.2860
 2734TIP3    H129693   5.887   2.665  12.001  0.0370  0.1443 -0.2175
 2734TIP3    H229694   5.809   2.613  11.881  0.6238 -3.3347  0.7848
 2735TIP3   OH229695   0.194   2.709  13.675 -0.2703 -0.0710 -0.0911
 2735TIP3    H129696   0.266   2.757  13.716  1.0387  0.0971 -2.4289
 2735TIP3    H229697   0.168   2.763  13.601 -2.0974 -0.6634  0.0787
 2736TIP3   OH229698   5.331   2.903   3.381 -0.0743 -0.0845 -0.4102
 2736TIP3    H129699   5.381   2.941   3.309  2.0308  1.0154  1.4936
 2736TIP3    H229700   5.366   2.814   3.391 -1.3239 -0.7426 -1.5291
 2737TIP3   OH229701   3.572   3.549  12.085 -0.4084 -0.0125  0.1662
 2737TIP3    H129702   3.597   3.523  12.174  0.4392  1.6680  0.4548
 2737TIP3    H229703   3.654   3.576  12.044 -0.7271 -1.1406 -1.2941
 2738TIP3   OH229704   0.986   5.711   2.259 -0.3909 -0.1608 -0.1185
 2738TIP3    H129705   0.955   5.743   2.174 -1.6372  0.0636  0.3912
 2738TIP3    H229706   0.916   5.735   2.320  0.8638  0.4454  1.1323
 2739TIP3   OH229707   2.539   1.485   5.131  0.0016 -0.1409 -0.1575
 2739TIP3    H129708   2.535   1.391   5.115 -2.1141 -0.1585  0.1805
 2739TIP3    H229709   2.593   1.519   5.060  1.1779 -1.6460 -0.0224
 2740TIP3   OH229710   1.228   3.699   3.759  0.2905  0.1036  0.0313
 2740TIP3    H129711   1.239   3.623   3.817  0.5991 -0.1048 -0.2970
 2740TIP3    H229712   1.213   3.661   3.672 -0.1514  0.4145 -0.0356
 2741TIP3   OH229713   1.109   5.674   0.567 -0.1063 -0.0409 -0.1176
 2741TIP3    H129714   1.139   5.591   0.604 -1.0818 -0.3004  0.1323
 2741TIP3    H229715   1.048   5.709   0.633  2.6305  2.4656  1.3436
 2742TIP3   OH229716   0.625   2.927  14.079 -1.3004 -0.1462  0.2462
 2742TIP3    H129717   0.577   2.939  14.161 -2.3154  0.2270 -0.3886
 2742TIP3    H229718   0.677   3.007  14.070 -0.8349 -0.3832  0.7399
 2743TIP3   OH229719   2.460   3.761   3.352  0.1643  0.1360  1.0837
 2743TIP3    H129720   2.388   3.786   3.410  0.3039 -1.0336  1.7954
 2743TIP3    H229721   2.463   3.665   3.357 -1.0414 -0.2321 -2.3343
 2744TIP3   OH229722   5.429   6.561  13.974 -0.6828  0.0834 -0.8783
 2744TIP3    H129723   5.516   6.601  13.971  0.0456 -0.9093  2.6346
 2744TIP3    H229724   5.445   6.467  13.976 -1.8300 -0.1160 -0.0333
 2745TIP3   OH229725   2.280   3.825  16.469 -0.2646 -0.0350  0.2886
 2745TIP3    H129726   2.312   3.872  16.392  0.1687 -1.5851 -0.5237
 2745TIP3    H229727   2.336   3.856  16.540 -0.5565  1.2966 -0.0242
 2746TIP3   OH229728   4.167   3.639  14.284  0.2086 -0.0705 -0.2470
 2746TIP3    H129729   4.181   3.726  14.246  0.5627 -0.4572 -1.0410
 2746TIP3    H229730   4.174   3.579  14.209 -1.5251 -0.6670  0.0172
 2747TIP3   OH229731   1.754   6.784   4.615  0.1719  0.2868 -0.3676
 2747TIP3    H129732   1.755   6.874   4.648  0.7195  0.6201 -1.2478
 2747TIP3    H229733   1.761   6.730   4.693  1.1185  1.0485  0.0999
 2748TIP3   OH229734   0.341   3.496   2.582 -0.0047 -0.7929  0.1139
 2748TIP3    H129735   0.390   3.485   2.664  1.3437  0.6535 -0.4267
 2748TIP3    H229736   0.271   3.431   2.587  0.7735 -1.5857  1.8499
 2749TIP3   OH229737   4.782   0.775  14.003  0.3801  0.4364 -0.0148
 2749TIP3    H129738   4.825   0.757  14.087 -0.8489 -1.3326  0.2825
 2749TIP3    H229739   4.713   0.837  14.024 -0.3343 -0.4900  0.4208
 2750TIP3   OH229740   2.310   2.393   0.640 -0.2404  0.0517  0.5170
 2750TIP3    H129741   2.386   2.350   0.600  0.0478  1.2336 -0.2744
 2750TIP3    H229742   2.240   2.382   0.576 -0.1356  0.8285  0.2626
 2751TIP3   OH229743   6.004   5.268  13.701  0.1523 -0.6557 -0.0206
 2751TIP3    H129744   5.964   5.347  13.737  0.4356 -0.7581  0.5364
 2751TIP3    H229745   6.028   5.291  13.612 -0.2276 -0.2756 -0.0279
 2752TIP3   OH229746   2.005   3.186   4.687 -0.1907 -0.4527 -0.6162
 2752TIP3    H129747   2.074   3.134   4.727  0.1492  1.9011  2.2116
 2752TIP3    H229748   1.924   3.153   4.726 -0.2760 -0.7252 -1.0209
 2753TIP3   OH229749   3.636   6.288  16.649  0.2084  0.3244  0.5965
 2753TIP3    H129750   3.605   6.234  16.576  0.6634  0.9432 -0.0653
 2753TIP3    H229751   3.565   6.284  16.714 -0.7127  0.6813 -0.3534
 2754TIP3   OH229752   0.265   4.133   2.405 -0.3900 -0.1462  0.2819
 2754TIP3    H129753   0.249   4.102   2.494 -1.8120  0.0078  0.1020
 2754TIP3    H229754   0.326   4.069   2.368  0.2393 -0.1914  1.3698
 2755TIP3   OH229755   5.784   4.900   6.370  0.1822 -0.3966  0.0828
 2755TIP3    H129756   5.737   4.969   6.323  0.5804  0.8087  1.3778
 2755TIP3    H229757   5.715   4.844   6.405 -0.1891 -0.1189 -0.1905
 2756TIP3   OH229758   5.396   1.057   3.238 -0.1642 -0.2552 -0.0987
 2756TIP3    H129759   5.389   1.027   3.328 -1.7871 -0.3757 -0.2323
 2756TIP3    H229760   5.400   1.152   3.244  1.5637 -0.3172  0.1624
 2757TIP3   OH229761   2.542   1.349   2.202  0.1367 -0.1664 -0.2624
 2757TIP3    H129762   2.514   1.267   2.160 -1.0894  0.8332 -1.4826
 2757TIP3    H229763   2.494   1.351   2.285 -0.4353 -0.3334 -0.5799
 2758TIP3   OH229764   1.668   5.742   5.195  0.2276 -0.0606 -0.0220
 2758TIP3    H129765   1.679   5.698   5.279 -0.8334 -1.0432 -0.3626
 2758TIP3    H229766   1.724   5.694   5.135 -0.4161 -0.5571 -0.2476
 2759TIP3   OH229767   5.271   4.469   1.286  0.0626  0.2464  0.2029
 2759TIP3    H129768   5.304   4.554   1.255 -2.7292  1.6514  0.7119
 2759TIP3    H229769   5.249   4.421   1.206  2.6904 -0.5499 -0.1283
 2760TIP3   OH229770   2.072   0.183   4.843  0.1207  0.2188  0.4559
 2760TIP3    H129771   2.031   0.233   4.772 -0.3137 -1.4624 -0.5465
 2760TIP3    H229772   2.111   0.107   4.799  2.9609  0.8931  1.5978
 2761TIP3   OH229773   1.628   2.053   1.725 -0.4164 -0.2028 -0.0743
 2761TIP3    H129774   1.624   2.099   1.809  0.7352 -1.4916  0.7108
 2761TIP3    H229775   1.692   2.103   1.674  0.0329 -0.3167  0.3764
 2762TIP3   OH229776   0.649   0.648  16.399  0.2014 -0.4596 -0.4557
 2762TIP3    H129777   0.666   0.555  16.386  0.6124 -0.5307  0.5210
 2762TIP3    H229778   0.582   0.670  16.333  0.1987 -1.4079 -0.7752
 2763TIP3   OH229779   5.680   2.763   3.233  0.0358  0.3921  0.0955
 2763TIP3    H129780   5.717   2.780   3.319 -0.9863 -0.7969  0.8043
 2763TIP3    H229781   5.629   2.683   3.244  2.3251 -1.5884 -2.3201
 2764TIP3   OH229782   3.709   5.182  16.308 -0.0772 -0.2383 -0.2477
 2764TIP3    H129783   3.654   5.199  16.231  2.3449  0.8250 -1.8718
 2764TIP3    H229784   3.690   5.255  16.367 -1.1352 -0.4347 -0.3321
 2765TIP3   OH229785   6.616   5.372   4.403 -0.1377 -0.7889 -0.2918
 2765TIP3    H129786   6.663   5.330   4.331 -1.4463 -0.7101 -1.2513
 2765TIP3    H229787   6.665   5.452   4.420  1.7507 -2.1164  0.8099
 2766TIP3   OH229788   2.436   1.842  10.977  0.5362  0.4848  0.2958
 2766TIP3    H129789   2.373   1.771  10.975  0.5079  0.4865  0.9500
 2766TIP3    H229790   2.501   1.819  10.910  1.0019 -0.6053  1.0891
 2767TIP3   OH229791   6.178   3.010  14.233 -0.3826  0.2002 -0.0865
 2767TIP3    H129792   6.215   3.095  14.209  0.4430 -0.7000 -2.2206
 2767TIP3    H229793   6.096   3.006  14.184  0.1919 -0.7312 -0.9884
 2768TIP3   OH229794   0.957   4.618  10.503  0.3471  0.6116 -0.3833
 2768TIP3    H129795   1.023   4.669  10.457 -1.1674  1.6615 -1.4983
 2768TIP3    H229796   0.918   4.680  10.565 -2.4981  1.3994 -2.7404
 2769TIP3   OH229797   3.063   0.332   5.586  0.3270 -0.6058 -0.4371
 2769TIP3    H129798   3.017   0.367   5.662  0.8666 -2.7066  0.9442
 2769TIP3    H229799   3.156   0.340   5.608  0.5026 -0.7745 -1.0952
 2770TIP3   OH229800   3.662   1.926   6.040 -0.0897  0.3684  0.4743
 2770TIP3    H129801   3.709   1.856   6.085  2.4477  1.7086  0.1225
 2770TIP3    H229802   3.594   1.952   6.101  0.0564 -1.1915  1.3668
 2771TIP3   OH229803   3.778   3.082  14.163  0.3863 -0.4097 -0.2819
 2771TIP3    H129804   3.750   3.165  14.122 -0.1993  0.6371  2.0846
 2771TIP3    H229805   3.696   3.037  14.183  0.6008 -0.3052  0.8604
 2772TIP3   OH229806   1.216   1.193  13.363 -0.1682 -0.1904 -0.2858
 2772TIP3    H129807   1.215   1.202  13.458 -2.4640  0.3604 -0.2855
 2772TIP3    H229808   1.266   1.268  13.332  0.9508 -0.5924  0.4707
 2773TIP3   OH229809   2.381   5.167   1.381  0.3534  0.1732  0.0798
 2773TIP3    H129810   2.448   5.105   1.351  0.0713  0.8134 -2.1158
 2773TIP3    H229811   2.298   5.124   1.362  0.0860 -0.3802  2.2700
 2774TIP3   OH229812   2.232   0.627   3.377  0.3677 -0.1256 -0.0424
 2774TIP3    H129813   2.223   0.624   3.282 -0.5968 -0.9923  0.0628
 2774TIP3    H229814   2.321   0.597   3.393 -0.1824 -2.1574 -0.5735
 2775TIP3   OH229815   5.390   3.069   0.634  0.3148  0.6406  0.2994
 2775TIP3    H129816   5.441   2.992   0.656  2.3703  2.0932  0.9406
 2775TIP3    H229817   5.377   3.114   0.717  0.7794  1.8996 -0.2786
 2776TIP3   OH229818   2.632   2.568  17.079 -0.3361  0.0183  0.0855
 2776TIP3    H129819   2.641   2.475  17.059  0.0857  0.2008 -0.5772
 2776TIP3    H229820   2.673   2.613  17.006 -0.4333  0.7294  0.4578
 2777TIP3   OH229821   1.997   5.345  16.122 -0.4658 -0.3072  0.0252
 2777TIP3    H129822   2.006   5.387  16.207 -0.1332 -0.7713  0.2257
 2777TIP3    H229823   2.086   5.348  16.085 -0.6175 -0.0695 -0.3196
 2778TIP3   OH229824   5.326   1.507  15.458 -0.4042  0.2379  0.5216
 2778TIP3    H129825   5.376   1.427  15.442 -0.4688  0.4159 -0.6301
 2778TIP3    H229826   5.364   1.543  15.539  1.5014  0.4987 -0.4377
 2779TIP3   OH229827   6.139   3.719  15.682  0.1034  0.2196 -0.7380
 2779TIP3    H129828   6.085   3.643  15.703 -0.7236  0.8694 -0.4822
 2779TIP3    H229829   6.229   3.687  15.691 -0.2072 -0.2487  1.2544
 2780TIP3   OH229830   0.367   4.371  13.413 -0.2321 -0.2427  0.1725
 2780TIP3    H129831   0.326   4.344  13.495 -0.7169 -1.7429 -0.5175
 2780TIP3    H229832   0.317   4.449  13.386 -1.1499 -0.7084  0.4799
 2781TIP3   OH229833   6.760   3.172   0.089 -0.5094  0.5851 -0.2298
 2781TIP3    H129834   6.848   3.141   0.111  0.2077  2.0024 -0.9087
 2781TIP3    H229835   6.702   3.129   0.151  0.4165 -1.8443 -0.9312
 2782TIP3   OH229836   5.513   2.066   2.862  0.2456  0.3588 -0.1898
 2782TIP3    H129837   5.526   2.154   2.898 -2.0340  0.4124  0.6391
 2782TIP3    H229838   5.501   2.011   2.940  0.3080 -0.4496 -0.7475
 2783TIP3   OH229839   1.102   3.175  15.289  0.4132  0.0699 -0.2140
 2783TIP3    H129840   1.127   3.095  15.334  1.9012  1.3521  1.3576
 2783TIP3    H229841   1.130   3.162  15.198  3.9801  0.1140  0.7420
 2784TIP3   OH229842   0.585   2.430   0.231  0.4793  0.2886 -0.2826
 2784TIP3    H129843   0.531   2.397   0.160 -0.4290 -0.0624  0.5517
 2784TIP3    H229844   0.533   2.415   0.310  1.1714  1.2975  0.3916
 2785TIP3   OH229845   1.410   3.040  14.505 -0.0990 -0.1455 -0.5088
 2785TIP3    H129846   1.477   3.035  14.573 -1.2272 -2.2325  0.5692
 2785TIP3    H229847   1.348   2.970  14.528 -2.4005  1.3771 -1.7054
 2786TIP3   OH229848   4.799   5.358  13.925 -0.0503  0.5345 -0.5685
 2786TIP3    H129849   4.742   5.434  13.912  0.6414  0.8790 -1.7713
 2786TIP3    H229850   4.839   5.343  13.839 -0.7577 -1.6858 -0.5629
 2787TIP3   OH229851   5.503   6.137  13.197  0.6271 -0.2117  0.6516
 2787TIP3    H129852   5.487   6.176  13.111  1.1631  0.3855  0.8130
 2787TIP3    H229853   5.422   6.090  13.218  0.6798 -0.8154 -0.4129
 2788TIP3   OH229854   6.237   5.173   5.548 -0.3743  0.0909  0.5013
 2788TIP3    H129855   6.297   5.187   5.621  0.5117 -0.7595 -0.0392
 2788TIP3    H229856   6.155   5.145   5.589  0.1251 -0.4185  1.1631
 2789TIP3   OH229857   6.204   3.194  16.962 -0.1173 -0.3301  0.6316
 2789TIP3    H129858   6.172   3.157  16.880  0.4091 -1.4581  0.9204
 2789TIP3    H229859   6.149   3.155  17.030 -0.7150  0.7843  0.8226
 2790TIP3   OH229860   2.034   6.762   5.722 -0.1984  0.1602 -0.2909
 2790TIP3    H129861   2.077   6.846   5.734  0.4379 -0.1381 -0.4697
 2790TIP3    H229862   2.099   6.706   5.681 -0.8493 -0.2153 -0.8405
 2791TIP3   OH229863   6.386   3.136   5.716 -0.2788  0.8719 -0.6101
 2791TIP3    H129864   6.399   3.198   5.787  1.6786  1.6983 -1.6158
 2791TIP3    H229865   6.386   3.050   5.757 -3.4615  1.4399  0.8783
 2792TIP3   OH229866   3.033   3.495   1.073 -0.5345 -0.1016  0.3243
 2792TIP3    H129867   3.014   3.401   1.082 -2.0317  0.0409 -0.9225
 2792TIP3    H229868   2.951   3.533   1.044  0.6000  1.2724 -1.2512
 2793TIP3   OH229869   0.811   0.084  16.968 -0.2113 -0.3981 -0.2874
 2793TIP3    H129870   0.817   0.166  16.919  0.9661 -0.0000  0.4896
 2793TIP3    H229871   0.789   0.110  17.057  1.6603 -0.7474  0.3360
 2794TIP3   OH229872   1.365   5.256  14.454 -0.0276  0.5772  0.3171
 2794TIP3    H129873   1.364   5.227  14.363 -4.0737  4.0702 -1.0990
 2794TIP3    H229874   1.334   5.181  14.504 -2.3784 -0.0905 -1.9538
 2795TIP3   OH229875   1.377   0.412   0.223 -0.3061  0.5560 -0.1330
 2795TIP3    H129876   1.457   0.373   0.258 -0.7295  0.5157  0.8282
 2795TIP3    H229877   1.344   0.347   0.161  1.7985  1.7100 -2.6201
 2796TIP3   OH229878   0.898   6.642  13.677  0.4810  0.0479 -0.3005
 2796TIP3    H129879   0.859   6.716  13.723 -0.0961  0.0012 -0.7087
 2796TIP3    H229880   0.991   6.645  13.700  0.3539  0.5595  0.1371
 2797TIP3   OH229881   5.015   4.168  14.286 -0.1006  0.1410  0.3738
 2797TIP3    H129882   4.997   4.076  14.266 -0.3045  0.6193 -1.8444
 2797TIP3    H229883   4.957   4.187  14.360 -2.4369 -0.6981 -1.1239
 2798TIP3   OH229884   1.432   0.200  11.799  0.4638  0.2205 -0.4562
 2798TIP3    H129885   1.471   0.140  11.737  0.0077  0.9194 -1.4445
 2798TIP3    H229886   1.420   0.282  11.750  0.4080  0.8967  0.6406
 2799TIP3   OH229887   4.125   1.249  13.648 -0.2012  0.7894  0.0431
 2799TIP3    H129888   4.204   1.204  13.678  0.0329  1.8495  1.1172
 2799TIP3    H229889   4.157   1.311  13.582  0.1826  2.3813  1.6312
 2800TIP3   OH229890   5.015   4.258   0.493  0.1247 -0.7992  0.4265
 2800TIP3    H129891   4.919   4.263   0.487  0.1055  2.0561  1.5108
 2800TIP3    H229892   5.033   4.273   0.586  1.6500 -0.7611  0.1402
 2801TIP3   OH229893   0.216   2.026  17.138 -0.0817  0.1812  0.0617
 2801TIP3    H129894   0.138   2.052  17.186 -0.3700  0.4550 -0.5445
 2801TIP3    H229895   0.257   1.959  17.193 -0.8211 -0.0723  0.3138
 2802TIP3   OH229896   5.265   2.280   3.532 -0.1485 -0.1976  0.1151
 2802TIP3    H129897   5.267   2.184   3.535 -1.6175 -0.2587 -0.0878
 2802TIP3    H229898   5.219   2.305   3.612  0.4642  0.3534  0.2961
 2803TIP3   OH229899   5.074   3.165   6.011  0.2374 -0.0618 -0.2500
 2803TIP3    H129900   5.134   3.092   5.997  2.1059  0.9247  1.9859
 2803TIP3    H229901   4.988   3.124   6.020  0.9817 -1.8044 -0.7269
 2804TIP3   OH229902   6.531   2.524   3.398  0.0473  0.1387 -0.0252
 2804TIP3    H129903   6.514   2.611   3.364  0.0528 -0.5305 -1.8563
 2804TIP3    H229904   6.621   2.505   3.370  1.0957  0.5773  2.7442
 2805TIP3   OH229905   1.508   5.095  11.562 -0.0572  0.1867 -0.2751
 2805TIP3    H129906   1.453   5.159  11.517 -1.4462 -0.1836  0.8167
 2805TIP3    H229907   1.453   5.063  11.634  1.8314  0.3089  1.3082
 2806TIP3   OH229908   0.639   4.025  13.935  0.0143 -0.3345 -0.1551
 2806TIP3    H129909   0.616   3.953  13.994  1.7744 -0.7001  0.1491
 2806TIP3    H229910   0.730   4.008  13.912 -0.4580  0.0939 -2.5886
 2807TIP3   OH229911   2.037   3.299  15.602 -0.5207  0.2715 -0.2473
 2807TIP3    H129912   1.941   3.302  15.596 -0.4528  0.4868 -1.2948
 2807TIP3    H229913   2.066   3.284  15.512  0.3578 -1.6251  0.3076
 2808TIP3   OH229914   2.900   4.389  10.578 -0.0514 -0.1794 -0.2620
 2808TIP3    H129915   2.870   4.319  10.635 -2.8454  1.3851  0.3871
 2808TIP3    H229916   2.902   4.351  10.490  0.0600 -1.4441  0.2757
 2809TIP3   OH229917   2.069   6.661   0.905 -0.7581  0.5336  0.4447
 2809TIP3    H129918   2.017   6.583   0.926 -0.1302 -0.4213 -1.3388
 2809TIP3    H229919   2.133   6.667   0.975  0.6462 -1.9344 -0.5162
 2810TIP3   OH229920   2.941   3.319  10.606 -0.3198 -0.0273  0.2822
 2810TIP3    H129921   2.940   3.294  10.513  1.2173 -1.8688  0.7006
 2810TIP3    H229922   2.927   3.414  10.605 -3.7444 -0.3727 -1.5944
 2811TIP3   OH229923   4.217   0.413  15.788 -0.1118  0.0845  0.2076
 2811TIP3    H129924   4.281   0.472  15.749 -0.1125 -0.5922 -0.8554
 2811TIP3    H229925   4.139   0.421  15.733 -1.1278  1.1979  1.7200
 2812TIP3   OH229926   3.460   6.003   5.348  0.6412 -0.2495 -0.2253
 2812TIP3    H129927   3.449   6.053   5.267  2.0014  0.2954 -0.0921
 2812TIP3    H229928   3.373   6.004   5.389 -0.0601 -0.5339 -1.6612
 2813TIP3   OH229929   1.601   3.888  11.630 -0.2740  0.0858 -0.1657
 2813TIP3    H129930   1.543   3.815  11.653 -0.5848  0.2960 -0.2859
 2813TIP3    H229931   1.610   3.882  11.535  0.4213 -0.3359 -0.0877
 2814TIP3   OH229932   2.209   6.118  14.643  0.7665  0.0231 -1.0480
 2814TIP3    H129933   2.224   6.052  14.575 -0.1727 -0.2241 -1.0230
 2814TIP3    H229934   2.297   6.149  14.666  1.4299 -2.4907  0.2057
 2815TIP3   OH229935   5.136   6.332  14.978  0.2546 -0.1789  0.3072
 2815TIP3    H129936   5.160   6.264  14.915  1.0592  0.1564  0.2405
 2815TIP3    H229937   5.099   6.402  14.924 -1.8839 -1.0865  0.4921
 2816TIP3   OH229938   2.856   3.927   0.148  0.0717 -0.1298  0.7467
 2816TIP3    H129939   2.768   3.943   0.115  0.6069 -1.4943 -1.6577
 2816TIP3    H229940   2.911   3.988   0.100  0.9968 -2.7828 -1.8967
 2817TIP3   OH229941   1.109   2.124  15.157  0.2645  0.4322 -0.1804
 2817TIP3    H129942   1.141   2.035  15.170 -0.8449 -0.0397 -0.5532
 2817TIP3    H229943   1.122   2.140  15.063  1.4759  1.0834  0.0848
 2818TIP3   OH229944   4.158   0.748  14.882  0.3193  0.0696 -0.1399
 2818TIP3    H129945   4.252   0.756  14.868  0.3423  0.3556  0.1654
 2818TIP3    H229946   4.146   0.657  14.912  0.3999 -0.2037 -0.9203
 2819TIP3   OH229947   6.421   4.497  11.714  0.4022  0.9332  0.0910
 2819TIP3    H129948   6.432   4.556  11.640  0.1859  0.4712 -0.3142
 2819TIP3    H229949   6.387   4.552  11.785 -0.1576  1.2169 -0.3939
 2820TIP3   OH229950   3.680   1.264   3.796  0.1475  0.2098 -0.1260
 2820TIP3    H129951   3.657   1.174   3.773 -0.6278  0.4897 -0.4538
 2820TIP3    H229952   3.598   1.313   3.789  0.4385  0.8287  0.6420
 2821TIP3   OH229953   3.554   5.172  11.315 -0.2215  0.4093 -0.3335
 2821TIP3    H129954   3.625   5.175  11.251  0.9834  0.8830  0.9698
 2821TIP3    H229955   3.529   5.264  11.328  0.2602  0.4177  0.6184
 2822TIP3   OH229956   4.874   4.716   1.823  0.3169  0.2932 -0.4499
 2822TIP3    H129957   4.827   4.712   1.739 -1.2086  0.9372  0.3302
 2822TIP3    H229958   4.922   4.799   1.820 -1.3036  1.2986  0.0560
 2823TIP3   OH229959   3.545   3.539   2.986 -0.4317  0.3324 -0.9493
 2823TIP3    H129960   3.581   3.560   2.900  1.9429 -1.7823 -0.5989
 2823TIP3    H229961   3.476   3.476   2.969  0.0535 -0.1054 -1.3177
 2824TIP3   OH229962   4.983   4.293   4.089 -1.0717  0.3825  0.6453
 2824TIP3    H129963   4.987   4.217   4.147 -2.0373  0.1609  0.4488
 2824TIP3    H229964   5.069   4.298   4.048 -0.3179  0.6374  2.2045
 2825TIP3   OH229965   3.476   5.794  16.997  1.1035 -0.0755  0.5500
 2825TIP3    H129966   3.512   5.859  16.936 -1.4205  0.3187 -0.6365
 2825TIP3    H229967   3.533   5.718  16.986  1.5181  0.4444 -1.3629
 2826TIP3   OH229968   5.579   2.091   3.918 -0.1795 -0.3621  0.2660
 2826TIP3    H129969   5.486   2.073   3.907  0.4888 -3.2132 -2.0184
 2826TIP3    H229970   5.622   2.037   3.851  3.1100  1.0344  1.0592
 2827TIP3   OH229971   4.472   3.633  16.669  0.0037 -0.5096  0.3458
 2827TIP3    H129972   4.486   3.607  16.760  1.4181 -1.7795 -0.1941
 2827TIP3    H229973   4.559   3.634  16.630 -0.6557 -1.0849 -1.2677
 2828TIP3   OH229974   3.121   5.327   0.327  0.3418 -0.2542  0.2760
 2828TIP3    H129975   3.145   5.420   0.319  0.2131 -0.2327  0.1262
 2828TIP3    H229976   3.043   5.318   0.272 -0.6849 -0.0680  1.6646
 2829TIP3   OH229977   6.157   0.535   1.219  0.2213 -0.3081 -0.0807
 2829TIP3    H129978   6.196   0.620   1.238 -0.0189 -0.2089 -0.0320
 2829TIP3    H229979   6.175   0.482   1.297 -0.4896  0.0016  0.3067
 2830TIP3   OH229980   1.103   1.279  16.061  0.3001 -0.0469  0.1604
 2830TIP3    H129981   1.044   1.345  16.099 -1.4057 -1.3221 -0.1320
 2830TIP3    H229982   1.181   1.328  16.035 -1.7104  2.2866 -1.9936
 2831TIP3   OH229983   4.909   2.679   2.778 -0.1332 -0.0009  0.4689
 2831TIP3    H129984   4.952   2.594   2.769  1.7917  0.8567  0.9969
 2831TIP3    H229985   4.860   2.673   2.860 -0.7904 -0.8921  0.0268
 2832TIP3   OH229986   1.499   6.044   5.673  0.0964  0.1704  0.1148
 2832TIP3    H129987   1.507   6.040   5.768  0.2376 -0.7630  0.0806
 2832TIP3    H229988   1.472   5.955   5.648 -0.4402  0.5438 -0.6725
 2833TIP3   OH229989   4.712   1.057  14.118  0.2309  0.0741 -0.0484
 2833TIP3    H129990   4.763   1.083  14.041 -0.2151 -0.6947 -0.6198
 2833TIP3    H229991   4.776   1.049  14.189  0.5054  1.8430 -0.0577
 2834TIP3   OH229992   6.477   1.628   0.008 -0.3614  0.0071  0.2148
 2834TIP3    H129993   6.382   1.617   0.019 -0.3545 -0.4296 -0.1145
 2834TIP3    H229994   6.496   1.588  -0.077  0.2504 -0.7115  0.6710
 2835TIP3   OH229995   2.684   2.053   0.199 -0.4998  0.2197  0.5619
 2835TIP3    H129996   2.759   2.106   0.172 -0.4804  0.3888  0.9398
 2835TIP3    H229997   2.611   2.115   0.201 -0.3370  0.3971  1.6929
 2836TIP3   OH229998   2.880   0.914   1.221 -0.5860 -0.0754 -0.2926
 2836TIP3    H129999   2.925   0.886   1.301  1.0209 -0.6310 -1.3310
 2836TIP3    H230000   2.821   0.842   1.201 -0.4375 -0.2794 -0.0130
 2837TIP3   OH230001   5.521   3.000  16.279 -0.4426  0.4392  0.3234
 2837TIP3    H130002   5.593   3.015  16.218 -0.8364  0.7648 -0.0674
 2837TIP3    H230003   5.464   3.077  16.269 -1.3162 -0.2359 -0.0507
 2838TIP3   OH230004   6.282   1.759   3.565  0.4066  0.2810 -0.5899
 2838TIP3    H130005   6.198   1.720   3.589 -0.4108  0.5830 -2.7535
 2838TIP3    H230006   6.347   1.703   3.606 -0.8318 -0.2546  0.7133
 2839TIP3   OH230007   2.475   6.685   4.460  0.0698  0.4405 -0.1959
 2839TIP3    H130008   2.545   6.656   4.519  1.0794  3.0248 -0.0150
 2839TIP3    H230009   2.485   6.780   4.455 -2.6207  0.7554 -1.2455
 2840TIP3   OH230010   4.708   2.102   1.037  0.0265  0.8191  0.0884
 2840TIP3    H130011   4.629   2.150   1.062 -0.3085  0.5103 -0.3583
 2840TIP3    H230012   4.687   2.066   0.951  0.6115  0.6337  0.0236
 2841TIP3   OH230013   5.703   5.604  16.704 -0.2305  0.3231 -0.4771
 2841TIP3    H130014   5.621   5.566  16.735  0.3369 -0.1093  0.5401
 2841TIP3    H230015   5.678   5.654  16.626 -1.1368 -1.4696 -1.3949
 2842TIP3   OH230016   1.897   3.873  11.568  0.0746 -0.1140  0.3403
 2842TIP3    H130017   1.899   3.881  11.472 -1.9855 -2.0408  0.0379
 2842TIP3    H230018   1.805   3.887  11.591  0.3906 -0.4648  1.9415
 2843TIP3   OH230019   5.196   1.029  16.682  0.0945  0.1046 -0.1920
 2843TIP3    H130020   5.241   1.026  16.767 -0.1473 -0.7158 -0.0889
 2843TIP3    H230021   5.255   0.985  16.622 -0.2190 -0.2799 -0.2206
 2844TIP3   OH230022   6.820   5.057   0.683  0.0530  0.5715  0.4494
 2844TIP3    H130023   6.741   5.096   0.647  1.3891  0.9546 -2.2764
 2844TIP3    H230024   6.883   5.129   0.689  1.4768 -0.4249 -1.4315
 2845TIP3   OH230025   2.811   3.044  17.180  0.3217 -0.1678  0.3113
 2845TIP3    H130026   2.863   3.124  17.188  0.3932 -0.4406  4.2598
 2845TIP3    H230027   2.871   2.980  17.142  0.9531  1.0055 -0.7649
 2846TIP3   OH230028   5.969   0.520   4.452 -0.1039  0.1673 -0.0186
 2846TIP3    H130029   6.003   0.603   4.485  0.1440  1.3364 -2.8550
 2846TIP3    H230030   5.893   0.545   4.399 -0.1000 -1.4278 -0.8218
 2847TIP3   OH230031   5.819   1.737  16.000 -0.0950 -0.3529  0.7382
 2847TIP3    H130032   5.726   1.755  15.989  0.3463  1.4889 -0.5417
 2847TIP3    H230033   5.845   1.694  15.918  0.1600 -1.0472  1.1725
 2848TIP3   OH230034   3.286   5.436   4.681 -0.0139 -0.9263  0.0903
 2848TIP3    H130035   3.197   5.413   4.652 -2.1744  1.6931  3.7365
 2848TIP3    H230036   3.295   5.393   4.766  2.6777 -1.8344 -0.5817
 2849TIP3   OH230037   2.625   0.440   0.838 -0.0574 -0.1806 -0.0077
 2849TIP3    H130038   2.689   0.505   0.809  0.2892 -0.2345  0.6277
 2849TIP3    H230039   2.677   0.364   0.863 -0.5396 -1.2341 -2.0440
 2850TIP3   OH230040   4.760   4.617   3.603  0.6080  0.4277 -0.0583
 2850TIP3    H130041   4.675   4.644   3.568 -0.8839 -2.9615  0.5568
 2850TIP3    H230042   4.795   4.557   3.538  1.8436  0.6168  0.4079
 2851TIP3   OH230043   4.685   6.647   4.356  0.4769 -0.4205  0.4166
 2851TIP3    H130044   4.659   6.738   4.341 -0.7991 -0.8401 -0.0528
 2851TIP3    H230045   4.735   6.650   4.437 -0.3291  0.5721  0.9121
 2852TIP3   OH230046   6.303   1.535  15.199  0.2666 -0.4800  0.3360
 2852TIP3    H130047   6.375   1.572  15.149  0.7970 -2.5671 -0.5666
 2852TIP3    H230048   6.224   1.573  15.159  0.8020  1.2712  0.8694
 2853TIP3   OH230049   3.631   6.573   0.284  0.0878 -0.1855 -0.3428
 2853TIP3    H130050   3.707   6.530   0.323  0.5342  1.3751  0.6009
 2853TIP3    H230051   3.648   6.667   0.295 -1.6262  0.2165 -0.7968
 2854TIP3   OH230052   3.802   1.568  10.462 -0.0975 -0.3355 -0.6291
 2854TIP3    H130053   3.893   1.545  10.441 -0.5048 -1.4811 -1.1995
 2854TIP3    H230054   3.807   1.603  10.551  1.0399  0.6012 -1.0255
 2855TIP3   OH230055   0.882   2.481   3.572 -0.8036  0.2687 -0.2035
 2855TIP3    H130056   0.810   2.541   3.553  0.5840  1.6801 -1.3030
 2855TIP3    H230057   0.935   2.482   3.493  2.4546  2.2915  1.7769
 2856TIP3   OH230058   2.192   4.313  13.256 -1.1120 -0.4411 -0.7679
 2856TIP3    H130059   2.223   4.283  13.341 -0.5090  2.1965  0.0275
 2856TIP3    H230060   2.220   4.245  13.195 -1.9398 -2.6116  1.1425
 2857TIP3   OH230061   0.986   1.712  17.273  0.7019  0.1512 -0.0493
 2857TIP3    H130062   0.921   1.769  17.231  0.2059  0.5488  1.2088
 2857TIP3    H230063   1.070   1.750  17.249  0.3801  1.2922  0.5830
 2858TIP3   OH230064   5.604   3.643   0.434 -0.5263 -0.4732 -0.1251
 2858TIP3    H130065   5.625   3.734   0.455 -1.3215 -0.3926  0.3384
 2858TIP3    H230066   5.671   3.618   0.370  0.0484  0.2508  0.1735
 2859TIP3   OH230067   1.107   0.917   5.671 -0.1785  0.3771  0.1543
 2859TIP3    H130068   1.080   1.008   5.663  0.8690  0.6407 -0.6806
 2859TIP3    H230069   1.145   0.911   5.759 -2.4312  0.1010  1.1725
 2860TIP3   OH230070   1.854   5.219  15.821  0.0908 -0.1441  0.5501
 2860TIP3    H130071   1.914   5.236  15.748  1.2082  0.9807  1.6776
 2860TIP3    H230072   1.911   5.218  15.898 -1.0683 -1.2767  1.4182
 2861TIP3   OH230073   0.082   0.019  15.996 -0.5175  0.6124 -0.0010
 2861TIP3    H130074   0.013  -0.026  16.045  0.4327  2.5072  3.3715
 2861TIP3    H230075   0.163  -0.003  16.042  0.7230  1.1148 -1.8520
 2862TIP3   OH230076   6.583   0.101   1.102 -0.7497 -0.2754  0.5202
 2862TIP3    H130077   6.624   0.085   1.187  0.7752  0.0616 -0.1089
 2862TIP3    H230078   6.542   0.187   1.109  1.9012  1.1237  0.0684
 2863TIP3   OH230079   3.524   3.060   1.334 -0.1686  0.3698 -0.1628
 2863TIP3    H130080   3.572   3.049   1.252  0.5595  2.9074 -0.1567
 2863TIP3    H230081   3.592   3.062   1.402 -0.6860 -0.5871  0.4114
 2864TIP3   OH230082   2.233   4.349   0.206  0.0172  0.7624  1.1929
 2864TIP3    H130083   2.142   4.337   0.232 -0.2781  0.7473  0.1790
 2864TIP3    H230084   2.257   4.268   0.161  0.0094  1.3999  0.0080
 2865TIP3   OH230085   6.807   4.538  16.938 -0.2922  0.1071  0.1606
 2865TIP3    H130086   6.716   4.545  16.912  0.1462  0.6166 -1.3065
 2865TIP3    H230087   6.808   4.565  17.030 -1.6523 -0.2278  0.2890
 2866TIP3   OH230088   1.141   2.753   4.176  0.6080  0.7379  0.0880
 2866TIP3    H130089   1.122   2.810   4.102 -3.5389 -0.4575 -0.0444
 2866TIP3    H230090   1.092   2.790   4.249  0.8261 -0.6051  0.9680
 2867TIP3   OH230091   6.370   1.076  15.536 -0.2355 -0.0956  0.3670
 2867TIP3    H130092   6.303   1.144  15.533 -0.7201 -0.4494  2.3294
 2867TIP3    H230093   6.340   1.015  15.603  1.2197 -1.1597  0.0998
 2868TIP3   OH230094   1.165   6.260   5.214 -0.5145 -0.1243 -0.2467
 2868TIP3    H130095   1.130   6.207   5.143  1.0681  0.5603 -1.6042
 2868TIP3    H230096   1.151   6.351   5.186 -3.4110  0.3069  2.1385
 2869TIP3   OH230097   4.363   1.264   4.193  0.3036  0.2453 -0.1545
 2869TIP3    H130098   4.340   1.355   4.212 -0.7150  0.3876 -1.8746
 2869TIP3    H230099   4.438   1.270   4.134  1.2324 -0.1127  0.9307
 2870TIP3   OH230100   5.868   0.045   4.451  0.1281  0.3356  0.3246
 2870TIP3    H130101   5.854   0.012   4.363  2.4434  0.3100 -0.0998
 2870TIP3    H230102   5.854   0.139   4.445 -1.9080  0.0847  0.4851
 2871TIP3   OH230103   3.867   4.605   4.635  0.5733  0.7821 -0.4379
 2871TIP3    H130104   3.961   4.591   4.638  0.2832 -2.6572 -1.8940
 2871TIP3    H230105   3.855   4.676   4.573  2.1845  2.2095  0.7892
 2872TIP3   OH230106   2.140   4.769   2.231  0.7986  0.1219 -0.2052
 2872TIP3    H130107   2.076   4.835   2.204  0.5441 -0.1993 -0.3935
 2872TIP3    H230108   2.156   4.718   2.152  0.1755 -0.7216  0.1908
 2873TIP3   OH230109   0.956   4.255   4.807  0.3111 -0.1341  0.0869
 2873TIP3    H130110   1.007   4.330   4.776 -1.4416  0.8091 -0.6016
 2873TIP3    H230111   0.960   4.192   4.735 -0.9980  0.7048 -0.7600
 2874TIP3   OH230112   0.611   4.274   5.316 -0.5764  0.8215  0.7755
 2874TIP3    H130113   0.531   4.239   5.278 -0.1275 -0.4705  0.9401
 2874TIP3    H230114   0.627   4.356   5.270 -0.3059 -0.4313 -1.5132
 2875TIP3   OH230115   1.202   3.612  15.897 -0.3010 -0.2578 -0.3998
 2875TIP3    H130116   1.202   3.548  15.826 -1.3010  1.0283 -1.6296
 2875TIP3    H230117   1.169   3.693  15.856 -2.1781  0.2032  1.8146
 2876TIP3   OH230118   3.390   6.815  16.841  0.3301  0.5948  0.4652
 2876TIP3    H130119   3.417   6.809  16.932  2.0510  1.3288  0.0451
 2876TIP3    H230120   3.372   6.908  16.827  2.9096  1.0422 -0.6083
 2877TIP3   OH230121   6.233   6.705   5.643 -0.1791  0.4286 -0.5004
 2877TIP3    H130122   6.261   6.751   5.722 -0.9511  2.5973 -1.4011
 2877TIP3    H230123   6.141   6.685   5.657 -0.5208  1.4973 -1.1150
 2878TIP3   OH230124   4.246   1.147  16.211  0.0842 -0.1112  0.5698
 2878TIP3    H130125   4.275   1.084  16.276 -1.5556 -2.1991 -0.5828
 2878TIP3    H230126   4.210   1.094  16.140  0.4114  2.0926 -1.3796
 2879TIP3   OH230127   5.600   3.493  11.866  0.5962 -0.1664 -0.2631
 2879TIP3    H130128   5.683   3.525  11.831  1.3844 -0.3810  1.3011
 2879TIP3    H230129   5.625   3.427  11.931 -0.8867 -1.8366 -1.3010
 2880TIP3   OH230130   0.078   2.957  15.042  0.0179 -0.1440 -0.5117
 2880TIP3    H130131   0.157   3.010  15.030 -1.0689  1.8571  0.5736
 2880TIP3    H230132   0.048   2.938  14.953  2.2046 -1.8304 -0.9706
 2881TIP3   OH230133   3.461   3.740  11.470 -0.3010 -0.7905 -0.3148
 2881TIP3    H130134   3.476   3.834  11.484 -2.2567 -0.1195 -2.1569
 2881TIP3    H230135   3.534   3.697  11.515  0.4750  1.5855  0.8499
 2882TIP3   OH230136   3.636   1.968   6.402 -0.2699  0.5148 -0.0947
 2882TIP3    H130137   3.665   2.058   6.391 -1.0013  0.6091 -1.3934
 2882TIP3    H230138   3.575   1.952   6.330  2.1437 -2.0021 -1.7661
 2883TIP3   OH230139   2.312   1.642  11.645 -0.1052  0.0039  0.6268
 2883TIP3    H130140   2.360   1.709  11.693 -0.1360  2.3914 -2.4125
 2883TIP3    H230141   2.220   1.657  11.668  0.0386 -0.4568  1.5736
 2884TIP3   OH230142   1.248   5.586   2.961  0.3974 -0.5034 -0.2529
 2884TIP3    H130143   1.267   5.641   2.885  1.4287 -0.9445 -0.3311
 2884TIP3    H230144   1.324   5.528   2.969  2.2366  1.9901  3.3708
 2885TIP3   OH230145   4.843   5.376  16.557  0.0484 -0.2296 -0.2159
 2885TIP3    H130146   4.783   5.379  16.482  0.5016 -3.8283 -0.9218
 2885TIP3    H230147   4.924   5.413  16.524 -0.3698  0.1307 -0.8550
 2886TIP3   OH230148   5.377   4.809   4.394  0.2595 -0.0404 -0.2044
 2886TIP3    H130149   5.314   4.795   4.464 -0.5133  0.3150 -0.8184
 2886TIP3    H230150   5.374   4.729   4.342 -0.4057  0.3469 -0.7825
 2887TIP3   OH230151   2.551   2.095  14.289 -0.1917 -0.1680  0.0752
 2887TIP3    H130152   2.465   2.129  14.265 -0.2256  2.1622  2.9399
 2887TIP3    H230153   2.610   2.170  14.281  0.3878 -0.0760  3.5877
 2888TIP3   OH230154   1.081   5.724   4.087 -0.2757 -0.3215  0.6193
 2888TIP3    H130155   1.116   5.727   4.177 -2.0501  0.4716  1.3167
 2888TIP3    H230156   1.077   5.815   4.060 -1.0616 -0.4612  0.2560
 2889TIP3   OH230157   0.302   2.837   0.608 -0.2626  0.1291 -0.6016
 2889TIP3    H130158   0.367   2.808   0.543 -1.0875 -0.4196 -1.2035
 2889TIP3    H230159   0.311   2.932   0.610  1.3297 -0.0145  0.1559
 2890TIP3   OH230160   5.104   1.890  11.087  0.3194  0.0449 -0.1742
 2890TIP3    H130161   5.104   1.879  10.992  0.7200 -0.1708 -0.1520
 2890TIP3    H230162   5.121   1.983  11.100 -1.9715  0.5441 -0.3439
 2891TIP3   OH230163   4.384   0.653  17.057 -0.2709 -0.4180  0.4458
 2891TIP3    H130164   4.303   0.694  17.089 -1.0383 -0.3978 -1.4394
 2891TIP3    H230165   4.399   0.581  17.118 -1.6320 -0.3279  0.9265
 2892TIP3   OH230166   1.100   1.490  11.424 -0.0008 -0.3053  0.1392
 2892TIP3    H130167   1.106   1.436  11.345 -1.3557 -0.7074  0.2948
 2892TIP3    H230168   1.037   1.558  11.401 -1.5672 -1.2996  1.3532
 2893TIP3   OH230169   1.149   4.780   4.394 -0.3084  0.1790 -0.9014
 2893TIP3    H130170   1.094   4.856   4.414 -1.0721 -0.2179 -1.4460
 2893TIP3    H230171   1.091   4.719   4.348  0.4822 -0.4286 -1.1279
 2894TIP3   OH230172   1.866   4.839  14.426 -0.1724  0.4671  0.2515
 2894TIP3    H130173   1.820   4.917  14.457 -1.3994 -0.2393  0.3007
 2894TIP3    H230174   1.879   4.786  14.505 -0.9860 -0.1708 -0.0164
 2895TIP3   OH230175   0.927   4.296   5.737 -0.3015  0.7379  0.1789
 2895TIP3    H130176   0.842   4.255   5.755 -0.4244  0.4687 -0.9078
 2895TIP3    H230177   0.916   4.336   5.650  0.8785  0.1489 -0.2610
 2896TIP3   OH230178   3.106   4.451   1.921  0.4498 -0.0732  0.4875
 2896TIP3    H130179   3.114   4.455   2.017  0.5863  0.8088  0.4492
 2896TIP3    H230180   3.164   4.379   1.896  0.6918 -0.0832  1.0431
 2897TIP3   OH230181   1.265   2.787  14.625  0.0687  0.1703  0.2687
 2897TIP3    H130182   1.266   2.706  14.574 -1.7008  0.7045 -0.6818
 2897TIP3    H230183   1.198   2.773  14.691 -0.5519  0.9853 -0.1659
 2898TIP3   OH230184   5.279   4.965  13.451  0.3516  0.5241  0.2897
 2898TIP3    H130185   5.349   4.900  13.449 -1.0507 -1.0453  0.2480
 2898TIP3    H230186   5.238   4.958  13.364  0.3562  1.6915  0.1758
 2899TIP3   OH230187   3.285   3.410  14.294 -0.1983  0.4406 -0.1948
 2899TIP3    H130188   3.305   3.328  14.338  0.8614  1.1477  0.7083
 2899TIP3    H230189   3.254   3.385  14.207 -1.0617 -0.9426  0.4869
 2900TIP3   OH230190   3.406   3.930   2.729 -0.2024 -0.0620  0.2917
 2900TIP3    H130191   3.354   3.861   2.687 -1.2773  0.2806  1.0339
 2900TIP3    H230192   3.397   4.006   2.671 -0.1315 -0.1361  0.1817
 2901TIP3   OH230193   3.566   5.517  15.332 -0.5099  0.2598  0.2888
 2901TIP3    H130194   3.632   5.454  15.360 -1.6125 -1.0315  0.0852
 2901TIP3    H230195   3.560   5.506  15.238 -1.4688 -0.1274  0.3822
 2902TIP3   OH230196   1.382   4.395   0.165 -0.1772  0.5646  0.2628
 2902TIP3    H130197   1.339   4.310   0.148 -0.9595  1.1055 -0.5828
 2902TIP3    H230198   1.467   4.372   0.203  0.1706 -0.6410 -1.1647
 2903TIP3   OH230199   5.418   4.791   2.988 -0.2811 -0.2269 -0.8113
 2903TIP3    H130200   5.466   4.728   2.934  0.1267 -1.0914  0.5172
 2903TIP3    H230201   5.389   4.858   2.926  1.2298 -0.5367 -1.9186
 2904TIP3   OH230202   5.871   3.432  14.374  0.3275  0.4106  0.0339
 2904TIP3    H130203   5.901   3.420  14.284 -1.6047 -0.3754 -0.5595
 2904TIP3    H230204   5.896   3.351  14.418  2.9960  1.5423  0.7972
 2905TIP3   OH230205   4.218   3.940   6.484  0.1596  0.2720  0.0949
 2905TIP3    H130206   4.180   3.930   6.397  1.4864 -0.9523 -0.3876
 2905TIP3    H230207   4.143   3.951   6.542 -0.7653  0.7335 -1.1553
 2906TIP3   OH230208   0.410   3.089   3.871  0.0747 -0.3669 -0.1723
 2906TIP3    H130209   0.384   3.166   3.922 -0.5339  0.2328 -1.3168
 2906TIP3    H230210   0.334   3.072   3.815  0.7241 -0.9688 -0.8869
 2907TIP3   OH230211   0.519   1.238  15.323  0.0040  0.7633 -0.0285
 2907TIP3    H130212   0.472   1.320  15.336 -1.6782 -0.4414  2.2119
 2907TIP3    H230213   0.493   1.209  15.236 -0.3270  1.9880 -0.3561
 2908TIP3   OH230214   3.162   5.066   3.632  0.4304  0.4504  0.0754
 2908TIP3    H130215   3.199   5.139   3.582  2.0992  1.1468  2.1919
 2908TIP3    H230216   3.235   5.034   3.685 -0.9885 -0.9375  1.2886
 2909TIP3   OH230217   4.986   2.873  15.159 -0.0562 -0.2707  0.1908
 2909TIP3    H130218   4.933   2.927  15.218 -1.9311 -0.2153 -1.4435
 2909TIP3    H230219   5.031   2.936  15.102 -0.5978 -0.3783 -0.3609
 2910TIP3   OH230220   2.554   4.680   4.995  0.2675  0.7319  0.0656
 2910TIP3    H130221   2.495   4.610   5.022 -1.9567  2.0954 -0.9823
 2910TIP3    H230222   2.638   4.636   4.981 -1.1985 -1.8729 -1.2662
 2911TIP3   OH230223   3.076   2.345  12.722  0.0469 -0.3112 -0.2439
 2911TIP3    H130224   3.009   2.338  12.654  0.8083  0.4692 -1.1172
 2911TIP3    H230225   3.107   2.255  12.735 -0.5169 -0.5443 -0.5046
 2912TIP3   OH230226   4.208   2.908   4.574 -0.1179 -0.2801 -0.8927
 2912TIP3    H130227   4.186   2.994   4.608 -1.6063 -0.6532 -0.8621
 2912TIP3    H230228   4.212   2.920   4.479  0.6107  0.0116 -0.8314
 2913TIP3   OH230229   1.739   0.670   2.407 -0.3836  0.3149 -0.3246
 2913TIP3    H130230   1.661   0.647   2.458 -0.3811 -0.0309 -0.4705
 2913TIP3    H230231   1.706   0.681   2.317 -0.7106  2.7064  0.0138
 2914TIP3   OH230232   2.753   1.135   1.520  0.0643 -0.4664  0.3346
 2914TIP3    H130233   2.763   1.151   1.614 -3.4075 -0.6494  0.8530
 2914TIP3    H230234   2.829   1.081   1.497  0.5978 -1.1130  3.2277
 2915TIP3   OH230235   0.941   6.351   0.552  0.1616 -0.1372  0.1131
 2915TIP3    H130236   0.954   6.366   0.646  0.3055 -0.7852  0.1997
 2915TIP3    H230237   1.017   6.300   0.525  1.7272  2.5668 -1.0163
 2916TIP3   OH230238   1.265   3.033   1.974  0.0738 -0.0638  0.3334
 2916TIP3    H130239   1.178   3.063   2.002  0.2773  1.8005 -0.8172
 2916TIP3    H230240   1.247   2.968   1.906 -0.4176 -0.2267  0.6146
 2917TIP3   OH230241   5.199   5.689   1.097 -0.1232  0.1148  0.1490
 2917TIP3    H130242   5.252   5.767   1.082  0.5216 -0.3318  0.0478
 2917TIP3    H230243   5.129   5.718   1.156  1.0917  0.3835  1.5069
 2918TIP3   OH230244   2.041   2.066   4.333  0.2792 -0.0884 -0.3579
 2918TIP3    H130245   1.952   2.100   4.338  0.6448  0.7494  1.2092
 2918TIP3    H230246   2.031   1.978   4.296 -1.0121  0.5428 -1.6152
 2919TIP3   OH230247   2.562   3.809   1.824  0.2775  0.1797  0.1958
 2919TIP3    H130248   2.593   3.735   1.878 -0.9328  0.5632  1.4833
 2919TIP3    H230249   2.628   3.877   1.836  0.5861 -0.1360  0.2961
 2920TIP3   OH230250   5.747   6.083   0.281 -0.1978 -0.8445 -0.2590
 2920TIP3    H130251   5.744   6.100   0.186  2.9793 -3.0412 -0.8986
 2920TIP3    H230252   5.785   6.162   0.318 -0.7250 -0.2692 -0.9082
 2921TIP3   OH230253   2.736   3.642   5.832  0.3970  0.4720  0.2554
 2921TIP3    H130254   2.711   3.711   5.770  2.6531  0.3097 -0.9373
 2921TIP3    H230255   2.701   3.672   5.916 -0.8440  1.8055 -0.6803
 2922TIP3   OH230256   0.940   1.454  13.615 -0.0771 -0.1083  0.1000
 2922TIP3    H130257   0.927   1.469  13.521  0.4998  0.1515  0.0581
 2922TIP3    H230258   0.917   1.537  13.656 -2.9759 -0.9779  0.4733
 2923TIP3   OH230259   1.072   5.082  14.838 -0.4052 -0.0214  0.1532
 2923TIP3    H130260   1.062   4.995  14.801  1.1071  0.0297 -0.4636
 2923TIP3    H230261   0.983   5.117  14.844 -0.8862 -0.9384 -1.2377
 2924TIP3   OH230262   0.540   1.826  15.762 -0.3956  0.1128  0.1222
 2924TIP3    H130263   0.532   1.773  15.683 -0.2067 -1.1235  0.8960
 2924TIP3    H230264   0.634   1.842  15.772 -0.2700 -0.9669  0.8479
 2925TIP3   OH230265   3.008   4.276  15.237  0.1199 -0.2320 -0.3331
 2925TIP3    H130266   2.936   4.260  15.299  0.6066 -0.3885  0.2017
 2925TIP3    H230267   3.053   4.192  15.232  0.0960 -0.2094 -0.8867
 2926TIP3   OH230268   4.679   0.753   3.547 -0.6688 -0.4235  0.1692
 2926TIP3    H130269   4.731   0.707   3.480  1.8963 -0.3350  1.9311
 2926TIP3    H230270   4.695   0.845   3.530 -1.6225 -0.3375 -0.2719
 2927TIP3   OH230271   3.614   0.854   0.430  0.4150  0.4870  0.0545
 2927TIP3    H130272   3.590   0.933   0.479 -3.8265  0.0829 -0.9446
 2927TIP3    H230273   3.552   0.787   0.461  1.2991 -1.3326 -1.8900
 2928TIP3   OH230274   0.913   4.811  11.556  0.0810 -0.0732 -0.1782
 2928TIP3    H130275   0.880   4.847  11.473 -2.0721  0.2686  0.7528
 2928TIP3    H230276   0.907   4.716  11.545  3.3420 -0.2539 -1.6913
 2929TIP3   OH230277   4.099   0.780   6.232 -0.2931  0.0099  0.3248
 2929TIP3    H130278   4.140   0.755   6.150 -0.0673 -2.0866  1.0245
 2929TIP3    H230279   4.171   0.779   6.296 -0.9833 -1.4059  1.1177
 2930TIP3   OH230280   5.015   4.110   5.114  0.3349  1.0103 -0.2249
 2930TIP3    H130281   5.097   4.080   5.154 -0.1988 -0.7961 -0.3866
 2930TIP3    H230282   4.956   4.123   5.188  0.4582  1.3330 -0.1803
 2931TIP3   OH230283   5.345   3.033  11.605  0.1961  0.3035 -0.2283
 2931TIP3    H130284   5.330   3.046  11.511 -0.8750  1.9427  0.1252
 2931TIP3    H230285   5.334   3.121  11.643  1.1159 -0.2366  1.3724
 2932TIP3   OH230286   2.139   2.208   3.571  0.4996  0.1617 -0.1106
 2932TIP3    H130287   2.059   2.183   3.616  2.4115 -2.2694  2.3399
 2932TIP3    H230288   2.171   2.127   3.532  1.6668  1.1159 -1.2455
 2933TIP3   OH230289   4.589   4.992  11.149 -0.1967  0.0184 -0.7441
 2933TIP3    H130290   4.512   5.008  11.204  0.4382  0.9268 -0.0830
 2933TIP3    H230291   4.555   4.950  11.071 -1.4068  0.6620 -0.5831
 2934TIP3   OH230292   4.782   1.454   0.280  0.6889 -0.1224  0.3629
 2934TIP3    H130293   4.845   1.488   0.216 -0.4840 -0.4005 -0.9857
 2934TIP3    H230294   4.729   1.530   0.305 -0.4045 -0.4380 -0.8646
 2935TIP3   OH230295   4.237   0.100   0.396  0.1331  0.4059  0.4476
 2935TIP3    H130296   4.332   0.087   0.399 -0.0013 -1.0816 -0.6115
 2935TIP3    H230297   4.217   0.149   0.476  1.6932  0.0972  1.0678
 2936TIP3   OH230298   4.528   1.184  16.073 -0.3055 -0.0423  0.6546
 2936TIP3    H130299   4.468   1.134  16.127 -1.3900  0.8954  0.3513
 2936TIP3    H230300   4.587   1.118  16.034 -0.5284 -0.8699  1.6896
 2937TIP3   OH230301   5.766   0.039   0.423  0.2602  0.0759 -0.1216
 2937TIP3    H130302   5.770   0.032   0.327 -1.1198  1.7406 -0.3579
 2937TIP3    H230303   5.713   0.118   0.439  0.2225 -0.3200  2.0179
 2938TIP3   OH230304   4.312   3.544   0.187  0.0972  0.2244 -0.5909
 2938TIP3    H130305   4.224   3.578   0.174 -0.5779 -0.1979  2.2841
 2938TIP3    H230306   4.343   3.523   0.099 -1.4109  3.2825 -2.0234
 2939TIP3   OH230307   6.021   1.666   3.608  0.8271  0.1966 -0.3829
 2939TIP3    H130308   5.988   1.687   3.695 -0.5853 -0.4789 -0.7275
 2939TIP3    H230309   5.970   1.722   3.549  1.0352 -0.1061 -0.8554
 2940TIP3   OH230310   2.649   1.325   5.513  0.1084 -0.2711  0.1402
 2940TIP3    H130311   2.698   1.361   5.587 -1.5263 -0.4035  1.3677
 2940TIP3    H230312   2.588   1.395   5.489  0.7099 -0.1827 -1.2082
 2941TIP3   OH230313   5.944   5.911  11.675 -0.1885  0.1140  0.6888
 2941TIP3    H130314   5.902   5.897  11.590 -0.2307  2.2435  0.3031
 2941TIP3    H230315   6.035   5.887  11.661 -0.1668  0.5639 -0.0080
 2942TIP3   OH230316   0.186   4.134  17.031 -0.4738 -0.0944 -0.1560
 2942TIP3    H130317   0.186   4.224  17.065  0.3333  0.1535 -0.7814
 2942TIP3    H230318   0.251   4.088  17.084 -0.9078 -0.3191  0.1825
 2943TIP3   OH230319   6.739   3.920  16.180  0.5144 -0.3449  0.3453
 2943TIP3    H130320   6.820   3.874  16.159  0.4986  0.5017 -1.7931
 2943TIP3    H230321   6.755   4.010  16.151 -0.3616  0.4070  2.0893
 2944TIP3   OH230322   2.744   3.913  13.343  0.1702  0.2328 -0.4249
 2944TIP3    H130323   2.822   3.935  13.393  0.7756  0.0956 -1.2965
 2944TIP3    H230324   2.737   3.817  13.350  1.5795 -0.0868 -2.4529
 2945TIP3   OH230325   1.249   3.371  16.144  0.4446  0.6496 -0.1046
 2945TIP3    H130326   1.177   3.308  16.144 -0.2965  1.3838 -2.4854
 2945TIP3    H230327   1.224   3.436  16.210 -0.7043  0.4714 -0.3441
 2946TIP3   OH230328   6.690   3.937   1.267  0.4094  0.1293 -0.1913
 2946TIP3    H130329   6.718   4.018   1.224 -1.5482  1.7389  1.3685
 2946TIP3    H230330   6.685   3.960   1.360 -1.7800 -1.2751  0.1025
 2947TIP3   OH230331   4.259   4.067   3.341  0.0238  0.3022 -0.0155
 2947TIP3    H130332   4.335   4.010   3.332  0.3004  0.9712 -2.5963
 2947TIP3    H230333   4.295   4.156   3.335 -0.6744  0.7341  1.5678
 2948TIP3   OH230334   2.399   5.502   0.787  0.6500  0.2913  0.0245
 2948TIP3    H130335   2.327   5.465   0.736  0.9256 -1.6022  0.9176
 2948TIP3    H230336   2.367   5.588   0.813 -1.7176 -0.7941  1.0928
 2949TIP3   OH230337   2.961   3.208   0.371 -0.4457 -0.2222  0.1847
 2949TIP3    H130338   3.057   3.214   0.374 -0.3932 -0.8636 -0.0458
 2949TIP3    H230339   2.933   3.239   0.457 -0.0579  0.3621  0.1085
 2950TIP3   OH230340   5.205   2.064  15.062  0.0853  0.0561  0.2201
 2950TIP3    H130341   5.255   2.005  15.119 -0.9379 -0.9114  0.1453
 2950TIP3    H230342   5.226   2.036  14.973 -0.6490 -0.4455  0.1884
 2951TIP3   OH230343   3.305   0.713  16.425  0.5776  0.1367  0.0795
 2951TIP3    H130344   3.313   0.764  16.344 -1.0023  0.9727  0.3966
 2951TIP3    H230345   3.350   0.631  16.407 -0.2921  0.0445 -1.8757
 2952TIP3   OH230346   2.385   5.417   5.843  0.1612  0.7271 -0.2140
 2952TIP3    H130347   2.430   5.335   5.827  0.0865  0.1051  2.3691
 2952TIP3    H230348   2.420   5.449   5.926 -1.6743  1.9697  0.1574
 2953TIP3   OH230349   5.677   6.559  17.253  0.4923 -0.0704 -0.4207
 2953TIP3    H130350   5.686   6.607  17.171  2.2216 -2.0561 -1.4769
 2953TIP3    H230351   5.751   6.498  17.253 -0.0714 -0.8545  2.1274
 2954TIP3   OH230352   4.518   6.466   4.814 -0.3662  0.1778  0.4284
 2954TIP3    H130353   4.602   6.463   4.860  0.2459  0.0189 -0.6836
 2954TIP3    H230354   4.458   6.505   4.878  0.8538  1.5617  0.7850
 2955TIP3   OH230355   0.968   1.221  15.453 -0.2051  0.5708  0.3432
 2955TIP3    H130356   0.949   1.304  15.409  1.2407  0.4501 -0.5902
 2955TIP3    H230357   0.997   1.245  15.540 -2.7510  0.8412  1.2002
 2956TIP3   OH230358   4.315   5.415   4.973  0.0308 -0.4370 -0.1457
 2956TIP3    H130359   4.337   5.352   4.904  2.2281  0.7262 -0.6064
 2956TIP3    H230360   4.225   5.442   4.954 -0.0988 -1.6098 -1.3596
 2957TIP3   OH230361   1.310   3.130   0.686  0.1978  0.3145 -0.2949
 2957TIP3    H130362   1.296   3.036   0.671  0.4111  0.3064 -0.4337
 2957TIP3    H230363   1.305   3.140   0.781  0.0440  0.1832 -0.2888
 2958TIP3   OH230364   3.209   4.540  14.220  0.3291 -1.0502  0.0570
 2958TIP3    H130365   3.160   4.620  14.202  0.1831 -0.6311  2.0792
 2958TIP3    H230366   3.157   4.493  14.284  0.8206 -2.4031 -0.4826
 2959TIP3   OH230367   2.071   5.531  17.320  0.0860 -0.2594 -0.3606
 2959TIP3    H130368   1.980   5.538  17.348 -0.1172 -0.8210 -0.8451
 2959TIP3    H230369   2.122   5.543  17.400 -0.4279 -0.4439  0.0018
 2960TIP3   OH230370   0.902   3.636  13.732 -0.2146  0.4729 -0.3497
 2960TIP3    H130371   0.836   3.584  13.688 -1.0240  1.5346 -0.4335
 2960TIP3    H230372   0.985   3.596  13.706 -0.8193 -2.0551  1.2431
 2961TIP3   OH230373   5.709   5.227  13.057 -0.1444 -0.4080 -0.0163
 2961TIP3    H130374   5.694   5.299  12.995  0.4881 -0.8103 -0.6570
 2961TIP3    H230375   5.755   5.268  13.131 -0.6425  0.0231  0.0554
 2962TIP3   OH230376   6.695   6.608  14.846 -0.1370 -0.7423 -0.2439
 2962TIP3    H130377   6.652   6.578  14.766 -1.1987  0.5701 -0.1913
 2962TIP3    H230378   6.784   6.630  14.818 -0.7800  0.6395 -1.3058
 2963TIP3   OH230379   3.405   6.696  11.943  0.5646 -0.9479  0.5032
 2963TIP3    H130380   3.374   6.717  12.031  0.1429 -0.6000  0.2793
 2963TIP3    H230381   3.389   6.776  11.893  0.3155 -1.3108 -0.0124
 2964TIP3   OH230382   2.055   4.294  12.495 -0.1674 -0.0881 -0.7154
 2964TIP3    H130383   2.046   4.387  12.474  1.3761  0.1770 -0.3129
 2964TIP3    H230384   2.061   4.250  12.409 -0.9250  0.1770 -0.9049
 2965TIP3   OH230385   2.264   4.691  11.320 -0.6400 -0.0017  0.2405
 2965TIP3    H130386   2.200   4.670  11.253  0.9909 -1.5311 -0.9282
 2965TIP3    H230387   2.348   4.668  11.281  0.3462 -1.4099  2.9623
 2966TIP3   OH230388   1.933   3.711   1.604 -0.4649 -0.8322  0.2518
 2966TIP3    H130389   1.946   3.650   1.677 -0.6666  0.1950  1.1752
 2966TIP3    H230390   1.993   3.783   1.622 -0.1412 -0.7889 -0.8865
 2967TIP3   OH230391   3.901   0.783  12.050 -0.1086 -0.2976  0.2175
 2967TIP3    H130392   3.833   0.734  12.003 -0.1112 -0.1298  0.0430
 2967TIP3    H230393   3.853   0.847  12.101 -0.1274 -0.7493  0.7690
 2968TIP3   OH230394   4.952   4.071   1.307  0.1792  0.2188 -0.4153
 2968TIP3    H130395   4.907   4.081   1.391  0.2169  0.2347 -0.3968
 2968TIP3    H230396   4.905   4.002   1.262  0.8162 -0.5385  0.0578
 2969TIP3   OH230397   4.134   3.497   1.757 -0.2765 -0.3487  0.4966
 2969TIP3    H130398   4.105   3.566   1.698  0.3496  0.3793  1.0186
 2969TIP3    H230399   4.096   3.417   1.721 -1.3277  0.3079  0.0990
 2970TIP3   OH230400   4.666   1.062   0.135 -0.0001 -0.1321  0.5178
 2970TIP3    H130401   4.601   0.999   0.103 -0.4496  0.9629 -0.8399
 2970TIP3    H230402   4.731   1.067   0.065 -0.0612  1.0175  0.5218
 2971TIP3   OH230403   2.625   4.987  14.496  0.2197  0.1598 -0.2188
 2971TIP3    H130404   2.637   4.983  14.401  0.2480  2.4076 -0.3666
 2971TIP3    H230405   2.646   4.899  14.526 -0.9609 -0.9726 -2.3977
 2972TIP3   OH230406   5.675   6.220   0.038 -0.3546 -0.4058 -0.0371
 2972TIP3    H130407   5.759   6.266   0.033 -0.5453 -0.0280  0.2467
 2972TIP3    H230408   5.675   6.164  -0.040 -0.4718  0.6666 -0.8289
 2973TIP3   OH230409   6.569   0.738   3.255  0.2132  0.1131  0.1745
 2973TIP3    H130410   6.662   0.735   3.279 -0.0872  0.2337  1.4131
 2973TIP3    H230411   6.528   0.671   3.308 -0.5398  0.6017  0.2233
 2974TIP3   OH230412   0.489   0.395   4.759  0.3984  0.2304 -0.4856
 2974TIP3    H130413   0.420   0.460   4.747 -0.7704 -0.5097  1.7387
 2974TIP3    H230414   0.477   0.334   4.686 -0.0465  1.1349 -1.1986
 2975TIP3   OH230415   5.546   4.534  16.713  0.1632 -0.1192  0.0251
 2975TIP3    H130416   5.640   4.552  16.715  0.1158  0.5070 -1.7019
 2975TIP3    H230417   5.533   4.469  16.782  2.0778 -1.1531 -0.5047
 2976TIP3   OH230418   4.993   0.322  11.742  0.1323  0.1681 -0.3581
 2976TIP3    H130419   4.998   0.392  11.809 -2.5577 -0.7684  0.9680
 2976TIP3    H230420   4.902   0.323  11.714 -0.5907 -4.0369  1.1896
 2977TIP3   OH230421   1.735   4.116   1.535 -0.1425 -0.3775  0.2254
 2977TIP3    H130422   1.713   4.153   1.620 -1.5633  0.2960 -0.4126
 2977TIP3    H230423   1.825   4.085   1.546 -0.2596 -0.2381  1.9359
 2978TIP3   OH230424   5.349   5.893  12.509 -0.3047 -0.1438 -0.0425
 2978TIP3    H130425   5.313   5.981  12.508 -2.6361 -1.0422 -1.5211
 2978TIP3    H230426   5.406   5.892  12.587 -1.2753  2.2109  0.7930
 2979TIP3   OH230427   1.608   6.039  15.968  0.0397 -0.0419  0.0161
 2979TIP3    H130428   1.639   6.099  16.036  0.1762 -2.8328  2.6109
 2979TIP3    H230429   1.668   6.053  15.895  1.0331  1.8181  1.1092
 2980TIP3   OH230430   3.140   4.377  16.534 -0.3387  0.0644  0.2781
 2980TIP3    H130431   3.099   4.406  16.453  0.0051  2.5481  0.9054
 2980TIP3    H230432   3.114   4.442  16.599  0.4957 -1.1054  1.8727
 2981TIP3   OH230433   4.144   1.813   4.878 -0.3752 -0.4112 -0.0587
 2981TIP3    H130434   4.161   1.724   4.909  2.2972  0.0721  0.1034
 2981TIP3    H230435   4.052   1.812   4.851 -1.5789 -2.1216  3.5390
 2982TIP3   OH230436   0.663   2.727  17.252  0.2129 -0.4605  0.1379
 2982TIP3    H130437   0.731   2.660  17.266 -0.4229 -0.9839  0.7779
 2982TIP3    H230438   0.610   2.693  17.180  0.7226  0.0421 -0.4966
 2983TIP3   OH230439   1.907   2.806  15.671  0.3878  0.1712 -0.1975
 2983TIP3    H130440   1.899   2.794  15.766  1.2646  0.4419 -0.0803
 2983TIP3    H230441   1.852   2.737  15.633  0.5656 -0.3680  0.5033
 2984TIP3   OH230442   2.397   6.676  12.637 -0.3162  0.3294 -0.2517
 2984TIP3    H130443   2.371   6.586  12.619  0.0337  0.1078  0.3438
 2984TIP3    H230444   2.480   6.686  12.590  0.0123  0.1131  0.2810
 2985TIP3   OH230445   1.174   1.216  15.659 -0.4326  0.5842  0.5135
 2985TIP3    H130446   1.247   1.236  15.601 -1.3457  0.2435 -0.8130
 2985TIP3    H230447   1.178   1.283  15.727 -0.9244  2.7831 -1.4768
 2986TIP3   OH230448   5.312   0.764   1.951 -0.3877 -0.4132  0.0399
 2986TIP3    H130449   5.281   0.674   1.955  0.2822 -0.6159  0.7423
 2986TIP3    H230450   5.313   0.794   2.042  0.8350 -0.1962 -0.0381
 2987TIP3   OH230451   3.909   3.430   2.888  0.3586 -0.0418  0.3093
 2987TIP3    H130452   3.919   3.524   2.870 -0.0709  0.0951  0.7666
 2987TIP3    H230453   3.908   3.389   2.801  1.8037  0.2296  0.1292
 2988TIP3   OH230454   6.442   1.067   2.886  0.0744  0.1986  0.7948
 2988TIP3    H130455   6.413   0.976   2.881  2.0028 -0.4101 -0.4713
 2988TIP3    H230456   6.507   1.068   2.955 -0.3973  0.7847  1.2454
 2989TIP3   OH230457   4.050   2.671  14.646 -0.2363  0.8221 -0.7172
 2989TIP3    H130458   4.042   2.635  14.558 -1.3661  1.7451 -1.0055
 2989TIP3    H230459   4.144   2.664  14.666 -0.0857 -0.1246 -1.6641
 2990TIP3   OH230460   5.187   5.140   4.500 -0.6970 -0.1567  0.2608
 2990TIP3    H130461   5.168   5.217   4.554  2.4788  0.8697  0.1376
 2990TIP3    H230462   5.244   5.086   4.555 -0.5926 -1.0225 -0.6651
 2991TIP3   OH230463   6.128   4.873  14.050 -0.9485 -0.5347 -0.0807
 2991TIP3    H130464   6.207   4.913  14.087 -0.0021 -0.8598 -1.6587
 2991TIP3    H230465   6.080   4.947  14.012 -0.9321 -0.4642  0.0338
 2992TIP3   OH230466   5.644   5.663   3.894  0.1585 -0.1476 -0.5292
 2992TIP3    H130467   5.669   5.577   3.929  0.4631  0.7323  1.5906
 2992TIP3    H230468   5.548   5.661   3.893  0.0979  0.0237  1.1556
 2993TIP3   OH230469   5.369   6.309   1.138  0.0539  0.1682 -0.3936
 2993TIP3    H130470   5.432   6.240   1.158  0.2362  0.9914  2.2644
 2993TIP3    H230471   5.413   6.363   1.072  1.7494  0.1245  0.6183
 2994TIP3   OH230472   6.015   5.494  14.464 -0.1348  0.2063 -0.2390
 2994TIP3    H130473   6.031   5.490  14.369 -0.6616 -0.6633 -0.3028
 2994TIP3    H230474   5.925   5.463  14.474 -0.6567  1.8188  0.4090
 2995TIP3   OH230475   5.293   4.328  11.869 -0.3000  0.3845 -0.2608
 2995TIP3    H130476   5.326   4.265  11.805 -2.6179 -0.8947 -0.2912
 2995TIP3    H230477   5.255   4.274  11.939  0.2726  1.7614  1.1900
 2996TIP3   OH230478   4.052   2.553   2.767  0.0342 -0.0774  0.3478
 2996TIP3    H130479   4.136   2.523   2.801  0.6626 -0.8611 -1.7282
 2996TIP3    H230480   4.013   2.476   2.726  0.9109  1.3345 -3.6127
 2997TIP3   OH230481   1.169   0.449  12.174 -0.1855  0.5477  0.1168
 2997TIP3    H130482   1.189   0.401  12.094 -0.4610 -2.5494  1.7571
 2997TIP3    H230483   1.087   0.494  12.154  0.0670  0.3436 -1.5201
 2998TIP3   OH230484   0.828   0.949   1.791 -0.7417 -0.9458  0.4168
 2998TIP3    H130485   0.786   0.999   1.721 -0.8588 -0.4320  0.8468
 2998TIP3    H230486   0.877   0.880   1.746 -1.6129 -1.2269 -0.1236
 2999TIP3   OH230487   0.767   1.176  13.580  0.3590 -0.1147 -0.3907
 2999TIP3    H130488   0.795   1.265  13.562 -0.3868 -0.2290 -2.3704
 2999TIP3    H230489   0.832   1.121  13.537 -0.0040 -0.4975 -0.4543
 3000TIP3   OH230490   5.147   3.014  12.306 -0.0976 -0.2099 -0.5366
 3000TIP3    H130491   5.178   3.082  12.366 -2.0539 -1.8631  2.5817
 3000TIP3    H230492   5.212   2.944  12.314  0.1371 -0.0610 -1.1134
 3001TIP3   OH230493   6.047   0.157   5.883 -0.0356 -0.2323 -0.7154
 3001TIP3    H130494   6.133   0.196   5.899 -0.4458  0.5378 -0.3516
 3001TIP3    H230495   5.989   0.232   5.868 -1.0461 -0.6339  0.9486
 3002TIP3   OH230496   0.960   2.249  12.241 -0.0208  0.3611 -0.3474
 3002TIP3    H130497   0.982   2.340  12.221  1.2567 -0.0961 -1.1576
 3002TIP3    H230498   0.985   2.200  12.163 -0.5113 -0.7149  0.1459
 3003TIP3   OH230499   1.086   6.177   5.842  0.0166 -0.0296  0.8039
 3003TIP3    H130500   0.992   6.165   5.829  0.2260 -0.3971 -0.4780
 3003TIP3    H230501   1.126   6.096   5.810  0.9093  0.9466 -0.7171
 3004TIP3   OH230502   5.707   5.109  17.000 -0.3078 -0.1362  0.1992
 3004TIP3    H130503   5.683   5.070  17.084 -1.1953  1.6470  0.8302
 3004TIP3    H230504   5.800   5.128  17.008 -0.0585 -1.2946  0.2044
 3005TIP3   OH230505   1.821   2.983  12.809  0.3641 -0.4324 -0.1390
 3005TIP3    H130506   1.882   2.996  12.882 -1.0953  1.5001  0.8426
 3005TIP3    H230507   1.741   3.026  12.838 -0.1102  0.9342 -3.1492
 3006TIP3   OH230508   5.313   1.764  14.693 -0.1895 -0.0245  0.6733
 3006TIP3    H130509   5.254   1.774  14.767  0.8974 -0.8755  1.6768
 3006TIP3    H230510   5.326   1.670  14.684  1.3235  0.1552  0.7289
 3007TIP3   OH230511   1.811   0.844  11.416  0.1017  0.0607 -0.2332
 3007TIP3    H130512   1.864   0.828  11.494 -2.2421 -0.5320  1.3367
 3007TIP3    H230513   1.770   0.929  11.432  2.2815  1.6902 -2.5285
 3008TIP3   OH230514   5.472   2.287  13.195 -0.4789  0.5398  0.4370
 3008TIP3    H130515   5.552   2.244  13.163 -0.4841  0.5977  0.3477
 3008TIP3    H230516   5.427   2.316  13.116 -0.2724  1.0812  0.5159
 3009TIP3   OH230517   5.881   6.430   1.747 -0.8080 -0.1598 -0.1761
 3009TIP3    H130518   5.843   6.481   1.676 -1.7116 -0.5309  0.0215
 3009TIP3    H230519   5.807   6.381   1.784 -0.2741 -0.3297  0.7166
 3010TIP3   OH230520   3.704   5.850  16.528 -0.1762  0.2962 -0.0750
 3010TIP3    H130521   3.775   5.791  16.502  1.1440  1.7230  0.1357
 3010TIP3    H230522   3.640   5.843  16.458  0.8818  0.1147 -1.0574
 3011TIP3   OH230523   0.508   2.012   4.175 -0.0991  0.3325  0.2390
 3011TIP3    H130524   0.543   2.078   4.236 -0.8186 -0.6197  1.7160
 3011TIP3    H230525   0.444   2.060   4.123  2.4095  1.8452 -1.7541
 3012TIP3   OH230526   5.335   3.277  10.774 -0.4873  0.4832 -0.2771
 3012TIP3    H130527   5.278   3.354  10.773  1.8381  2.3387  0.3924
 3012TIP3    H230528   5.372   3.274  10.686 -0.7678 -0.0642 -0.3811
 3013TIP3   OH230529   5.812   3.751  12.794 -0.6298  0.3804  0.2008
 3013TIP3    H130530   5.792   3.713  12.708 -0.0198  0.2378  0.1188
 3013TIP3    H230531   5.825   3.676  12.852 -1.9854  0.4741  0.6557
 3014TIP3   OH230532   5.783   2.182   4.571  0.5546 -0.1549 -0.1738
 3014TIP3    H130533   5.814   2.122   4.503  0.8521 -0.3254  0.1077
 3014TIP3    H230534   5.693   2.156   4.588  0.5862 -0.3242 -0.2686
 3015TIP3   OH230535   4.773   3.149   0.841 -0.2464 -0.2434 -0.0580
 3015TIP3    H130536   4.857   3.194   0.832 -0.1832 -0.2520  0.4405
 3015TIP3    H230537   4.726   3.168   0.760  0.2487 -0.2608 -0.3455
 3016TIP3   OH230538   2.549   4.811  10.559  0.1632  0.2584  0.7077
 3016TIP3    H130539   2.454   4.811  10.548  0.2053  0.6274  0.3203
 3016TIP3    H230540   2.579   4.734  10.509  0.1624  0.7642 -0.0961
 3017TIP3   OH230541   4.142   3.968   0.605  0.0606 -0.2807  0.2527
 3017TIP3    H130542   4.123   3.961   0.699  1.5708  0.0483  0.6122
 3017TIP3    H230543   4.077   3.912   0.563 -1.0145  0.0286  1.4446
 3018TIP3   OH230544   2.437   4.936   2.292  0.2327  0.1127 -0.4946
 3018TIP3    H130545   2.506   4.892   2.341 -0.1066  0.3863  0.2293
 3018TIP3    H230546   2.385   4.982   2.358  0.7103  1.8041 -1.2525
 3019TIP3   OH230547   0.350   2.542  11.101  0.4770 -0.5268  0.3220
 3019TIP3    H130548   0.421   2.506  11.048  1.6241  1.1997  0.5984
 3019TIP3    H230549   0.330   2.626  11.060 -0.3261 -0.2750  1.1889
 3020TIP3   OH230550   0.770   1.209  11.924  0.0525  0.9559 -0.1137
 3020TIP3    H130551   0.785   1.115  11.911 -1.1571  0.8570 -0.9736
 3020TIP3    H230552   0.827   1.251  11.859 -0.7239  0.7309 -0.9602
 3021TIP3   OH230553   1.981   0.459  15.416  0.8621 -0.0541  0.0596
 3021TIP3    H130554   1.925   0.387  15.444  0.6789  0.8127  2.0513
 3021TIP3    H230555   1.948   0.483  15.329 -2.1263  0.6374  1.2795
 3022TIP3   OH230556   0.950   2.848  17.012 -0.1638  0.7035 -0.3675
 3022TIP3    H130557   0.937   2.765  16.967 -0.7658  1.6330 -1.9675
 3022TIP3    H230558   1.033   2.882  16.978  0.0343  0.8127  0.2067
 3023TIP3   OH230559   1.661   3.032   0.865 -0.9603 -0.2547  0.7852
 3023TIP3    H130560   1.664   3.115   0.913 -0.0092  0.6492 -0.7602
 3023TIP3    H230561   1.576   3.033   0.821 -0.3977  0.5882 -0.3375
 3024TIP3   OH230562   5.718   5.606   6.033 -0.1308  0.7035  0.5971
 3024TIP3    H130563   5.786   5.637   6.092  0.4840 -0.9099  0.8042
 3024TIP3    H230564   5.681   5.530   6.077  0.1351 -0.3671 -0.9269
 3025TIP3   OH230565   4.548   1.461   2.998 -0.0733  0.8899 -0.1116
 3025TIP3    H130566   4.626   1.503   2.960  0.3981 -0.8068 -1.1264
 3025TIP3    H230567   4.556   1.478   3.092  0.7277  2.0197 -0.3564
 3026TIP3   OH230568   2.035   2.182   6.588 -0.0285 -0.0808 -0.8096
 3026TIP3    H130569   1.996   2.169   6.675 -0.5156 -1.2836 -1.1822
 3026TIP3    H230570   2.077   2.268   6.593  1.3233 -0.7731  1.1240
 3027TIP3   OH230571   3.832   3.429   0.754 -0.0906  0.0711 -0.4666
 3027TIP3    H130572   3.822   3.373   0.677  2.2720  0.8264 -1.4081
 3027TIP3    H230573   3.854   3.368   0.824  0.0403 -0.4143 -0.9188
 3028TIP3   OH230574   3.144   2.531   0.693  0.8042  0.0011 -0.2133
 3028TIP3    H130575   3.150   2.603   0.630  2.2392 -1.1033 -1.4176
 3028TIP3    H230576   3.122   2.454   0.640  1.2358 -0.8034  0.7392
 3029TIP3   OH230577   0.211   2.352   0.981 -0.1256  0.6522 -0.6025
 3029TIP3    H130578   0.143   2.333   1.045  0.2352  0.6251 -0.2257
 3029TIP3    H230579   0.171   2.417   0.923  0.0739  1.8782  0.5784
 3030TIP3   OH230580   5.713   5.957  13.215  0.7091 -0.1958 -0.5486
 3030TIP3    H130581   5.639   6.017  13.203  1.2776  1.0231  1.4999
 3030TIP3    H230582   5.789   6.006  13.183  1.1887  0.2871  1.2034
 3031TIP3   OH230583   1.841   2.199   1.614  0.1320 -0.0903 -0.0951
 3031TIP3    H130584   1.866   2.189   1.522  3.0446 -2.4079  0.7948
 3031TIP3    H230585   1.898   2.269   1.647  0.1794 -0.3112  0.2951
 3032TIP3   OH230586   3.361   1.590   0.488  0.6506  0.1948  0.1214
 3032TIP3    H130587   3.305   1.665   0.468 -0.1363 -0.0693  1.2073
 3032TIP3    H230588   3.339   1.524   0.422  0.2800  0.3903  0.0519
 3033TIP3   OH230589   2.393   2.930  13.734  0.2297  0.4685 -0.8722
 3033TIP3    H130590   2.374   2.837  13.748  1.2823  0.1140 -1.6442
 3033TIP3    H230591   2.428   2.934  13.645  1.3406  1.4211 -0.4158
 3034TIP3   OH230592   2.809   6.280   0.891  0.3512 -0.2450 -0.3895
 3034TIP3    H130593   2.895   6.270   0.850 -0.8603  0.0098 -3.3011
 3034TIP3    H230594   2.764   6.197   0.872 -0.8177  0.5117 -1.1085
 3035TIP3   OH230595   2.679   6.688   3.354 -0.0166 -0.1007  0.0125
 3035TIP3    H130596   2.719   6.611   3.395 -0.2684 -1.3565 -1.9561
 3035TIP3    H230597   2.612   6.717   3.416  1.0923 -0.5438  1.4546
 3036TIP3   OH230598   3.689   5.887   4.284 -0.5656 -0.0475 -0.0519
 3036TIP3    H130599   3.624   5.942   4.328 -2.5891 -1.4146 -1.1482
 3036TIP3    H230600   3.704   5.930   4.200  1.4707  1.2758  0.9207
 3037TIP3   OH230601   6.151   5.603   4.715 -0.9119  0.4643  0.2792
 3037TIP3    H130602   6.155   5.692   4.749 -0.7060  0.8568 -0.7247
 3037TIP3    H230603   6.202   5.551   4.777  0.4639  1.3726 -0.0463
 3038TIP3   OH230604   5.660   0.505   6.082  0.4073 -0.5157  0.3890
 3038TIP3    H130605   5.658   0.411   6.066  1.2003 -0.6210  0.8573
 3038TIP3    H230606   5.753   0.527   6.082  0.2010  0.5945 -1.5221
 3039TIP3   OH230607   2.135   5.081  11.768  0.1609 -0.2070 -0.2828
 3039TIP3    H130608   2.108   5.119  11.685 -1.5312 -0.6844  0.0050
 3039TIP3    H230609   2.108   5.145  11.834 -0.6061 -0.8435  0.0376
 3040TIP3   OH230610   4.625   4.605  16.367  0.1077 -0.3219  0.6656
 3040TIP3    H130611   4.547   4.615  16.311  0.7084  1.9548  0.1389
 3040TIP3    H230612   4.624   4.682  16.423  2.4012  0.1866  0.0968
 3041TIP3   OH230613   0.037   2.089   5.837  0.1999 -0.0240  0.0788
 3041TIP3    H130614   0.035   1.993   5.833  2.9066 -0.1716  0.3345
 3041TIP3    H230615   0.111   2.114   5.782 -0.6111  1.9789 -0.1944
 3042TIP3   OH230616   1.454   5.017  14.270 -0.2889  0.0901  0.4132
 3042TIP3    H130617   1.529   4.999  14.214  0.5731  1.6413  1.0130
 3042TIP3    H230618   1.386   5.048  14.210  0.4090  1.1048  0.1283
 3043TIP3   OH230619   3.405   2.156   0.267 -0.2459  0.0256  0.4796
 3043TIP3    H130620   3.489   2.152   0.312 -1.0805  0.7813  2.2262
 3043TIP3    H230621   3.416   2.101   0.189  1.6673 -0.3328  0.9595
 3044TIP3   OH230622   1.882   4.552   2.959 -0.9290 -0.2260 -0.0142
 3044TIP3    H130623   1.795   4.516   2.942 -0.9557 -0.1903  0.0493
 3044TIP3    H230624   1.866   4.640   2.991 -0.8005  1.0563 -3.0668
 3045TIP3   OH230625   6.020   2.181  12.632 -0.0225  0.3659  0.0890
 3045TIP3    H130626   6.003   2.271  12.658 -1.0669  0.6867 -1.5893
 3045TIP3    H230627   5.934   2.144  12.612  0.4983 -0.5889 -0.5189
 3046TIP3   OH230628   0.176   3.401   2.268 -0.1331  0.7725 -0.2163
 3046TIP3    H130629   0.096   3.452   2.257 -0.9973  0.0669  2.0636
 3046TIP3    H230630   0.222   3.408   2.185 -2.6522  1.0751 -1.6673
 3047TIP3   OH230631   1.889   5.601   5.029 -0.3156  0.1137  0.1957
 3047TIP3    H130632   1.927   5.514   5.024 -2.2230 -0.8191  0.7643
 3047TIP3    H230633   1.958   5.656   5.067  0.7591 -1.2502  0.2768
 3048TIP3   OH230634   2.897   0.477  12.169 -0.4821  0.1278 -0.1608
 3048TIP3    H130635   2.873   0.551  12.225  0.0220 -0.1077  0.3750
 3048TIP3    H230636   2.914   0.517  12.084 -0.6733  0.5705  0.0025
 3049TIP3   OH230637   0.613   4.395  13.921  0.6397 -0.2636  0.0415
 3049TIP3    H130638   0.563   4.382  13.841 -0.6592  0.0096  0.7787
 3049TIP3    H230639   0.547   4.412  13.988  1.6959 -0.4331  1.1631
 3050TIP3   OH230640   3.884   6.688   6.895 -0.0833 -0.0638  0.4449
 3050TIP3    H130641   3.892   6.687   6.800 -0.2646 -0.6276  0.4328
 3050TIP3    H230642   3.957   6.743   6.925  0.2479 -0.2612  0.0063
 3051TIP3   OH230643   1.428   3.556  16.955 -0.4290  0.0622 -0.3988
 3051TIP3    H130644   1.361   3.534  16.890  1.1786 -1.5953 -1.5870
 3051TIP3    H230645   1.508   3.570  16.904  0.8354 -0.9916  1.1831
 3052TIP3   OH230646   6.277   5.537   3.754  0.0660  0.4252 -0.5195
 3052TIP3    H130647   6.259   5.624   3.788  0.7257 -0.1446  1.3775
 3052TIP3    H230648   6.190   5.497   3.745 -0.1045  0.1675  1.7600
 3053TIP3   OH230649   0.459   5.291  11.686 -0.3717  0.1386  0.9611
 3053TIP3    H130650   0.518   5.356  11.725 -0.3509 -0.1385  1.3952
 3053TIP3    H230651   0.503   5.266  11.604 -1.5759  2.4989 -0.5219
 3054TIP3   OH230652   2.885   1.915   6.127  0.1528 -0.2441 -0.5197
 3054TIP3    H130653   2.849   1.843   6.178 -0.1872  0.1430 -0.2125
 3054TIP3    H230654   2.836   1.913   6.044 -0.7263  0.4083 -0.0249
 3055TIP3   OH230655   6.230   4.284  14.728  0.2493 -0.3437  0.5967
 3055TIP3    H130656   6.153   4.232  14.704 -1.0260  0.6973  2.2406
 3055TIP3    H230657   6.214   4.369  14.688  0.6949 -0.2017  0.7196
 3056TIP3   OH230658   3.754   0.474  14.169  0.0119  0.1743 -0.4493
 3056TIP3    H130659   3.795   0.401  14.215  0.0505  0.3012 -0.2813
 3056TIP3    H230660   3.701   0.517  14.236 -0.8239 -0.3092 -0.7914
 3057TIP3   OH230661   0.152   2.474  15.335 -0.3491  0.1331 -0.0663
 3057TIP3    H130662   0.089   2.503  15.268  0.2636  1.5187 -0.0790
 3057TIP3    H230663   0.160   2.550  15.394  1.3990  0.0378 -0.1391
 3058TIP3   OH230664   3.615   0.134   6.778 -0.6871  0.3586  0.1112
 3058TIP3    H130665   3.638   0.117   6.687  3.0264  1.4902  0.6715
 3058TIP3    H230666   3.629   0.228   6.788 -0.3145  0.1230  2.0442
 3059TIP3   OH230667   6.013   0.589  12.020 -0.2804  0.1231 -0.2403
 3059TIP3    H130668   6.029   0.533  12.096 -0.5212 -0.5179 -0.6571
 3059TIP3    H230669   6.013   0.678  12.056 -0.1248 -0.1540  0.4655
 3060TIP3   OH230670   4.655   6.551   1.175 -0.1135 -0.4035 -0.0905
 3060TIP3    H130671   4.707   6.551   1.255 -0.5836  0.1103  0.2173
 3060TIP3    H230672   4.702   6.611   1.116 -1.0255  1.0570  0.6353
 3061TIP3   OH230673   3.370   2.733  12.279 -0.4944  0.3511  0.2867
 3061TIP3    H130674   3.464   2.729  12.263 -0.7167 -2.1338 -0.9487
 3061TIP3    H230675   3.341   2.811  12.233  0.8811  0.8404  0.2063
 3062TIP3   OH230676   0.096   5.317  12.618  0.1595  0.3752 -0.0634
 3062TIP3    H130677   0.033   5.323  12.690 -0.3240 -0.3698 -0.4159
 3062TIP3    H230678   0.045   5.342  12.541  0.2749 -0.2870 -0.3585
 3063TIP3   OH230679   3.815   6.205  10.948  0.0311  0.0679  0.9919
 3063TIP3    H130680   3.886   6.141  10.954 -1.1845 -1.3203  1.3873
 3063TIP3    H230681   3.738   6.157  10.980 -1.2020  1.3151  0.0031
 3064TIP3   OH230682   2.229   6.727  15.732  0.0159  0.2289 -0.1203
 3064TIP3    H130683   2.237   6.641  15.691  1.0343 -0.3011  1.1213
 3064TIP3    H230684   2.296   6.780  15.689 -0.4677  0.3504 -0.7354
 3065TIP3   OH230685   3.823   6.275   3.490 -0.0684  0.2779  0.3277
 3065TIP3    H130686   3.747   6.216   3.494 -0.8029  1.1469 -0.2295
 3065TIP3    H230687   3.797   6.341   3.425  0.6254  1.3524  1.1305
 3066TIP3   OH230688   0.417   0.140  15.788  0.1313  0.4638 -0.4484
 3066TIP3    H130689   0.354   0.202  15.753  0.9374  2.1977  1.0020
 3066TIP3    H230690   0.415   0.155  15.883 -1.1887 -3.2658  0.2848
 3067TIP3   OH230691   6.555   2.073  12.411 -0.2717 -0.3392 -0.0931
 3067TIP3    H130692   6.565   1.980  12.392 -1.2230 -0.4747 -0.0135
 3067TIP3    H230693   6.608   2.117  12.345  1.9845 -0.9701  1.2273
 3068TIP3   OH230694   6.423   2.181  15.277  0.0654  0.0910 -0.3989
 3068TIP3    H130695   6.337   2.141  15.283  0.2735 -0.4573 -0.9757
 3068TIP3    H230696   6.415   2.262  15.326 -1.1241  0.6323 -1.4312
 3069TIP3   OH230697   1.423   6.346  16.566 -0.1087  0.4753  0.0791
 3069TIP3    H130698   1.338   6.305  16.549  1.2878 -2.8456  0.4610
 3069TIP3    H230699   1.401   6.430  16.607 -3.1768  0.3067 -0.9306
 3070TIP3   OH230700   5.063   3.637   5.646 -0.1181 -0.6933 -0.0990
 3070TIP3    H130701   5.152   3.614   5.674 -0.2439 -0.9503  0.1054
 3070TIP3    H230702   5.075   3.710   5.585 -0.0148  2.2332  3.1324
 3071TIP3   OH230703   0.849   0.194  14.035 -0.0747  0.1567  0.1820
 3071TIP3    H130704   0.934   0.214  14.073 -0.6109 -2.6297  3.2820
 3071TIP3    H230705   0.786   0.218  14.103 -1.6598  0.2289 -1.2203
 3072TIP3   OH230706   4.214   5.724  15.845  0.1672 -0.4162  0.2368
 3072TIP3    H130707   4.218   5.664  15.920  1.5369 -0.7468 -0.0763
 3072TIP3    H230708   4.130   5.770  15.856 -1.2176 -2.7709  0.1863
 3073TIP3   OH230709   4.870   4.893  16.990  0.1129  0.1635  0.4362
 3073TIP3    H130710   4.921   4.925  17.064 -1.5058  0.0917  1.6209
 3073TIP3    H230711   4.787   4.940  16.996 -0.4300 -0.6058 -0.7407
 3074TIP3   OH230712   4.600   1.165   4.066 -0.3317  0.4463 -0.0274
 3074TIP3    H130713   4.620   1.222   3.992 -1.2663  1.9322  0.8180
 3074TIP3    H230714   4.533   1.106   4.032 -1.1637  1.4782 -0.2443
 3075TIP3   OH230715   3.517   6.361   2.909  0.5977  0.1108  0.0458
 3075TIP3    H130716   3.507   6.448   2.871  0.5576  0.3470  0.5980
 3075TIP3    H230717   3.598   6.327   2.871  0.0157 -0.0792 -1.0692
 3076TIP3   OH230718   5.170   3.102  15.765  0.1594  0.3319 -0.6125
 3076TIP3    H130719   5.217   3.184  15.772 -0.1923  0.4450  0.7358
 3076TIP3    H230720   5.159   3.073  15.856  0.3059 -1.2139 -1.0598
 3077TIP3   OH230721   1.955   0.463  11.799  0.0824  0.1489 -0.2733
 3077TIP3    H130722   1.946   0.542  11.745 -2.1977 -0.9404 -1.6240
 3077TIP3    H230723   1.939   0.493  11.888 -1.2861  1.1628 -0.8238
 3078TIP3   OH230724   0.607   5.445  12.779 -0.1392  0.0033  0.7228
 3078TIP3    H130725   0.552   5.422  12.853  0.2070 -1.9458  0.4149
 3078TIP3    H230726   0.561   5.412  12.702  0.3811  0.3737  0.2381
 3079TIP3   OH230727   2.245   2.528   4.583  0.2068  0.2259 -0.0111
 3079TIP3    H130728   2.174   2.477   4.621 -0.4517  1.1989  0.1161
 3079TIP3    H230729   2.218   2.619   4.597  2.5513  0.6926  2.1067
 3080TIP3   OH230730   4.477   5.357  16.314 -0.3257 -0.1525 -0.0586
 3080TIP3    H130731   4.500   5.269  16.344  1.6703  0.5961  0.8161
 3080TIP3    H230732   4.504   5.359  16.222 -1.0299 -0.6546 -0.2819
 3081TIP3   OH230733   6.234   2.937   3.040 -0.5259  0.1169 -0.1679
 3081TIP3    H130734   6.250   2.948   2.946 -1.3291  0.4124 -0.2758
 3081TIP3    H230735   6.318   2.958   3.081 -0.3079  0.4821 -0.7849
 3082TIP3   OH230736   3.758   5.395   1.060  0.5681 -0.0194  0.3626
 3082TIP3    H130737   3.692   5.327   1.048 -0.0597  0.7326 -0.5345
 3082TIP3    H230738   3.751   5.419   1.152 -0.1002 -0.2513  0.3774
 3083TIP3   OH230739   6.214   4.894  17.051  0.5238 -0.1556 -0.2574
 3083TIP3    H130740   6.248   4.834  16.986  0.9389 -1.1995  0.8849
 3083TIP3    H230741   6.261   4.873  17.131 -2.2554 -1.1975  1.2402
 3084TIP3   OH230742   0.232   1.286   4.564 -0.2501  0.4536 -0.4291
 3084TIP3    H130743   0.274   1.207   4.530  1.1636  0.3157  1.5070
 3084TIP3    H230744   0.295   1.356   4.548 -1.0909  1.0635 -1.2461
 3085TIP3   OH230745   3.746   5.065   3.594 -0.3168 -0.4082 -0.4136
 3085TIP3    H130746   3.744   5.134   3.527  1.3839 -1.4152 -1.5915
 3085TIP3    H230747   3.796   5.104   3.666 -0.7084  0.1185 -0.4193
 3086TIP3   OH230748   6.625   0.541   4.988  0.1232 -0.4608  0.2428
 3086TIP3    H130749   6.599   0.473   4.926 -1.0310  0.1221  0.0601
 3086TIP3    H230750   6.684   0.598   4.939  1.9183 -1.8621  0.6902
 3087TIP3   OH230751   0.063   5.811  15.317 -0.7116 -0.7183  0.4811
 3087TIP3    H130752   0.126   5.761  15.369  0.8836  0.6835  0.0136
 3087TIP3    H230753   0.037   5.752  15.247  0.8068 -1.0726  0.1793
 3088TIP3   OH230754   1.390   3.593  12.652  0.1638  0.5056 -0.9843
 3088TIP3    H130755   1.452   3.578  12.724  1.2003 -0.9470 -2.0956
 3088TIP3    H230756   1.328   3.656  12.686  0.2157 -0.6316  1.4304
 3089TIP3   OH230757   0.979   5.156   2.561 -0.4185  0.5760  0.3620
 3089TIP3    H130758   0.949   5.186   2.475  1.4129  0.4804 -0.3635
 3089TIP3    H230759   0.988   5.236   2.612 -0.3058  0.7740  0.0397
 3090TIP3   OH230760   0.799   2.023   5.150  0.1485  0.2932 -0.1300
 3090TIP3    H130761   0.793   2.118   5.162 -2.1222  0.2334 -0.4334
 3090TIP3    H230762   0.860   2.012   5.076  0.0500  1.5262 -0.4129
 3091TIP3   OH230763   5.260   5.582  11.682 -0.1591  0.1718  0.1963
 3091TIP3    H130764   5.306   5.498  11.690  0.1367  0.4547  2.2201
 3091TIP3    H230765   5.167   5.559  11.678 -0.0450 -0.2751  0.0731
 3092TIP3   OH230766   2.137   6.294   3.708  0.0804 -0.1592  0.2054
 3092TIP3    H130767   2.065   6.239   3.676  0.1211 -0.2538  0.2758
 3092TIP3    H230768   2.154   6.355   3.637  1.2567 -1.4111 -0.6400
 3093TIP3   OH230769   2.330   6.151  15.426 -0.3221  0.9257 -0.3524
 3093TIP3    H130770   2.243   6.174  15.394 -0.3102  1.3703 -0.0806
 3093TIP3    H230771   2.390   6.184  15.359 -0.2931  1.9217  0.1421
 3094TIP3   OH230772   2.923   5.663   2.740 -0.1379  0.3886  0.1028
 3094TIP3    H130773   2.901   5.745   2.784 -0.7266 -0.7954  2.1449
 3094TIP3    H230774   2.840   5.617   2.732  0.2589 -0.2445 -0.5517
 3095TIP3   OH230775   1.727   5.961   5.971  0.0327  0.4240 -0.5749
 3095TIP3    H130776   1.797   5.991   6.028 -0.4312  1.3903 -0.4949
 3095TIP3    H230777   1.652   5.950   6.029  0.3733 -1.7293 -0.4472
 3096TIP3   OH230778   2.377   5.158  12.277 -0.1626 -0.0588  0.0381
 3096TIP3    H130779   2.311   5.099  12.240 -2.3328  2.1852  0.0458
 3096TIP3    H230780   2.326   5.230  12.313  2.2610  0.9649  1.6496
 3097TIP3   OH230781   5.682   1.030  14.442  0.3682 -0.8025  0.1784
 3097TIP3    H130782   5.752   1.071  14.392  0.3882  0.3705  1.1268
 3097TIP3    H230783   5.721   1.010  14.527 -0.7224  0.9173  1.1323
 3098TIP3   OH230784   0.702   4.900   1.914  0.1575 -0.5751 -0.2355
 3098TIP3    H130785   0.643   4.827   1.898 -0.0568 -0.5888  0.5669
 3098TIP3    H230786   0.664   4.973   1.864  0.2773 -0.9497 -0.8927
 3099TIP3   OH230787   2.205   3.181   1.133 -0.0327 -0.1728 -0.6557
 3099TIP3    H130788   2.172   3.180   1.223 -0.2095 -0.2242 -0.7219
 3099TIP3    H230789   2.144   3.237   1.086  0.2331  0.1003 -0.6778
 3100TIP3   OH230790   3.080   2.427   0.944 -0.1462  0.1842 -0.1453
 3100TIP3    H130791   3.136   2.487   0.895 -0.6317 -0.0414 -1.0054
 3100TIP3    H230792   3.115   2.340   0.925 -0.2002  0.1097  0.0946
 3101TIP3   OH230793   1.511   2.375  13.474 -0.6428  0.1184 -0.5307
 3101TIP3    H130794   1.602   2.357  13.452 -0.5825 -1.4866  0.8690
 3101TIP3    H230795   1.515   2.431  13.552 -0.8111 -1.3533  0.5706
 3102TIP3   OH230796   5.566   4.135  16.275  0.4156  0.2488  0.1168
 3102TIP3    H130797   5.488   4.183  16.303  0.4001  0.6499 -0.6196
 3102TIP3    H230798   5.557   4.049  16.318 -0.3807  0.3245  0.1099
 3103TIP3   OH230799   1.140   3.004   5.863  0.4792  0.1911 -0.0584
 3103TIP3    H130800   1.229   3.038   5.862 -0.4284  2.9713 -2.3752
 3103TIP3    H230801   1.102   3.037   5.945  0.9090  1.1161 -0.2230
 3104TIP3   OH230802   6.000   3.088   0.700 -0.0284  1.2233  0.1997
 3104TIP3    H130803   6.004   3.122   0.790 -0.2773  0.4661  0.5084
 3104TIP3    H230804   5.912   3.050   0.693 -0.3039  2.0067 -0.6396
 3105TIP3   OH230805   5.217   5.539   3.283  0.2761 -0.3400 -0.1892
 3105TIP3    H130806   5.138   5.593   3.278  0.0681 -0.5293  0.6854
 3105TIP3    H230807   5.247   5.530   3.193 -2.0077 -2.1684 -0.8711
 3106TIP3   OH230808   1.926   5.546  17.067  0.0547 -0.0651  0.3378
 3106TIP3    H130809   1.935   5.462  17.111  3.4917  0.8587  1.7495
 3106TIP3    H230810   1.921   5.524  16.974 -2.7685 -1.8660  0.8066
 3107TIP3   OH230811   1.391   5.709   5.168  0.7406 -0.4708  0.4037
 3107TIP3    H130812   1.346   5.794   5.171  0.3097 -0.6246 -0.9212
 3107TIP3    H230813   1.484   5.731   5.181  0.6464  0.2204 -0.0154
 3108TIP3   OH230814   6.655   6.278   0.893 -0.1209 -0.0474 -0.4269
 3108TIP3    H130815   6.598   6.337   0.941 -1.1210 -0.9394 -0.4686
 3108TIP3    H230816   6.724   6.255   0.955 -1.0817 -0.7373  0.4330
 3109TIP3   OH230817   4.362   0.513   5.278  0.3681 -0.0730 -0.6536
 3109TIP3    H130818   4.272   0.520   5.245  0.2374 -1.3604 -0.6534
 3109TIP3    H230819   4.413   0.483   5.203  0.7862  0.5568 -0.6268
 3110TIP3   OH230820   5.211   1.215   2.003  0.0321 -0.4129  0.5184
 3110TIP3    H130821   5.182   1.296   2.045 -1.4176 -0.8776  0.4334
 3110TIP3    H230822   5.178   1.145   2.058  0.8942 -0.9788  0.3421
 3111TIP3   OH230823   3.680   0.672   4.005 -0.0129  0.0007  0.1307
 3111TIP3    H130824   3.709   0.763   4.009  0.9719 -0.2923  0.0862
 3111TIP3    H230825   3.585   0.677   4.003 -0.0496  0.9446  2.1195
 3112TIP3   OH230826   5.002   4.823   5.443  0.0930  0.1747 -0.0234
 3112TIP3    H130827   4.970   4.844   5.356 -0.0556 -0.8155 -0.2173
 3112TIP3    H230828   5.005   4.907   5.489 -0.4830  0.6050 -0.7643
 3113TIP3   OH230829   2.983   3.822  13.798 -0.0282 -0.2783 -0.0496
 3113TIP3    H130830   2.960   3.871  13.877  2.0438  2.0943 -0.7957
 3113TIP3    H230831   3.074   3.798  13.810  0.3618  0.2187 -1.7419
 3114TIP3   OH230832   6.759   5.606   4.461 -0.2214  0.3760 -0.3191
 3114TIP3    H130833   6.833   5.640   4.411  0.2797 -1.4426 -0.8857
 3114TIP3    H230834   6.777   5.635   4.551  2.0327 -1.2460 -0.1505
 3115TIP3   OH230835   5.303   3.599  16.177  0.0198  0.0610  0.5989
 3115TIP3    H130836   5.290   3.656  16.253 -2.4621  2.3723 -1.3346
 3115TIP3    H230837   5.232   3.535  16.183 -0.6976  0.7596 -0.1211
 3116TIP3   OH230838   0.842   0.033   0.890  0.0783 -0.2243 -0.0458
 3116TIP3    H130839   0.937   0.042   0.900  0.1623 -1.4655  0.4917
 3116TIP3    H230840   0.829   0.019   0.797  0.3638  0.5149 -0.2031
 3117TIP3   OH230841   0.571   2.255   4.656 -0.1309  0.2818 -0.0792
 3117TIP3    H130842   0.622   2.256   4.737  1.9602  1.5259 -1.3235
 3117TIP3    H230843   0.487   2.295   4.681  0.4659  0.6723  1.4659
 3118TIP3   OH230844   4.789   6.509   3.359  0.2421 -0.8219 -0.3934
 3118TIP3    H130845   4.793   6.575   3.428  0.4764 -0.7623 -0.4597
 3118TIP3    H230846   4.876   6.468   3.360  0.8388  0.3004 -1.7224
 3119TIP3   OH230847   1.006   3.937  12.871  0.3754  0.2394 -0.3675
 3119TIP3    H130848   0.914   3.918  12.855 -0.2084  2.1766  0.4166
 3119TIP3    H230849   1.028   4.004  12.806  1.0591  0.2331 -0.1471
 3120TIP3   OH230850   1.047   2.507  11.219 -0.6037  0.1456 -0.2006
 3120TIP3    H130851   0.992   2.544  11.150  0.4582 -0.0529 -1.1970
 3120TIP3    H230852   1.110   2.576  11.240  1.7354 -1.0993 -2.4508
 3121TIP3   OH230853   1.287   1.041   2.496 -0.2938  0.1994  0.7409
 3121TIP3    H130854   1.342   1.009   2.567  0.1404 -0.8378 -0.0320
 3121TIP3    H230855   1.225   1.101   2.538  0.5572  0.3325  1.8287
 3122TIP3   OH230856   1.269   6.650  15.731  0.4442 -0.0086  0.0912
 3122TIP3    H130857   1.274   6.602  15.814 -1.0135  0.0539  0.2365
 3122TIP3    H230858   1.192   6.705  15.740  0.8386  0.7378 -0.9365
 3123TIP3   OH230859   4.982   2.217   0.146 -0.2637 -0.5032 -0.5443
 3123TIP3    H130860   5.056   2.180   0.194 -0.1486  1.2745  0.7463
 3123TIP3    H230861   5.019   2.292   0.099 -1.4578  1.5487  1.5539
 3124TIP3   OH230862   2.730   5.907   0.394 -0.3594 -0.0262  0.3799
 3124TIP3    H130863   2.812   5.874   0.358 -0.5863 -0.7413  0.5007
 3124TIP3    H230864   2.697   5.966   0.326 -0.3588 -0.6947 -0.2209
 3125TIP3   OH230865   0.921   1.448   2.566 -0.6007  0.5201  0.7173
 3125TIP3    H130866   0.966   1.532   2.563 -1.3530  0.9323 -2.1362
 3125TIP3    H230867   0.840   1.462   2.517  0.4822 -2.4597 -2.3428
 3126TIP3   OH230868   1.874   2.187   0.221  0.5509 -0.3987 -0.3861
 3126TIP3    H130869   1.850   2.244   0.294  1.7863 -0.1511 -0.1352
 3126TIP3    H230870   1.821   2.109   0.232  0.3387 -0.1419  0.4746
 3127TIP3   OH230871   5.719   2.019  17.039 -0.4049 -0.3114  0.3517
 3127TIP3    H130872   5.628   2.045  17.053  0.3825  2.7488  0.4960
 3127TIP3    H230873   5.766   2.053  17.115  1.2374  0.6769 -1.0281
 3128TIP3   OH230874   5.748   6.322   2.804  0.2107 -0.2645  0.4905
 3128TIP3    H130875   5.665   6.315   2.851 -0.6634 -0.9196 -1.0800
 3128TIP3    H230876   5.808   6.264   2.852 -1.3287 -2.8846 -0.5285
 3129TIP3   OH230877   2.886   1.371   0.891 -1.1749 -0.5570  0.3586
 3129TIP3    H130878   2.917   1.298   0.837 -0.1271  0.3369 -0.2855
 3129TIP3    H230879   2.919   1.351   0.979  0.7854  0.0474 -0.1871
 3130TIP3   OH230880   1.871   5.917   2.043 -0.1404  0.0138  0.1971
 3130TIP3    H130881   1.964   5.920   2.066 -0.1067 -0.3694  0.1178
 3130TIP3    H230882   1.869   5.873   1.958 -0.3330  0.6999 -0.1536
 3131TIP3   OH230883   3.683   2.710   1.283  0.7087  0.1252 -0.3814
 3131TIP3    H130884   3.640   2.727   1.368 -0.0115 -1.4949 -0.3894
 3131TIP3    H230885   3.729   2.792   1.263  0.6599  0.6458  1.4326
 3132TIP3   OH230886   2.088   3.481  11.261  0.0023  0.5977 -0.1052
 3132TIP3    H130887   2.018   3.547  11.251 -0.8418 -0.5471 -2.4554
 3132TIP3    H230888   2.128   3.475  11.174  0.7785 -1.1982  0.3356
 3133TIP3   OH230889   0.389   5.102   2.140  0.1074  0.7016 -0.5478
 3133TIP3    H130890   0.391   5.007   2.153  1.2862  0.6450 -0.9698
 3133TIP3    H230891   0.482   5.127   2.134 -0.1995  1.5573 -2.6059
 3134TIP3   OH230892   5.062   5.932   5.810 -0.4178 -0.2851  0.6350
 3134TIP3    H130893   5.027   5.925   5.898 -1.4924  2.0080  0.4610
 3134TIP3    H230894   5.096   6.021   5.804 -0.2752 -0.4153 -1.2213
 3135TIP3   OH230895   3.166   4.690  13.934 -0.1181  0.2853 -0.4416
 3135TIP3    H130896   3.103   4.718  13.999  1.0619  1.0207  0.4304
 3135TIP3    H230897   3.216   4.769  13.912  0.0684 -0.1294 -1.6023
 3136TIP3   OH230898   1.950   4.771   3.474  0.4592  0.0723 -0.0975
 3136TIP3    H130899   1.918   4.766   3.384  1.4112  2.4628 -0.6245
 3136TIP3    H230900   1.870   4.771   3.527 -0.1403 -0.6626 -0.9627
 3137TIP3   OH230901   4.362   5.528   4.170 -0.1209  0.1156 -0.3979
 3137TIP3    H130902   4.391   5.477   4.246 -0.9147 -0.2722 -0.3473
 3137TIP3    H230903   4.292   5.475   4.131  0.3275  0.2634 -1.4476
 3138TIP3   OH230904   3.331   0.848  13.878 -0.4890 -0.0210 -0.1498
 3138TIP3    H130905   3.309   0.932  13.919 -0.0362 -0.5276  1.2140
 3138TIP3    H230906   3.404   0.814  13.931 -0.6916 -1.2916 -0.6497
 3139TIP3   OH230907   1.904   2.679  13.994 -0.4826 -0.0869  0.6536
 3139TIP3    H130908   1.990   2.665  14.033  0.4913  2.1196 -0.5632
 3139TIP3    H230909   1.853   2.723  14.062  0.2691  1.0891  0.4828
 3140TIP3   OH230910   5.928   2.030  13.520 -0.2701  0.2190 -0.7279
 3140TIP3    H130911   5.901   1.939  13.530 -0.0260  0.2045 -0.1540
 3140TIP3    H230912   5.975   2.032  13.436  1.2825 -0.5714  0.0896
 3141TIP3   OH230913   1.687   1.847   5.441  0.3609 -0.1437  0.2071
 3141TIP3    H130914   1.743   1.896   5.501 -0.0407 -0.8573  1.2056
 3141TIP3    H230915   1.668   1.908   5.370  2.3422  0.1302 -0.1343
 3142TIP3   OH230916   3.526   6.741  15.526 -0.4113  0.1090 -0.0970
 3142TIP3    H130917   3.592   6.720  15.460 -1.2690  0.6837 -1.1772
 3142TIP3    H230918   3.444   6.705  15.491 -0.9671  0.8341  0.4105
 3143TIP3   OH230919   3.982   2.379  16.432 -0.3127  0.0294 -0.1370
 3143TIP3    H130920   3.981   2.344  16.521 -0.0007 -0.0161 -0.1513
 3143TIP3    H230921   3.942   2.310  16.379 -2.5193  0.9033  0.2663
 3144TIP3   OH230922   4.343   2.906  15.669 -0.0621 -0.0276 -0.0060
 3144TIP3    H130923   4.293   2.967  15.616 -1.7941 -0.5907  0.9212
 3144TIP3    H230924   4.365   2.955  15.748 -1.6816 -0.6200  0.8566
 3145TIP3   OH230925   3.798   5.063   3.951  0.9809  0.1200 -0.0848
 3145TIP3    H130926   3.819   5.045   4.043 -0.5014  1.6050  0.5825
 3145TIP3    H230927   3.754   4.983   3.921  2.6423 -0.9034  0.0533
 3146TIP3   OH230928   1.712   4.811  13.105  0.3531 -0.2244 -0.0847
 3146TIP3    H130929   1.692   4.719  13.088 -1.1508  0.1183 -0.2504
 3146TIP3    H230930   1.698   4.822  13.199 -0.9504  0.1652 -0.3049
 3147TIP3   OH230931   1.087   5.287  13.255 -0.1339  0.2439  0.3757
 3147TIP3    H130932   1.114   5.312  13.343 -0.2337  1.7142  0.0068
 3147TIP3    H230933   1.052   5.367  13.217 -1.8784 -0.8066 -0.3406
 3148TIP3   OH230934   5.957   6.297  12.723  0.4823  0.3974  0.0180
 3148TIP3    H130935   5.871   6.332  12.699 -0.1769 -0.0945  1.5486
 3148TIP3    H230936   6.017   6.369  12.709  0.1116  0.2903 -2.6118
 3149TIP3   OH230937   2.252   6.415  12.068 -0.1276  0.1325 -0.2215
 3149TIP3    H130938   2.328   6.455  12.025 -0.0719 -1.4315 -1.6682
 3149TIP3    H230939   2.289   6.356  12.134 -0.1435  0.4831  0.1061
 3150TIP3   OH230940   1.175   3.481   1.224 -0.2529  0.3360  0.3737
 3150TIP3    H130941   1.174   3.560   1.170 -0.3178 -0.0230 -0.1679
 3150TIP3    H230942   1.123   3.418   1.174  1.4626 -0.6819 -0.1935
 3151TIP3   OH230943   3.142   2.490  15.832  0.3187  0.5120 -0.0132
 3151TIP3    H130944   3.099   2.450  15.908 -3.1228  4.5162  0.5042
 3151TIP3    H230945   3.234   2.496  15.858 -0.1016 -1.3446  2.3158
 3152TIP3   OH230946   2.697   3.201   4.450  0.2430 -0.5077  0.4637
 3152TIP3    H130947   2.666   3.257   4.521  1.3227 -0.1546  0.6706
 3152TIP3    H230948   2.636   3.128   4.448 -2.1648  1.3852 -0.8091
 3153TIP3   OH230949   1.603   5.481  12.910  0.0937  0.4747  0.0188
 3153TIP3    H130950   1.545   5.441  12.974  1.2514 -0.2207  0.6682
 3153TIP3    H230951   1.654   5.545  12.960  2.3447 -1.3962  0.2687
 3154TIP3   OH230952   4.776   6.626  15.144  0.1051  0.4361  0.3532
 3154TIP3    H130953   4.712   6.596  15.208  1.2400  0.1143  1.3769
 3154TIP3    H230954   4.764   6.569  15.068 -0.2289 -0.1958  0.8800
 3155TIP3   OH230955   1.956   4.773  17.063 -0.7193 -0.0960 -0.3149
 3155TIP3    H130956   1.885   4.800  17.004  0.1249  2.3188 -0.3343
 3155TIP3    H230957   1.994   4.855  17.094  1.2197 -1.3209  0.7603
 3156TIP3   OH230958   1.097   6.455  13.995  0.4994  0.7605  0.2537
 3156TIP3    H130959   1.131   6.476  13.908 -1.2697  0.2006 -0.6351
 3156TIP3    H230960   1.141   6.373  14.018  0.3430  0.4343 -0.5392
 3157TIP3   OH230961   4.518   2.206   5.276 -0.6402  0.1115  0.0457
 3157TIP3    H130962   4.473   2.288   5.255  1.8643  1.4341 -0.5255
 3157TIP3    H230963   4.549   2.174   5.191 -1.2027 -1.2354  0.3219
 3158TIP3   OH230964   0.157   0.031   1.931 -0.1047  0.1924 -0.8259
 3158TIP3    H130965   0.230   0.082   1.898  1.4263 -1.7148 -0.5536
 3158TIP3    H230966   0.083   0.057   1.877  0.3185  3.3680 -0.0602
 3159TIP3   OH230967   3.151   2.188  11.083 -0.0078 -0.3748  0.7316
 3159TIP3    H130968   3.133   2.229  10.998 -0.5706  0.0479  1.0556
 3159TIP3    H230969   3.149   2.094  11.064  3.7740 -0.3990 -0.5674
 3160TIP3   OH230970   6.286   5.829   4.837  0.4290 -0.0611  0.0437
 3160TIP3    H130971   6.222   5.889   4.875 -0.2085  0.0279 -1.1294
 3160TIP3    H230972   6.366   5.881   4.830  0.2189  0.2800  0.1594
 3161TIP3   OH230973   2.150   4.109  14.528 -0.1474  0.1792  0.0337
 3161TIP3    H130974   2.190   4.186  14.487 -2.1119  1.4535  0.3631
 3161TIP3    H230975   2.098   4.145  14.600  0.1185 -1.6312  1.1880
 3162TIP3   OH230976   4.956   0.257  16.656 -0.2150 -0.1025 -0.6030
 3162TIP3    H130977   5.022   0.308  16.609  1.3020 -0.0396  1.4522
 3162TIP3    H230978   4.962   0.287  16.747 -1.6809 -1.5447  0.0353
 3163TIP3   OH230979   5.370   0.684   1.136 -0.2965  0.1090  0.6066
 3163TIP3    H130980   5.457   0.715   1.110 -0.5285  1.1221  1.0119
 3163TIP3    H230981   5.354   0.725   1.221 -0.7474 -0.8958  1.0292
 3164TIP3   OH230982   6.783   3.828   1.951  0.3900  0.5022  0.1941
 3164TIP3    H130983   6.874   3.800   1.959  0.7698  2.0992  2.3111
 3164TIP3    H230984   6.761   3.864   2.037 -1.9965  0.9253 -0.5097
 3165TIP3   OH230985   1.341   5.811  11.889  0.3696  0.2457  0.1568
 3165TIP3    H130986   1.408   5.862  11.935 -0.5998  1.1058  0.6470
 3165TIP3    H230987   1.340   5.727  11.935  0.1111  0.7426  1.0916
 3166TIP3   OH230988   0.392   5.919  16.359  0.4619 -0.1159  0.0876
 3166TIP3    H130989   0.315   5.941  16.306  0.6696 -2.4861 -1.3514
 3166TIP3    H230990   0.455   5.988  16.340 -0.8405  1.1800  0.3136
 3167TIP3   OH230991   5.081   6.216  14.015 -0.5402 -0.0136  0.5299
 3167TIP3    H130992   5.091   6.236  13.922 -0.6593  3.0133  1.0703
 3167TIP3    H230993   4.987   6.201  14.026 -0.4037 -1.3557  0.0432
 3168TIP3   OH230994   4.403   3.052   5.101 -0.0124  0.2732 -0.5144
 3168TIP3    H130995   4.418   2.998   5.024 -0.7295 -2.2198  0.9934
 3168TIP3    H230996   4.475   3.116   5.099  0.0508  0.2297 -3.1250
 3169TIP3   OH230997   1.787   6.503  15.896 -0.3415  0.4946  0.2265
 3169TIP3    H130998   1.838   6.546  15.965 -1.1878  1.4493  0.2886
 3169TIP3    H230999   1.778   6.571  15.829 -1.1497  0.1919  0.0312
 3170TIP3   OH231000   4.146   6.030  16.352  0.2409  0.2366  0.3455
 3170TIP3    H131001   4.225   6.076  16.382  0.6770  0.0651 -0.5074
 3170TIP3    H231002   4.121   5.975  16.426  1.2116 -0.0748  0.4573
 3171TIP3   OH231003   2.406   0.563  17.160  0.3567  0.0336  0.1187
 3171TIP3    H131004   2.468   0.498  17.195 -1.4787 -1.7834  0.1841
 3171TIP3    H231005   2.331   0.558  17.219  0.3687  2.7272  0.4751
 3172TIP3   OH231006   3.067   1.094   2.434  0.0641  0.1169 -0.1714
 3172TIP3    H131007   3.016   1.043   2.497 -0.0888  0.3260 -0.1240
 3172TIP3    H231008   3.146   1.119   2.483 -0.3225  0.7743  0.1285
 3173TIP3   OH231009   0.902   6.376   5.472 -0.0088 -0.2323 -1.0117
 3173TIP3    H131010   0.997   6.363   5.482 -0.0791  0.8729  2.1982
 3173TIP3    H231011   0.895   6.460   5.426  0.8160  2.1402  2.7170
 3174TIP3   OH231012   3.337   2.824   1.090  0.0886  0.0462 -0.5599
 3174TIP3    H131013   3.254   2.869   1.072 -0.2465 -0.1256  0.4976
 3174TIP3    H231014   3.312   2.732   1.100  0.3941  0.0056 -0.1594
 3175TIP3   OH231015   3.903   6.347   2.344  0.6437 -0.5488  0.5373
 3175TIP3    H131016   3.984   6.299   2.327  0.0452 -1.7438  0.9071
 3175TIP3    H231017   3.913   6.382   2.432  1.6266  1.1878 -0.2269
 3176TIP3   OH231018   1.488   6.421   2.667 -0.2641 -0.4684  0.5087
 3176TIP3    H131019   1.435   6.497   2.644  1.9110  0.8944 -0.3910
 3176TIP3    H231020   1.476   6.360   2.594 -1.4386 -0.7095  0.8788
 3177TIP3   OH231021   5.289   6.057   2.811 -0.4797 -0.1244  0.2374
 3177TIP3    H131022   5.196   6.079   2.817 -0.4769  0.6395 -1.7050
 3177TIP3    H231023   5.332   6.114   2.875 -1.2032  0.6400  0.0583
 3178TIP3   OH231024   2.725   0.645  12.337  0.2948  0.2517 -0.1287
 3178TIP3    H131025   2.721   0.741  12.344  0.3659  0.5102 -2.5460
 3178TIP3    H231026   2.637   0.616  12.361  0.3511  0.8852  0.9106
 3179TIP3   OH231027   4.089   3.563  12.275 -0.1429  0.0424 -0.4287
 3179TIP3    H131028   4.007   3.553  12.325  0.1087  0.6328  0.1206
 3179TIP3    H231029   4.072   3.636  12.215  0.2849  0.8273  0.3693
 3180TIP3   OH231030   5.027   5.506  17.244 -0.1841 -0.4045  0.2713
 3180TIP3    H131031   4.977   5.465  17.314 -0.8528 -0.6939 -0.3628
 3180TIP3    H231032   5.101   5.446  17.230  0.5425  0.1870  1.4230
 3181TIP3   OH231033   0.781   0.366  10.590  0.0936  0.1777 -0.3212
 3181TIP3    H131034   0.722   0.297  10.559 -0.5196  0.4639  0.1761
 3181TIP3    H231035   0.798   0.419  10.513 -0.3547  0.1203 -0.4654
 3182TIP3   OH231036   4.384   5.330   5.820  0.3163 -0.3385 -0.6541
 3182TIP3    H131037   4.468   5.310   5.862  0.5325 -0.0007 -0.9204
 3182TIP3    H231038   4.324   5.266   5.857  0.6528 -0.4792 -0.3329
 3183TIP3   OH231039   3.872   3.361   3.920 -0.3006 -0.4098  0.4234
 3183TIP3    H131040   3.854   3.413   3.998 -0.6228 -0.5001  0.4088
 3183TIP3    H231041   3.908   3.424   3.857 -1.5919  0.0002  0.0677
 3184TIP3   OH231042   2.619   5.042   0.666  0.2614 -0.2826  0.0801
 3184TIP3    H131043   2.553   5.001   0.722 -0.0942 -0.6454 -0.5946
 3184TIP3    H231044   2.676   5.089   0.727 -0.9641  0.5379  0.6428
 3185TIP3   OH231045   1.622   1.954  12.062  0.0988 -0.0926 -0.0548
 3185TIP3    H131046   1.609   1.917  11.974 -1.5213  0.1180  0.0685
 3185TIP3    H231047   1.567   1.901  12.119  2.0640 -1.0167  1.0958
 3186TIP3   OH231048   6.337   3.016  13.626  0.3546  0.4559  0.2223
 3186TIP3    H131049   6.319   2.946  13.688 -0.1864  1.1140  0.8416
 3186TIP3    H231050   6.250   3.051  13.604  0.4618 -0.3577 -1.6368
 3187TIP3   OH231051   1.180   1.076  14.334  0.4182  0.0789 -0.2795
 3187TIP3    H131052   1.256   1.111  14.380  0.4925 -0.4316  0.0041
 3187TIP3    H231053   1.140   1.151  14.292  1.3004  0.2888 -0.7573
 3188TIP3   OH231054   0.520   4.649   2.047  0.8058 -0.3070 -0.1476
 3188TIP3    H131055   0.469   4.712   2.097 -2.8108 -1.3126 -2.1809
 3188TIP3    H231056   0.515   4.681   1.957  4.5053 -0.1464 -0.4376
 3189TIP3   OH231057   4.346   1.212   2.494  0.1533 -0.0974 -0.1926
 3189TIP3    H131058   4.254   1.238   2.489 -0.3658 -1.9366 -1.4880
 3189TIP3    H231059   4.391   1.289   2.530 -1.8389  0.9172  0.2845
 3190TIP3   OH231060   5.529   4.130  14.819  0.9863  0.6837 -0.1379
 3190TIP3    H131061   5.581   4.079  14.881 -1.0072 -0.9121  0.3429
 3190TIP3    H231062   5.538   4.220  14.848 -0.3408 -0.0345  2.9891
 3191TIP3   OH231063   0.576   1.110   5.336 -0.7443 -0.1218  0.2974
 3191TIP3    H131064   0.515   1.139   5.404  0.7112 -0.4239  1.7971
 3191TIP3    H231065   0.626   1.188   5.313 -0.1187 -0.3771  0.7817
 3192TIP3   OH231066   5.808   2.110  15.637 -0.3692  0.6238  0.2051
 3192TIP3    H131067   5.758   2.120  15.556  0.5552 -0.3692 -0.5174
 3192TIP3    H231068   5.758   2.047  15.689  0.3723 -0.8385 -0.7708
 3193TIP3   OH231069   4.304   0.118  12.661  0.0591  0.2068  0.0340
 3193TIP3    H131070   4.284   0.129  12.568  0.9144  0.5669 -0.1095
 3193TIP3    H231071   4.229   0.069  12.695 -0.5614  0.6136 -0.7115
 3194TIP3   OH231072   3.219   3.954  12.758  0.3588 -0.0019 -0.7180
 3194TIP3    H131073   3.171   3.895  12.816  1.2053  0.5682  0.5906
 3194TIP3    H231074   3.175   3.944  12.673 -0.6596 -1.1379 -0.0922
 3195TIP3   OH231075   3.941   5.319  12.652 -0.8232  0.5288  0.2756
 3195TIP3    H131076   3.967   5.411  12.647 -0.5311  0.4722  0.6747
 3195TIP3    H231077   3.890   5.304  12.573  1.0474  0.4137 -0.9821
 3196TIP3   OH231078   6.165   4.445  12.465 -0.1097  0.0338 -0.9072
 3196TIP3    H131079   6.110   4.480  12.535  0.7697  0.3510 -0.3567
 3196TIP3    H231080   6.125   4.480  12.384 -1.0424 -0.2141 -0.5688
 3197TIP3   OH231081   4.278   2.692  11.540  0.1353 -0.4520  0.1647
 3197TIP3    H131082   4.183   2.702  11.543  0.2236  0.8627 -0.4513
 3197TIP3    H231083   4.311   2.778  11.568  1.1353 -0.7908  0.0565
 3198TIP3   OH231084   5.026   5.447   5.364 -0.7299 -0.6454 -0.3395
 3198TIP3    H131085   4.936   5.445   5.397  0.1785 -2.1611  2.3701
 3198TIP3    H231086   5.074   5.497   5.430  0.4965 -0.1291 -1.5861
 3199TIP3   OH231087   0.142   0.228  12.693 -0.1912 -0.1637  0.2583
 3199TIP3    H131088   0.218   0.206  12.639  0.3619  0.2286  0.8747
 3199TIP3    H231089   0.110   0.311  12.657 -0.4063 -0.3846 -0.0725
 3200TIP3   OH231090   6.769   3.559   1.775  0.7953 -0.0188 -0.6078
 3200TIP3    H131091   6.782   3.648   1.807  0.6850 -0.9350  2.1913
 3200TIP3    H231092   6.844   3.543   1.718  1.1608  1.6189 -0.6371
 3201TIP3   OH231093   3.446   5.545   0.545 -0.1051 -0.0640  0.3045
 3201TIP3    H131094   3.501   5.504   0.612 -0.0023 -1.3840 -0.5524
 3201TIP3    H231095   3.357   5.541   0.580  0.0657  0.0971  0.7565
 3202TIP3   OH231096   4.026   3.957  14.889 -0.2334 -0.7649 -0.2759
 3202TIP3    H131097   4.078   3.903  14.948 -0.7536 -0.0408  0.8841
 3202TIP3    H231098   3.987   3.895  14.827  1.2852 -1.4073 -0.6314
 3203TIP3   OH231099   0.671   0.217  12.095 -0.2574 -0.4816 -0.5503
 3203TIP3    H131100   0.692   0.152  12.028  1.5146 -0.8264  0.2761
 3203TIP3    H231101   0.656   0.166  12.174 -0.4987  0.0277 -0.2606
 3204TIP3   OH231102   6.653   6.429   0.531 -0.1952 -0.6336 -0.4637
 3204TIP3    H131103   6.681   6.360   0.470  1.2949 -0.2923 -0.2114
 3204TIP3    H231104   6.569   6.458   0.496  1.4612  0.9354 -3.5973
 3205TIP3   OH231105   3.592   3.365   1.494  0.2201 -0.2336  0.0419
 3205TIP3    H131106   3.499   3.391   1.497  0.1019 -0.6087 -0.3271
 3205TIP3    H231107   3.594   3.291   1.434  1.2344  1.7183 -2.5012
 3206TIP3   OH231108   2.910   4.422   0.661 -0.8185 -0.2295 -0.3468
 3206TIP3    H131109   2.815   4.414   0.666 -0.9048 -0.1239 -1.5899
 3206TIP3    H231110   2.926   4.517   0.667 -0.8914 -0.1401 -1.3998
 3207TIP3   OH231111   4.629   5.964   5.017  0.2083  0.0690 -0.2636
 3207TIP3    H131112   4.635   6.037   5.078 -3.6195  0.6414 -0.3663
 3207TIP3    H231113   4.610   5.888   5.073  4.2337 -1.1085 -0.1427
 3208TIP3   OH231114   3.167   1.375   5.589  0.6585  0.2281 -0.2479
 3208TIP3    H131115   3.103   1.355   5.657  0.2031 -0.7767 -0.9431
 3208TIP3    H231116   3.115   1.386   5.509  1.3904 -2.0966 -1.1399
 3209TIP3   OH231117   4.001   2.116   5.444 -0.4784  0.2831 -0.9179
 3209TIP3    H131118   4.089   2.079   5.434  0.6231  2.7798 -1.0440
 3209TIP3    H231119   3.958   2.098   5.360  0.4169  0.3030 -1.3856
 3210TIP3   OH231120   0.000   5.866  11.613  0.1710 -0.1576  0.1864
 3210TIP3    H131121  -0.061   5.896  11.546  0.9395 -0.2444 -0.5699
 3210TIP3    H231122   0.005   5.939  11.675 -0.3329  0.0373  0.0062
 3211TIP3   OH231123   1.295   5.363   0.343 -0.6445 -0.2083  0.1572
 3211TIP3    H131124   1.342   5.337   0.264 -2.4153 -0.7898 -0.7468
 3211TIP3    H231125   1.348   5.328   0.415  0.4145 -0.6306 -0.8089
 3212TIP3   OH231126   6.487   4.046  16.934  0.1449 -0.3025  0.2930
 3212TIP3    H131127   6.576   4.053  16.899 -0.3063 -1.3136 -1.1433
 3212TIP3    H231128   6.495   3.982  17.006  0.4299 -1.0872 -0.4254
 3213TIP3   OH231129   6.441   2.740   3.257  0.5753 -0.6990  0.0047
 3213TIP3    H131130   6.454   2.824   3.213  0.0158 -1.2492 -1.2427
 3213TIP3    H231131   6.366   2.755   3.315 -2.6389 -1.4951 -3.5832
 3214TIP3   OH231132   3.178   1.328  14.938 -0.1764 -0.2710 -0.5955
 3214TIP3    H131133   3.123   1.363  14.867  0.6474 -1.6108 -1.9484
 3214TIP3    H231134   3.140   1.365  15.017 -2.3803 -0.2783 -1.5629
 3215TIP3   OH231135   3.172   3.643  14.363 -0.2087 -0.8665  0.4721
 3215TIP3    H131136   3.141   3.620  14.276 -0.2842 -0.1960  0.3142
 3215TIP3    H231137   3.218   3.565  14.394  1.4699 -0.4944 -0.9220
 3216TIP3   OH231138   0.499   2.659  13.949 -0.8593 -0.2600 -0.5096
 3216TIP3    H131139   0.469   2.613  13.870  1.8720 -0.8659 -1.2966
 3216TIP3    H231140   0.501   2.751  13.923  2.1566 -0.6473 -2.0367
 3217TIP3   OH231141   0.100   4.797   6.669  0.0240  0.1440 -0.4419
 3217TIP3    H131142   0.194   4.808   6.651 -0.3211  1.9873 -1.2652
 3217TIP3    H231143   0.084   4.704   6.651  1.7243 -0.2777 -0.0340
 3218TIP3   OH231144   6.150   6.223  17.279  0.2639 -0.5501  0.1238
 3218TIP3    H131145   6.233   6.176  17.276 -0.7976 -2.4765 -1.6344
 3218TIP3    H231146   6.167   6.304  17.231  1.2761 -0.6000  0.3700
 3219TIP3   OH231147   5.681   2.763  16.716 -0.4656 -0.6816  0.1131
 3219TIP3    H131148   5.632   2.682  16.699 -1.3969 -0.3416  1.0908
 3219TIP3    H231149   5.763   2.733  16.756 -1.7418 -1.0906  2.6024
 3220TIP3   OH231150   0.004   6.813  12.660  0.2408 -0.3399 -0.1122
 3220TIP3    H131151   0.005   6.774  12.747 -2.0280 -0.0529  0.1085
 3220TIP3    H231152   0.033   6.903  12.673  0.8342 -0.5706  0.1766
 3221TIP3   OH231153   0.010   5.103  15.352 -0.2514  0.5962  0.2453
 3221TIP3    H131154   0.097   5.101  15.391 -0.0323 -2.3742 -0.1812
 3221TIP3    H231155  -0.049   5.085  15.425 -0.3569  0.7503  0.1993
 3222TIP3   OH231156   5.266   4.388   4.249 -0.0337 -0.7140 -0.0366
 3222TIP3    H131157   5.322   4.325   4.204  1.1235  2.0540 -2.8303
 3222TIP3    H231158   5.326   4.437   4.306 -0.3927 -0.3395  0.0272
 3223TIP3   OH231159   0.001   4.494   5.399  0.1257  0.1759  1.0518
 3223TIP3    H131160  -0.071   4.488   5.462  0.8028  1.7345  2.0311
 3223TIP3    H231161  -0.024   4.564   5.340 -0.6701 -1.5161 -0.7177
 3224TIP3   OH231162   1.297   4.575   1.324 -0.2540 -0.0654 -0.7033
 3224TIP3    H131163   1.300   4.555   1.230  0.9749 -3.0608 -0.1568
 3224TIP3    H231164   1.387   4.597   1.346 -1.0042  3.3280 -0.6198
 3225TIP3   OH231165   2.185   6.819   0.012  0.1846  0.3048 -0.1485
 3225TIP3    H131166   2.113   6.847  -0.045 -0.4576  1.7350  1.3012
 3225TIP3    H231167   2.143   6.796   0.094  1.0038 -2.5178 -0.3986
 3226TIP3   OH231168   4.596   5.012  15.482 -0.1053  0.0611 -0.1292
 3226TIP3    H131169   4.685   5.047  15.479  0.1523 -0.4030  1.1801
 3226TIP3    H231170   4.606   4.920  15.457 -0.1747 -0.0505  0.2506
 3227TIP3   OH231171   2.310   4.947  17.103 -0.3279  0.1551  0.2316
 3227TIP3    H131172   2.340   5.024  17.055  1.2932  0.3949  1.5252
 3227TIP3    H231173   2.302   4.977  17.194  1.9282 -1.5299  1.0793
 3228TIP3   OH231174   5.103   2.631   1.846  0.1945  0.2832 -0.1416
 3228TIP3    H131175   5.128   2.724   1.847  0.5659  0.2265 -1.7112
 3228TIP3    H231176   5.083   2.613   1.754 -0.2792 -1.0944  0.2149
 3229TIP3   OH231177   0.004   4.744  15.190  0.4962 -0.5384 -0.5519
 3229TIP3    H131178   0.049   4.821  15.224  0.6577 -1.2793  0.9715
 3229TIP3    H231179  -0.068   4.728  15.250 -0.8656 -0.3390 -2.0520
 3230TIP3   OH231180   6.065   6.490  16.802 -0.1447 -0.4510  0.1385
 3230TIP3    H131181   6.071   6.544  16.723 -2.1598 -0.8214 -0.3280
 3230TIP3    H231182   6.027   6.548  16.868 -0.6473 -0.7847  0.1475
 3231TIP3   OH231183   0.235   1.564   4.148 -0.2185  0.6887 -0.2709
 3231TIP3    H131184   0.317   1.614   4.139  0.4800 -0.5276 -0.9187
 3231TIP3    H231185   0.187   1.585   4.068 -0.0756  0.5840 -0.3845
 3232TIP3   OH231186   5.514   5.994   3.066 -0.0410 -0.6417  0.0202
 3232TIP3    H131187   5.517   6.090   3.062  0.2927 -0.4345  3.0616
 3232TIP3    H231188   5.602   5.966   3.039  0.0716 -0.0627 -0.2252
 3233TIP3   OH231189   1.566   3.807   1.244 -0.4440 -0.0292 -0.0154
 3233TIP3    H131190   1.502   3.872   1.214  0.0796  0.4055 -0.2113
 3233TIP3    H231191   1.552   3.732   1.186  0.2894  0.6554 -1.1159
 3234TIP3   OH231192   2.358   6.170   1.637  0.9532 -0.2401 -0.3225
 3234TIP3    H131193   2.340   6.077   1.656 -3.0822  0.7684  1.9409
 3234TIP3    H231194   2.318   6.186   1.552  0.3243 -0.2723 -0.0360
 3235TIP3   OH231195   2.020   2.233   5.492  0.2991  0.1793 -0.1056
 3235TIP3    H131196   2.015   2.263   5.583  0.5536 -1.0581  0.3382
 3235TIP3    H231197   1.975   2.301   5.442  0.5715  1.1182  0.8802
 3236TIP3   OH231198   5.713   3.165   2.790  0.7682  0.2640 -0.5261
 3236TIP3    H131199   5.691   3.072   2.781  2.7924 -0.3795  0.6712
 3236TIP3    H231200   5.746   3.173   2.879 -0.5154  2.4285 -0.1676
 3237TIP3   OH231201   1.596   1.881  11.482  0.4515  0.3884  0.3050
 3237TIP3    H131202   1.663   1.923  11.535  0.4464  0.8868 -0.0777
 3237TIP3    H231203   1.632   1.795  11.461 -0.1444 -0.4001  2.3066
 3238TIP3   OH231204   6.219   1.242  16.096 -0.1371  0.5788 -0.6671
 3238TIP3    H131205   6.133   1.231  16.137  0.1475  1.0805  0.1068
 3238TIP3    H231206   6.241   1.156  16.060 -0.1608 -0.0555  0.7584
 3239TIP3   OH231207   3.696   5.291   4.102 -0.5356  0.4008  0.1746
 3239TIP3    H131208   3.617   5.274   4.052 -0.4546  0.0986  0.1455
 3239TIP3    H231209   3.762   5.233   4.063 -0.6455 -0.3567  1.0643
 3240TIP3   OH231210   1.987   2.063  16.077 -0.0911 -0.3508 -0.2168
 3240TIP3    H131211   2.013   1.974  16.101  3.2511  0.1872 -1.1917
 3240TIP3    H231212   1.987   2.111  16.159 -0.0371 -0.8726  0.0940
 3241TIP3   OH231213   0.322   1.003   3.244  0.0526  1.0915 -0.3795
 3241TIP3    H131214   0.412   0.976   3.224 -0.6684 -0.7393 -1.3616
 3241TIP3    H231215   0.325   1.030   3.335  1.2028 -0.9292  0.2377
 3242TIP3   OH231216   4.793   5.044  12.688 -0.3107  0.0186  0.3023
 3242TIP3    H131217   4.865   4.982  12.691 -1.1509 -1.0086  0.1490
 3242TIP3    H231218   4.807   5.094  12.607 -0.1021 -0.5970 -0.0496
 3243TIP3   OH231219   2.202   2.194  16.955  0.6302 -0.0301  0.4713
 3243TIP3    H131220   2.139   2.122  16.952  2.0538 -1.3364  1.1643
 3243TIP3    H231221   2.283   2.158  16.920  1.1000  1.5601 -0.1882
 3244TIP3   OH231222   2.098   6.104  13.971 -0.6263 -0.0932  0.6141
 3244TIP3    H131223   2.017   6.152  13.991 -1.4531 -0.3235 -1.7790
 3244TIP3    H231224   2.151   6.166  13.921 -0.0491 -0.4694  0.7511
 3245TIP3   OH231225   3.701   5.912   4.006 -0.7775 -0.2649 -0.0545
 3245TIP3    H131226   3.773   5.934   3.947  0.4187 -0.3229  1.3244
 3245TIP3    H231227   3.625   5.954   3.967  0.2912  1.1302 -0.7472
 3246TIP3   OH231228   5.822   1.605   1.504  0.2761 -0.0969  0.6306
 3246TIP3    H131229   5.795   1.649   1.423 -0.1267  0.1090  0.8679
 3246TIP3    H231230   5.893   1.659   1.538  1.0814 -0.7007 -0.0545
 3247TIP3   OH231231   4.741   5.679   4.239 -0.2108 -0.1413  0.1194
 3247TIP3    H131232   4.795   5.665   4.317  0.5335  1.6229 -0.0446
 3247TIP3    H231233   4.678   5.606   4.240  0.3424 -0.6365  1.8669
 3248TIP3   OH231234   1.140   5.988  17.112  0.1611  0.2286 -0.2838
 3248TIP3    H131235   1.082   5.918  17.083  0.4887  0.9848 -3.1021
 3248TIP3    H231236   1.101   6.068  17.077  0.3402  1.3785  1.9782
 3249TIP3   OH231237   3.389   6.444  17.138  0.6514 -0.8330 -0.4703
 3249TIP3    H131238   3.328   6.491  17.081 -0.3974 -3.5029 -1.7076
 3249TIP3    H231239   3.407   6.506  17.209 -1.1854  1.1272 -1.5794
 3250TIP3   OH231240   2.531   2.698   6.073 -0.1616  0.0727  0.5440
 3250TIP3    H131241   2.462   2.682   6.009 -0.7161 -2.3994  1.6237
 3250TIP3    H231242   2.485   2.710   6.156  0.6562 -0.4207  1.0805
 3251TIP3   OH231243   2.063   5.611   1.539  0.4036 -0.6799 -0.2296
 3251TIP3    H131244   2.128   5.605   1.469 -0.1707 -1.2151 -0.7268
 3251TIP3    H231245   2.040   5.704   1.542  0.3876 -0.6647 -0.7953
 3252TIP3   OH231246   5.462   4.468   0.875 -0.4808 -0.2003  0.1453
 3252TIP3    H131247   5.383   4.495   0.923 -0.0282  0.7743  0.3800
 3252TIP3    H231248   5.524   4.540   0.890  0.6253 -1.1797  0.3846
 3253TIP3   OH231249   0.731   5.826  15.547 -0.1735  0.4189 -0.1204
 3253TIP3    H131250   0.754   5.847  15.456 -2.8546 -0.2877 -1.0465
 3253TIP3    H231251   0.729   5.911  15.591 -0.3881  0.9501 -1.1212
 3254TIP3   OH231252   0.580   5.126  15.896 -0.1318 -0.3316 -0.0485
 3254TIP3    H131253   0.516   5.176  15.846 -1.1413 -1.6375 -0.1278
 3254TIP3    H231254   0.649   5.189  15.917 -0.9861  0.8884 -0.7629
 3255TIP3   OH231255   1.461   1.047   3.164  0.0532  0.9240  0.1675
 3255TIP3    H131256   1.477   1.112   3.096 -0.5966  1.1408  0.2114
 3255TIP3    H231257   1.396   0.988   3.125  1.4146 -0.3572 -0.2861
 3256TIP3   OH231258   6.195   0.349  10.614 -0.0622  0.3325  0.1662
 3256TIP3    H131259   6.117   0.337  10.560 -0.5866  1.0211  0.7561
 3256TIP3    H231260   6.168   0.409  10.683  1.5080  2.1496 -0.7280
 3257TIP3   OH231261   4.029   1.547   2.316 -0.3638 -0.4758 -0.3184
 3257TIP3    H131262   3.947   1.548   2.267 -0.7353 -2.4153  0.1610
 3257TIP3    H231263   4.011   1.597   2.395 -1.1725 -1.0676 -0.1191
 3258TIP3   OH231264   5.557   5.359  14.078  0.6336  0.0138 -0.3388
 3258TIP3    H131265   5.558   5.327  14.169  0.3572 -0.0482 -0.3573
 3258TIP3    H231266   5.494   5.302  14.034  0.0685  0.6414 -0.3525
 3259TIP3   OH231267   2.806   4.643   5.123 -0.0431 -0.9442 -0.1641
 3259TIP3    H131268   2.880   4.701   5.142 -0.1476 -0.8197 -0.1330
 3259TIP3    H231269   2.844   4.555   5.123  0.4187 -0.7696 -1.7802
 3260TIP3   OH231270   2.520   2.530   6.570 -0.2317  0.1542 -0.0515
 3260TIP3    H131271   2.485   2.457   6.621 -0.5360 -0.3430 -0.9363
 3260TIP3    H231272   2.526   2.603   6.632  0.1938 -0.6573  0.8751
 3261TIP3   OH231273   3.515   3.542  13.820  0.0948 -0.1619 -1.2119
 3261TIP3    H131274   3.578   3.526  13.749 -0.9409 -0.1336 -2.1662
 3261TIP3    H231275   3.460   3.613  13.786  0.2280  0.5721  0.0596
 3262TIP3   OH231276   6.043   4.424   5.198 -0.1822 -0.7490  0.6397
 3262TIP3    H131277   5.963   4.422   5.146  0.4198  0.5648 -0.3821
 3262TIP3    H231278   6.114   4.408   5.136  0.5029  0.2213  1.1286
 3263TIP3   OH231279   4.750   0.256   4.998 -0.1911  0.7595  0.9657
 3263TIP3    H131280   4.784   0.166   4.991  0.8602  1.2319 -0.8628
 3263TIP3    H231281   4.797   0.294   5.071  0.7802  0.3669  0.5628
 3264TIP3   OH231282   2.418   6.301  11.049  0.2982  0.0540  0.0140
 3264TIP3    H131283   2.455   6.261  10.970 -0.3950 -0.8185  0.1243
 3264TIP3    H231284   2.488   6.293  11.114 -0.0968 -1.7770  0.2799
 3265TIP3   OH231285   6.221   0.973  12.983  0.1121  0.7584 -0.6530
 3265TIP3    H131286   6.137   1.018  12.992  0.2916  0.8833  0.5117
 3265TIP3    H231287   6.280   1.019  13.042  0.8459  0.2805 -0.9936
 3266TIP3   OH231288   5.390   2.128   2.185  0.0468 -0.4082  0.3387
 3266TIP3    H131289   5.409   2.082   2.103 -0.0173  0.6655 -0.2990
 3266TIP3    H231290   5.311   2.178   2.167  0.6383  0.6862  0.6936
 3267TIP3   OH231291   2.355   1.629   5.637  0.0823  0.2405 -0.8849
 3267TIP3    H131292   2.344   1.534   5.624 -0.0331  0.2631 -0.9448
 3267TIP3    H231293   2.357   1.640   5.732 -0.5507  0.2566 -0.8692
 3268TIP3   OH231294   1.333   3.076  13.375  0.1492  0.1261 -0.9624
 3268TIP3    H131295   1.281   3.154  13.395 -2.2071 -1.2132 -1.5386
 3268TIP3    H231296   1.422   3.109  13.364 -0.8818  2.8512 -1.9412
 3269TIP3   OH231297   5.135   3.948  12.881 -0.4149  0.3070 -0.0505
 3269TIP3    H131298   5.124   3.990  12.967 -1.1223 -0.1520  0.0964
 3269TIP3    H231299   5.229   3.935  12.873 -0.3663 -0.0140  0.8487
 3270TIP3   OH231300   1.440   4.777   0.577  0.1160 -0.4827  0.7538
 3270TIP3    H131301   1.509   4.785   0.643  0.4600 -1.7874  0.5766
 3270TIP3    H231302   1.448   4.687   0.544 -0.8422 -0.2463 -0.1905
 3271TIP3   OH231303   2.019   1.323  12.177 -0.0090 -0.5187 -0.0908
 3271TIP3    H131304   2.055   1.393  12.230 -2.2244  0.1811  0.6265
 3271TIP3    H231305   2.095   1.274  12.145  1.5279  1.3354  0.5702
 3272TIP3   OH231306   5.570   1.503   1.812 -0.2426  0.1214  0.1010
 3272TIP3    H131307   5.521   1.469   1.887 -0.0934  1.1638  0.6894
 3272TIP3    H231308   5.657   1.464   1.820 -0.0055  0.7907  0.8945
 3273TIP3   OH231309   6.556   5.783   1.673 -0.3964  0.2833 -0.1151
 3273TIP3    H131310   6.638   5.822   1.643 -0.1546 -1.5150 -1.9536
 3273TIP3    H231311   6.579   5.742   1.757  1.4041 -2.5538 -1.8347
 3274TIP3   OH231312   6.495   1.526   0.420  0.1097 -0.2009  0.4177
 3274TIP3    H131313   6.586   1.543   0.396  0.2822 -1.1467  0.3877
 3274TIP3    H231314   6.499   1.449   0.477 -0.4621  0.9370  2.0934
 3275TIP3   OH231315   2.862   5.634   3.356 -0.5805  0.2053 -0.3546
 3275TIP3    H131316   2.852   5.615   3.449  1.0950 -0.1720 -0.2100
 3275TIP3    H231317   2.828   5.723   3.345  1.1242  1.0821  1.0478
 3276TIP3   OH231318   5.765   1.303  13.379 -0.0857  0.4721 -0.3242
 3276TIP3    H131319   5.803   1.372  13.325  0.3660  0.6865  0.2706
 3276TIP3    H231320   5.833   1.280  13.441  0.0404 -1.0400 -0.9865
 3277TIP3   OH231321   0.847   4.912   6.598 -0.4533  0.0741 -0.3349
 3277TIP3    H131322   0.835   4.990   6.653 -0.0793 -0.3702  0.3858
 3277TIP3    H231323   0.806   4.935   6.515 -0.6649  0.9099 -0.0080
 3278TIP3   OH231324   3.751   2.707  17.316  0.1302  0.7341  0.3231
 3278TIP3    H131325   3.664   2.714  17.355 -1.9028  0.5725 -3.6991
 3278TIP3    H231326   3.783   2.797  17.313 -1.6019  1.3553 -1.4179
 3279TIP3   OH231327   0.054   0.128   1.661 -0.0264  0.0477  0.1284
 3279TIP3    H131328  -0.039   0.109   1.651  0.2801 -1.4379 -0.1607
 3279TIP3    H231329   0.098   0.064   1.605  1.2547 -0.5472  1.7523
 3280TIP3   OH231330   6.384   4.855  11.715 -0.3816  0.0962 -0.2146
 3280TIP3    H131331   6.398   4.799  11.639 -0.0135  0.4921 -0.4450
 3280TIP3    H231332   6.315   4.811  11.765 -0.1848 -0.4920 -0.4529
 3281TIP3   OH231333   4.161   2.069   3.264 -0.1756 -0.0492  0.6054
 3281TIP3    H131334   4.200   2.156   3.277 -0.6659  0.0634  1.4198
 3281TIP3    H231335   4.069   2.087   3.246  0.1256 -0.3061 -1.4372
 3282TIP3   OH231336   4.831   0.321  15.881 -0.1021 -0.8009 -0.0546
 3282TIP3    H131337   4.908   0.379  15.880  0.4191 -1.3917  1.8467
 3282TIP3    H231338   4.761   0.377  15.915 -0.4105 -0.3995 -1.3205
 3283TIP3   OH231339   1.068   3.680  15.431 -0.4815 -0.1267 -0.5218
 3283TIP3    H131340   1.142   3.716  15.482 -1.3813  0.9299  0.0987
 3283TIP3    H231341   1.009   3.755  15.420 -2.1526 -1.2816  0.2806
 3284TIP3   OH231342   2.495   0.639  12.495 -0.6821  0.2686 -0.0185
 3284TIP3    H131343   2.491   0.637  12.591  2.0651 -0.9010  0.1673
 3284TIP3    H231344   2.536   0.723  12.475 -0.7266  0.2578 -0.1540
 3285TIP3   OH231345   0.895   1.837   2.264 -0.1832  0.1705 -0.8232
 3285TIP3    H131346   0.978   1.861   2.223 -0.3493 -1.3151 -2.1641
 3285TIP3    H231347   0.869   1.756   2.219 -1.1365 -0.7606  1.2813
 3286TIP3   OH231348   6.808   6.221   2.067 -0.0596 -0.3470  0.0796
 3286TIP3    H131349   6.835   6.310   2.089 -0.2116  0.7335 -3.4529
 3286TIP3    H231350   6.856   6.165   2.128  2.9412  1.9911  0.0959
 3287TIP3   OH231351   6.436   1.926   0.798  0.3058  0.6522  0.4038
 3287TIP3    H131352   6.344   1.948   0.784  0.5881  1.6518  0.0879
 3287TIP3    H231353   6.473   1.921   0.709  0.5084  0.0247  0.5187
 3288TIP3   OH231354   1.700   5.647   4.661  0.0290  0.0431 -0.0690
 3288TIP3    H131355   1.685   5.557   4.634  0.1222 -0.5570  1.7728
 3288TIP3    H231356   1.619   5.672   4.707  0.4034  0.5321  0.3406
 3289TIP3   OH231357   4.921   3.241  12.247  0.5879 -0.2019 -0.2184
 3289TIP3    H131358   4.878   3.326  12.237 -0.6589 -0.7405  0.4105
 3289TIP3    H231359   4.999   3.247  12.191 -0.2607  0.8198 -1.3345
 3290TIP3   OH231360   3.387   4.532  16.952 -0.2770 -0.2624  0.6671
 3290TIP3    H131361   3.376   4.591  16.878  0.2358  0.3144  1.0361
 3290TIP3    H231362   3.408   4.590  17.026  2.2541 -1.0160  0.6263
 3291TIP3   OH231363   6.250   1.456   0.220 -0.4773  0.2270  0.2349
 3291TIP3    H131364   6.303   1.530   0.249 -1.0063  0.6794  0.0731
 3291TIP3    H231365   6.253   1.461   0.124  0.5250 -0.7211  0.2086
 3292TIP3   OH231366   3.838   2.964   2.570 -0.2548 -0.0512 -0.1180
 3292TIP3    H131367   3.801   2.954   2.658  0.7363  2.9315  0.7707
 3292TIP3    H231368   3.776   3.021   2.524 -1.4521 -2.6040 -1.9504
 3293TIP3   OH231369   3.587   3.677   2.202  0.1753 -0.0322  0.4641
 3293TIP3    H131370   3.649   3.725   2.148 -0.0317  1.5045  1.5350
 3293TIP3    H231371   3.525   3.638   2.140  0.0494  1.5217 -0.4334
 3294TIP3   OH231372   0.324   3.731  14.950  0.4887 -0.0210 -0.0707
 3294TIP3    H131373   0.293   3.716  15.039 -0.9463  1.6950 -0.2277
 3294TIP3    H231374   0.385   3.659  14.933 -0.6717 -1.4605  1.5975
 3295TIP3   OH231375   5.777   5.723  15.709 -0.5379 -0.1092 -0.3752
 3295TIP3    H131376   5.689   5.688  15.695 -0.7662  0.1411  0.3923
 3295TIP3    H231377   5.834   5.664  15.660 -1.0526 -0.7516 -0.2193
 3296TIP3   OH231378   4.431   2.609   2.185 -0.0075  0.1423 -0.6813
 3296TIP3    H131379   4.403   2.525   2.222 -0.0755 -0.2538 -1.6004
 3296TIP3    H231380   4.375   2.621   2.108 -0.9088  1.6837  0.1640
 3297TIP3   OH231381   0.421   6.353   5.372 -0.0294 -0.4398  0.6551
 3297TIP3    H131382   0.454   6.377   5.459  0.8115 -2.1983  0.8561
 3297TIP3    H231383   0.447   6.427   5.317  2.7051 -0.8949  1.1852
 3298TIP3   OH231384   3.656   5.964   5.129 -0.1218  0.9803 -0.0237
 3298TIP3    H131385   3.728   5.970   5.066  1.7759 -0.5436  1.8742
 3298TIP3    H231386   3.669   6.038   5.188 -1.8680  2.3751 -1.2629
 3299TIP3   OH231387   3.533   5.686  13.637  0.0221  0.0765 -0.1886
 3299TIP3    H131388   3.476   5.711  13.565 -1.3387  2.5929  1.6033
 3299TIP3    H231389   3.620   5.720  13.612 -0.3949  0.7643 -0.7368
 3300TIP3   OH231390   0.718   1.520   5.587  0.0830  0.1424  0.6288
 3300TIP3    H131391   0.776   1.595   5.597  0.3277 -0.0751  0.8378
 3300TIP3    H231392   0.636   1.547   5.628  0.3096  0.1387  1.0788
 3301TIP3   OH231393   0.116   5.730   4.004  0.6343 -0.3236  0.3943
 3301TIP3    H131394   0.111   5.825   3.991  0.6935 -0.6018 -2.3734
 3301TIP3    H231395   0.161   5.720   4.088 -0.3302  2.0628  1.2971
 3302TIP3   OH231396   4.007   2.473   1.061 -0.0955  0.1034  0.1437
 3302TIP3    H131397   3.933   2.527   1.089 -1.3056 -1.6717  0.5969
 3302TIP3    H231398   4.035   2.428   1.140 -1.0676 -2.1068 -0.6760
 3303TIP3   OH231399   6.500   6.768  14.966  0.7314  0.0038 -0.7698
 3303TIP3    H131400   6.576   6.716  14.939  0.5571 -0.5383 -0.2102
 3303TIP3    H231401   6.451   6.782  14.885  0.9433 -0.4227 -0.9754
 3304TIP3   OH231402   6.565   1.052  13.062 -0.2187 -0.0305 -0.0169
 3304TIP3    H131403   6.649   1.096  13.072 -0.1104 -0.2737  0.1473
 3304TIP3    H231404   6.581   0.983  12.998 -0.5089  0.4768 -0.6546
 3305TIP3   OH231405   3.896   5.194   0.225  0.1009  0.3802  0.0921
 3305TIP3    H131406   3.879   5.100   0.224  0.9535  0.1814  1.4284
 3305TIP3    H231407   3.952   5.209   0.149 -0.1616 -0.1617 -0.2159
 3306TIP3   OH231408   0.144   5.148   4.530  0.2374  0.3798 -0.1866
 3306TIP3    H131409   0.144   5.211   4.602 -0.0959  1.6007 -1.2076
 3306TIP3    H231410   0.204   5.079   4.558  1.7016  1.8270  0.4154
 3307TIP3   OH231411   1.796   2.407   0.736 -0.4625 -0.5224  0.2586
 3307TIP3    H131412   1.797   2.333   0.797  0.9646  0.0403  0.9518
 3307TIP3    H231413   1.710   2.446   0.748  0.0063 -0.0490  2.4044
 3308TIP3   OH231414   0.173   3.414  15.019  0.1029  0.1004 -0.2550
 3308TIP3    H131415   0.257   3.431  14.977  1.0417 -0.3543  1.3388
 3308TIP3    H231416   0.132   3.346  14.965 -0.6949  2.4343 -2.8251
 3309TIP3   OH231417   5.909   2.570   2.073 -0.1539  0.6533 -0.3653
 3309TIP3    H131418   5.885   2.574   1.980  0.3128  1.1325 -0.4727
 3309TIP3    H231419   6.005   2.576   2.073 -0.0924 -0.2378  0.1061
 3310TIP3   OH231420   5.023   2.301   0.707 -0.5787 -0.1774 -0.4982
 3310TIP3    H131421   5.036   2.266   0.619  1.0885  2.2249 -1.3288
 3310TIP3    H231422   5.090   2.259   0.760 -0.6639 -0.5724 -0.7006
 3311TIP3   OH231423   1.789   0.080   3.486  0.7476  0.1339 -0.2117
 3311TIP3    H131424   1.855   0.093   3.417  0.2529  0.0973 -0.6965
 3311TIP3    H231425   1.706   0.077   3.439  0.3594  0.5656  0.4301
 3312TIP3   OH231426   3.802   1.352   4.681  0.2597 -0.2566  0.1683
 3312TIP3    H131427   3.851   1.405   4.619 -0.4692  1.3731  0.9302
 3312TIP3    H231428   3.867   1.321   4.743  0.6616 -0.0417 -0.1435
 3313TIP3   OH231429   4.873   3.782  16.904 -0.1071 -0.2114 -0.2668
 3313TIP3    H131430   4.780   3.771  16.887 -0.1228 -0.3090 -0.1207
 3313TIP3    H231431   4.890   3.875  16.889 -0.3293 -0.0921  0.1917
 3314TIP3   OH231432   6.637   4.317  16.371 -0.0729 -0.1813 -0.3207
 3314TIP3    H131433   6.682   4.313  16.287  2.7918  0.5535  1.0693
 3314TIP3    H231434   6.616   4.410  16.383  1.8539  0.1636  0.8238
 3315TIP3   OH231435   0.880   5.598  16.209 -0.1181  0.5793  0.3715
 3315TIP3    H131436   0.841   5.639  16.132  1.9051 -0.1749 -1.1047
 3315TIP3    H231437   0.972   5.587  16.187  0.1307 -1.4199  2.1544
 3316TIP3   OH231438   6.744   0.925  11.502 -0.1004  0.4813  0.5361
 3316TIP3    H131439   6.809   0.861  11.472 -0.6042  0.7977 -1.3836
 3316TIP3    H231440   6.674   0.872  11.539 -0.8654 -0.2278 -1.7291
 3317TIP3   OH231441   5.254   2.756   0.046  0.2483  0.0857 -0.1395
 3317TIP3    H131442   5.177   2.737   0.099 -0.0377  0.0350 -0.5684
 3317TIP3    H231443   5.228   2.829  -0.009 -0.1451 -1.0989 -1.6063
 3318TIP3   OH231444   2.742   5.809  11.166 -0.3370  0.4428  0.2432
 3318TIP3    H131445   2.670   5.815  11.104  0.4977  0.2235 -0.7846
 3318TIP3    H231446   2.821   5.821  11.112  0.3632  1.6032  1.4642
 3319TIP3   OH231447   1.090   5.486  12.888 -0.2633 -0.3599 -0.1983
 3319TIP3    H131448   1.157   5.420  12.902 -0.7867 -0.8107  0.2638
 3319TIP3    H231449   1.027   5.445  12.829 -0.9261 -0.5391  0.6037
 3320TIP3   OH231450   5.737   0.479   3.066  0.2759 -0.2927  0.1622
 3320TIP3    H131451   5.656   0.530   3.068 -1.6752 -3.1711  0.4236
 3320TIP3    H231452   5.730   0.425   2.988  1.9474 -0.6470  0.2209
 3321TIP3   OH231453   6.205   5.043   5.819 -0.3408 -0.5006  0.2037
 3321TIP3    H131454   6.226   4.985   5.892 -1.2653  0.4013  1.2207
 3321TIP3    H231455   6.122   5.084   5.845  0.1423  1.0390 -0.6209
 3322TIP3   OH231456   6.429   6.606  12.019 -0.3598  0.2784 -0.6364
 3322TIP3    H131457   6.467   6.689  12.047  0.9187  0.6171 -3.0900
 3322TIP3    H231458   6.342   6.629  11.988 -1.3480  0.0773  1.8259
 3323TIP3   OH231459   2.201   6.074   4.779 -0.4048 -0.7383  0.2560
 3323TIP3    H131460   2.143   6.065   4.704 -0.5384 -1.6998  0.4595
 3323TIP3    H231461   2.148   6.118   4.846 -0.4355 -0.3253 -0.0348
 3324TIP3   OH231462   5.471   1.477  13.099 -0.2855  0.1949 -0.0388
 3324TIP3    H131463   5.558   1.515  13.115 -0.2850 -0.0384  0.5338
 3324TIP3    H231464   5.485   1.383  13.101 -0.5747  0.1559  0.1907
 3325TIP3   OH231465   6.291   6.715  12.438  0.0312  0.1539 -0.4670
 3325TIP3    H131466   6.282   6.629  12.396  0.4709  0.1414 -0.5436
 3325TIP3    H231467   6.366   6.754  12.395  1.6143 -0.5542  1.4748
 3326TIP3   OH231468   2.803   5.914  14.517  0.0433 -0.0556 -0.1841
 3326TIP3    H131469   2.864   5.867  14.461  0.5594  1.8112 -1.2819
 3326TIP3    H231470   2.829   6.006  14.510 -0.0529  0.3240  2.9327
 3327TIP3   OH231471   4.972   0.222   3.183  0.2425 -0.1507  0.2190
 3327TIP3    H131472   5.058   0.263   3.191 -0.0877  0.9369 -1.4093
 3327TIP3    H231473   4.989   0.129   3.197  1.9451 -0.1312 -1.3559
 3328TIP3   OH231474   4.948   2.913  17.094  0.0258  0.5608  0.2090
 3328TIP3    H131475   4.968   2.832  17.047  0.1667  0.7523 -0.0623
 3328TIP3    H231476   5.030   2.934  17.140  0.2314  0.9521 -0.3213
 3329TIP3   OH231477   5.194   4.768   0.410 -0.1075 -0.2735  0.1444
 3329TIP3    H131478   5.263   4.751   0.346 -0.9673  0.3693 -1.0014
 3329TIP3    H231479   5.238   4.764   0.495  1.3620  0.2941 -0.5594
 3330TIP3   OH231480   3.113   4.604  12.202  0.4739  0.3283  0.2636
 3330TIP3    H131481   3.119   4.546  12.278  0.9771  0.1763  0.1065
 3330TIP3    H231482   3.203   4.632  12.186  0.3104  0.6956 -0.0172
 3331TIP3   OH231483   5.019   6.621  12.773  0.2555 -0.1532  0.3153
 3331TIP3    H131484   4.937   6.626  12.822  0.1652 -1.4538  0.3192
 3331TIP3    H231485   5.023   6.704  12.725 -1.0965 -0.1045  0.2582
 3332TIP3   OH231486   6.151   0.881  11.819  0.4530 -0.2520  0.0855
 3332TIP3    H131487   6.179   0.933  11.894 -0.4704 -1.6345  1.4240
 3332TIP3    H231488   6.218   0.813  11.810  0.5839 -0.0705 -0.4048
 3333TIP3   OH231489   6.172   1.696   6.195  0.1005 -0.2947  0.1789
 3333TIP3    H131490   6.152   1.609   6.161  0.9033  0.3047 -1.9889
 3333TIP3    H231491   6.087   1.732   6.220 -0.3540 -1.3433  0.1926
 3334TIP3   OH231492   2.145   5.089  16.502 -0.0886  0.4670 -0.2006
 3334TIP3    H131493   2.118   5.040  16.579 -2.8185 -0.6306 -1.7392
 3334TIP3    H231494   2.095   5.171  16.507  1.3149  1.3459  0.1987
 3335TIP3   OH231495   1.961   0.504   3.095  0.5585 -0.2621 -0.2434
 3335TIP3    H131496   2.040   0.543   3.058  0.7086  0.1727  0.5239
 3335TIP3    H231497   1.890   0.544   3.046  0.7564  0.3323 -0.0553
 3336TIP3   OH231498   5.674   2.222   1.459 -0.0304  0.2852 -0.7475
 3336TIP3    H131499   5.761   2.182   1.463  0.8871  2.2559  1.0284
 3336TIP3    H231500   5.616   2.151   1.432  2.0279 -1.2457 -1.3688
 3337TIP3   OH231501   0.810   3.484  12.381 -0.0894 -0.0365  0.0393
 3337TIP3    H131502   0.823   3.523  12.468 -0.4750 -0.3389  0.2384
 3337TIP3    H231503   0.890   3.435  12.365  1.3889  2.5408 -1.1688
 3338TIP3   OH231504   5.125   3.322  11.244 -0.2566 -0.1905  0.5085
 3338TIP3    H131505   5.093   3.408  11.268 -1.1683 -0.8546  1.7682
 3338TIP3    H231506   5.046   3.268  11.234  0.3185 -1.0465  0.4143
 3339TIP3   OH231507   1.048   1.234   1.101 -0.3982 -0.5166 -0.1879
 3339TIP3    H131508   1.070   1.238   1.194  1.3547 -1.4825 -0.5112
 3339TIP3    H231509   1.124   1.193   1.060 -1.9252 -1.9361 -1.7846
 3340TIP3   OH231510   1.440   2.005  15.304 -0.1364 -0.4890  0.5571
 3340TIP3    H131511   1.450   1.944  15.232  1.6975 -0.6476  0.8801
 3340TIP3    H231512   1.352   2.041  15.294 -0.6436 -1.9558 -0.5837
 3341TIP3   OH231513   0.110   0.461  15.453  0.2550 -0.1381 -0.2683
 3341TIP3    H131514   0.146   0.468  15.364  2.7278 -0.6776  0.5958
 3341TIP3    H231515   0.144   0.377  15.485 -2.4569 -1.0478  0.4558
 3342TIP3   OH231516   6.611   4.906  11.320  0.4125 -0.0592  0.2205
 3342TIP3    H131517   6.668   4.829  11.327  0.2414 -0.1572  0.5803
 3342TIP3    H231518   6.630   4.957  11.398  1.2815  0.7954 -0.5336
 3343TIP3   OH231519   6.230   4.038   5.313 -0.0901 -0.0860  0.1196
 3343TIP3    H131520   6.287   4.095   5.261 -0.0290 -0.1734  0.0888
 3343TIP3    H231521   6.290   3.977   5.356 -0.2978 -2.3541 -2.5121
 3344TIP3   OH231522   6.003   1.615  13.833  0.2606  0.0217  0.0546
 3344TIP3    H131523   6.012   1.523  13.858  1.4222  0.4168  1.2098
 3344TIP3    H231524   6.084   1.656  13.862 -0.2325  1.4248 -0.4473
 3345TIP3   OH231525   6.462   2.647  16.164  0.0364  0.0095  0.6932
 3345TIP3    H131526   6.461   2.720  16.226  0.9204 -0.3378  1.1280
 3345TIP3    H231527   6.389   2.591  16.191 -0.0831  0.2687  0.9118
 3346TIP3   OH231528   3.560   6.789   1.431 -0.6272  0.1208 -0.3669
 3346TIP3    H131529   3.602   6.711   1.395  0.0979  0.5078 -0.3805
 3346TIP3    H231530   3.619   6.861   1.408 -0.5899  0.4942  0.8233
 3347TIP3   OH231531   2.328   4.758   5.248  0.1760 -0.4703  0.1402
 3347TIP3    H131532   2.264   4.700   5.207  0.8184 -1.0746 -0.0285
 3347TIP3    H231533   2.307   4.845   5.214 -1.4298 -0.4213  1.1653
 3348TIP3   OH231534   3.475   1.845   4.463 -0.5406  0.8364  0.0497
 3348TIP3    H131535   3.479   1.749   4.460 -0.6833  0.8190  0.3928
 3348TIP3    H231536   3.384   1.865   4.441 -0.7706  0.8458  0.9627
 3349TIP3   OH231537   4.218   3.624   0.479 -0.7549  0.2731 -0.0923
 3349TIP3    H131538   4.279   3.636   0.552 -0.0495  0.8237 -0.7602
 3349TIP3    H231539   4.143   3.679   0.500  0.0922  1.6186 -0.4918
 3350TIP3   OH231540   0.798   4.955  11.777 -0.4168  1.2609  0.4923
 3350TIP3    H131541   0.824   4.889  11.713  0.0090  0.7419  1.1878
 3350TIP3    H231542   0.799   5.038  11.728 -1.4944  0.6995 -0.5323
 3351TIP3   OH231543   0.693   3.351   6.647  0.4268  0.3912 -0.5918
 3351TIP3    H131544   0.754   3.350   6.720  0.0988  0.2900 -0.3137
 3351TIP3    H231545   0.665   3.260   6.638 -0.9205  0.6770  0.3505
 3352TIP3   OH231546   0.732   5.371   1.707 -0.1101 -0.0183  0.6436
 3352TIP3    H131547   0.747   5.425   1.629 -0.0006 -0.4576  0.3578
 3352TIP3    H231548   0.644   5.396   1.736  0.7983  1.9889  1.8626
 3353TIP3   OH231549   4.847   3.163  15.140 -0.0171 -0.1994 -0.5729
 3353TIP3    H131550   4.867   3.217  15.216 -1.7614 -0.4300  0.1030
 3353TIP3    H231551   4.913   3.187  15.075  0.0974  1.7153  0.1908
 3354TIP3   OH231552   2.585   1.814   1.807  0.5646 -0.1419  0.8328
 3354TIP3    H131553   2.573   1.902   1.770  1.6972  0.3066  1.4897
 3354TIP3    H231554   2.647   1.827   1.879 -0.8456 -1.1563  2.2849
 3355TIP3   OH231555   6.449   2.613  10.798 -0.8037 -0.4187 -0.2355
 3355TIP3    H131556   6.473   2.695  10.756 -0.4334  0.3640  1.4026
 3355TIP3    H231557   6.520   2.553  10.777 -0.6133 -0.0433 -0.6682
 3356TIP3   OH231558   4.888   3.986  14.653 -0.0249  0.6255  0.0337
 3356TIP3    H131559   4.930   4.004  14.737 -1.0354 -0.9301  0.9185
 3356TIP3    H231560   4.800   3.955  14.677 -0.2889  0.0520 -1.5996
 3357TIP3   OH231561   4.418   3.490  15.949 -0.1705  0.3031  0.8561
 3357TIP3    H131562   4.486   3.481  15.883 -1.1281  0.1853 -0.1338
 3357TIP3    H231563   4.428   3.413  16.004 -1.5032 -1.4118 -1.1889
 3358TIP3   OH231564   4.455   5.392   3.265  0.2065 -0.2348  0.0441
 3358TIP3    H131565   4.384   5.373   3.326  0.7392  0.5405  0.9241
 3358TIP3    H231566   4.499   5.469   3.302  0.4085  0.3903 -1.4230
 3359TIP3   OH231567   5.805   4.916  13.377  0.1601  0.1834 -0.2510
 3359TIP3    H131568   5.817   4.985  13.442 -2.1959  1.6483 -1.2409
 3359TIP3    H231569   5.723   4.874  13.402 -1.2602  1.3278 -2.5896
 3360TIP3   OH231570   1.810   6.100  15.772  0.0503  0.1649  0.3573
 3360TIP3    H131571   1.901   6.078  15.791 -0.1945  0.1333  1.5345
 3360TIP3    H231572   1.811   6.194  15.754  0.3510  0.1188  0.1260
 3361TIP3   OH231573   2.983   3.739  17.283 -0.1572  0.0570 -0.1276
 3361TIP3    H131574   2.937   3.666  17.325 -1.0995  0.3534 -0.6190
 3361TIP3    H231575   2.978   3.810  17.347 -0.2928  0.0607 -0.1430
 3362TIP3   OH231576   3.449   5.163   5.494 -0.3398  0.1378 -0.2870
 3362TIP3    H131577   3.538   5.198   5.494  0.5080 -1.8919 -0.8931
 3362TIP3    H231578   3.418   5.175   5.584 -0.4415  3.0908 -0.6271
 3363TIP3   OH231579   1.805   5.699  15.021  0.0624  0.1698  0.1705
 3363TIP3    H131580   1.882   5.719  15.075  0.1664 -1.5775  0.7640
 3363TIP3    H231581   1.839   5.643  14.951 -0.7780 -1.6468  1.1215
 3364TIP3   OH231582   4.288   1.351   5.599 -0.1699  0.7613 -0.5551
 3364TIP3    H131583   4.356   1.420   5.594  0.1660  0.4233 -0.7272
 3364TIP3    H231584   4.263   1.337   5.508  0.2176  0.2133 -0.5839
 3365TIP3   OH231585   6.636   5.734   0.053  0.4127  0.4384  0.1099
 3365TIP3    H131586   6.724   5.711   0.082  0.0206  0.1729  1.1363
 3365TIP3    H231587   6.649   5.799  -0.016  1.3773  1.9964  1.6809
 3366TIP3   OH231588   2.908   6.669   6.067  0.9806  0.0907 -0.0137
 3366TIP3    H131589   2.842   6.723   6.025  0.2205  0.3459  1.4269
 3366TIP3    H231590   2.908   6.698   6.159  3.9530  0.9681 -0.1650
 3367TIP3   OH231591   3.064   2.642   2.539 -0.3293  0.6414  0.3783
 3367TIP3    H131592   2.981   2.628   2.584 -0.3188  0.5716  0.3767
 3367TIP3    H231593   3.040   2.676   2.453 -0.3390  1.0242  0.5299
 3368TIP3   OH231594   2.064   0.124   1.432  0.1268 -0.3957  0.7006
 3368TIP3    H131595   2.120   0.049   1.416 -0.1917 -0.5318  0.1990
 3368TIP3    H231596   1.976   0.094   1.410  0.0782  0.3151 -0.1702
 3369TIP3   OH231597   5.802   1.528  14.976  0.0132 -0.1270 -0.2811
 3369TIP3    H131598   5.847   1.516  14.892 -1.6132 -0.2892 -1.1571
 3369TIP3    H231599   5.738   1.597  14.959 -0.3843 -0.2060  0.8200
 3370TIP3   OH231600   6.738   0.660   0.182 -0.0464 -0.2377 -0.0884
 3370TIP3    H131601   6.683   0.703   0.117  0.8878  0.9688 -0.1136
 3370TIP3    H231602   6.713   0.567   0.177 -1.3410  0.1194 -0.7924
 3371TIP3   OH231603   0.726   2.010  12.559  0.0205  0.3178  0.0482
 3371TIP3    H131604   0.815   2.033  12.534 -0.0591 -0.0270 -0.5796
 3371TIP3    H231605   0.672   2.079  12.521 -0.0060  0.3906  0.2163
 3372TIP3   OH231606   5.571   5.395   2.595 -0.7286 -0.4225 -0.4876
 3372TIP3    H131607   5.527   5.475   2.566 -1.1873  0.1472  1.5685
 3372TIP3    H231608   5.516   5.363   2.667  0.5816 -1.3916  0.1251
 3373TIP3   OH231609   5.654   4.357  13.881  0.3765  0.0556 -0.4768
 3373TIP3    H131610   5.598   4.355  13.958  0.9207  1.6502 -0.0017
 3373TIP3    H231611   5.617   4.290  13.823 -0.4969 -0.6407  0.8366
 3374TIP3   OH231612   3.247   5.777  12.746  0.3403  0.5279  0.5938
 3374TIP3    H131613   3.324   5.737  12.707 -0.3067 -0.4228  0.2729
 3374TIP3    H231614   3.273   5.795  12.837  0.7195 -0.4095  0.6806
 3375TIP3   OH231615   1.643   4.170   3.653  0.5025 -0.5943 -1.1099
 3375TIP3    H131616   1.675   4.136   3.737  0.1999  0.0430 -0.7326
 3375TIP3    H231617   1.629   4.091   3.600 -1.8626 -1.2541  0.3313
 3376TIP3   OH231618   0.209   2.439  11.757  0.0910 -0.4426  0.2272
 3376TIP3    H131619   0.116   2.434  11.739 -0.4092  0.8952  2.1260
 3376TIP3    H231620   0.244   2.494  11.686 -0.9227  0.6194  0.5154
 3377TIP3   OH231621   2.053   0.727  15.159  0.1303 -0.7359  0.2266
 3377TIP3    H131622   1.964   0.740  15.127  0.3920 -1.3026 -0.7912
 3377TIP3    H231623   2.065   0.632  15.158  0.7131 -0.6687  0.4477
 3378TIP3   OH231624   2.057   6.612  14.364  0.0997  0.1434  0.3476
 3378TIP3    H131625   2.121   6.597  14.433  0.0651 -0.7802  0.1850
 3378TIP3    H231626   2.094   6.570  14.286 -0.2433  0.4668  0.0016
 3379TIP3   OH231627   4.988   1.995   1.509 -0.0750 -0.0640  0.3823
 3379TIP3    H131628   4.951   1.952   1.586 -0.7847 -1.8739 -0.8956
 3379TIP3    H231629   5.083   1.994   1.525 -0.2699  0.4429  1.6370
 3380TIP3   OH231630   4.360   4.612   2.752 -0.3560 -0.2261 -0.6985
 3380TIP3    H131631   4.346   4.584   2.842 -0.0364 -1.1816 -0.9355
 3380TIP3    H231632   4.456   4.619   2.744 -0.3448 -0.9789 -1.2086
 3381TIP3   OH231633   1.337   2.170   1.809 -0.2460 -0.0058 -0.1558
 3381TIP3    H131634   1.354   2.262   1.829  0.8834  0.0303 -1.1836
 3381TIP3    H231635   1.366   2.158   1.719  0.4388 -1.5616  0.2246
 3382TIP3   OH231636   0.674   3.618  15.217  0.3655  0.0730 -0.3842
 3382TIP3    H131637   0.680   3.616  15.312  0.5379 -0.0613 -0.3983
 3382TIP3    H231638   0.642   3.706  15.197 -0.9509 -0.3404 -0.1389
 3383TIP3   OH231639   3.880   2.732   6.192  0.0965  0.6066 -0.3851
 3383TIP3    H131640   3.921   2.790   6.257 -0.1960  1.8857 -1.2896
 3383TIP3    H231641   3.895   2.644   6.225 -1.4887  1.2316  2.2719
 3384TIP3   OH231642   0.275   5.581  14.211  0.3936  0.3382 -0.3380
 3384TIP3    H131643   0.255   5.609  14.301  1.2725  0.9997 -0.3386
 3384TIP3    H231644   0.369   5.593  14.202  0.3433  0.1061 -1.3002
 3385TIP3   OH231645   2.181   0.645  12.451  0.3496 -0.1507  0.0832
 3385TIP3    H131646   2.251   0.614  12.508 -0.9418 -0.5348  1.5272
 3385TIP3    H231647   2.224   0.707  12.392  1.7657  0.2316  1.4441
 3386TIP3   OH231648   4.913   0.212  17.281  0.9131 -0.0608  0.4712
 3386TIP3    H131649   5.005   0.203  17.258  1.7521  0.4282  3.3386
 3386TIP3    H231650   4.900   0.154  17.356 -0.7609  0.9366  1.0194
 3387TIP3   OH231651   6.654   5.384   3.665  0.0099 -0.0439  0.6903
 3387TIP3    H131652   6.571   5.390   3.617  0.7577  0.0222 -0.6622
 3387TIP3    H231653   6.701   5.463   3.639  1.4464 -1.2334 -0.4756
 3388TIP3   OH231654   0.492   2.808   0.113 -0.0238 -0.3690  0.1822
 3388TIP3    H131655   0.569   2.797   0.057 -0.9488  1.6257 -1.6078
 3388TIP3    H231656   0.515   2.881   0.171  0.0834 -0.9452  0.8726
 3389TIP3   OH231657   1.000   6.292   3.999  0.3924 -0.1359 -0.0296
 3389TIP3    H131658   1.035   6.310   3.912  0.7445 -1.6371 -0.2268
 3389TIP3    H231659   0.930   6.228   3.985  1.5491 -1.6791  0.9135
 3390TIP3   OH231660   3.082   6.094   0.882 -0.0845  0.4673 -0.3584
 3390TIP3    H131661   3.097   6.000   0.884 -0.7593  0.3418 -0.9611
 3390TIP3    H231662   3.022   6.111   0.955 -0.5956  0.3072 -0.7346
 3391TIP3   OH231663   1.978   1.837  12.191 -0.2821  0.4520 -0.1944
 3391TIP3    H131664   2.049   1.896  12.169 -0.1287  0.5991  0.6782
 3391TIP3    H231665   1.902   1.894  12.202  0.2775  0.7826  2.6286
 3392TIP3   OH231666   6.788   0.704   2.108 -0.0955 -0.3991 -0.1593
 3392TIP3    H131667   6.702   0.707   2.151  0.2519  0.6329  0.4857
 3392TIP3    H231668   6.789   0.781   2.051  0.5863 -0.1286  0.2098
 3393TIP3   OH231669   1.730   1.036   6.339  0.3241  0.6247  0.0523
 3393TIP3    H131670   1.777   1.054   6.421  0.2440  1.1444 -0.0075
 3393TIP3    H231671   1.640   1.021   6.366  0.9828 -3.5564  0.5282
 3394TIP3   OH231672   1.841   2.295  11.308 -0.8113  0.1852 -0.5785
 3394TIP3    H131673   1.865   2.329  11.222  0.4368  1.2020  0.1267
 3394TIP3    H231674   1.896   2.345  11.369 -0.1718 -1.9311  0.6647
 3395TIP3   OH231675   1.559   0.528  11.391 -0.0942  0.0998 -0.8453
 3395TIP3    H131676   1.497   0.576  11.336 -1.4789 -0.4174  0.2122
 3395TIP3    H231677   1.565   0.580  11.471  2.7125  1.4187 -1.7652
 3396TIP3   OH231678   4.241   1.891  12.822  0.4791  0.4027  0.1148
 3396TIP3    H131679   4.216   1.847  12.741 -1.6919  0.0434  0.9202
 3396TIP3    H231680   4.334   1.912  12.810  0.2020  0.4712 -2.4886
 3397TIP3   OH231681   2.821   3.924  11.231  0.0900  0.0696  0.2677
 3397TIP3    H131682   2.810   4.017  11.211  0.6174 -0.2158 -1.5598
 3397TIP3    H231683   2.878   3.922  11.308  2.0148  1.2521 -1.0452
 3398TIP3   OH231684   6.750   2.481   3.166 -0.5186  0.2395  0.3450
 3398TIP3    H131685   6.680   2.418   3.179 -0.2390 -0.3067 -0.6410
 3398TIP3    H231686   6.819   2.454   3.227 -0.2855 -0.6137 -0.2658
 3399TIP3   OH231687   6.247   2.198  11.294  0.1795  0.0942  0.2580
 3399TIP3    H131688   6.226   2.146  11.216 -2.6074  0.1653  0.8520
 3399TIP3    H231689   6.229   2.140  11.367  0.7640  0.6965  0.8951
 3400TIP3   OH231690   1.376   5.709  11.449 -0.4160 -0.4171  1.0099
 3400TIP3    H131691   1.419   5.788  11.417  1.4053 -1.0547  1.7414
 3400TIP3    H231692   1.307   5.692  11.385 -0.6871  1.5946  0.7014
 3401TIP3   OH231693   1.738   4.715   4.511  0.3203  0.3496  0.5727
 3401TIP3    H131694   1.731   4.797   4.462  0.5885  0.3818  0.5873
 3401TIP3    H231695   1.734   4.646   4.444 -0.9934  0.3252  0.6460
 3402TIP3   OH231696   1.105   4.120   2.492  0.0126 -0.3253  0.0030
 3402TIP3    H131697   1.155   4.178   2.550  0.3525 -0.7577  0.1459
 3402TIP3    H231698   1.169   4.059   2.457 -0.5211 -1.3738  0.7879
 3403TIP3   OH231699   5.722   0.513  15.508 -0.2274 -0.3477  0.1529
 3403TIP3    H131700   5.745   0.547  15.421 -0.3964 -0.4327  0.0744
 3403TIP3    H231701   5.802   0.524  15.559  0.2716 -1.4386 -0.3596
 3404TIP3   OH231702   0.031   6.293   0.712 -0.2754  0.3218  0.0562
 3404TIP3    H131703  -0.006   6.316   0.627 -0.7110  1.3911  0.5110
 3404TIP3    H231704  -0.042   6.306   0.773 -0.5281 -2.2310  0.3908
 3405TIP3   OH231705   0.615   3.531   0.254 -0.2832  0.6763  0.1227
 3405TIP3    H131706   0.663   3.561   0.331  0.3165  2.4688 -0.8850
 3405TIP3    H231707   0.531   3.577   0.259 -1.0019 -0.6220  0.6251
 3406TIP3   OH231708   5.450   1.975  12.028 -0.0293 -0.7877  0.9989
 3406TIP3    H131709   5.365   1.932  12.031 -0.6349  0.4035  1.5270
 3406TIP3    H231710   5.433   2.058  11.985  0.8929 -0.5771  1.0280
 3407TIP3   OH231711   3.080   3.701   1.511 -0.6576 -0.0154 -0.2273
 3407TIP3    H131712   3.087   3.694   1.415 -1.0252 -0.6454 -0.2183
 3407TIP3    H231713   2.988   3.679   1.529 -0.0287 -2.3181  0.4594
 3408TIP3   OH231714   6.487   5.482   2.170  0.9425  0.0968  0.0106
 3408TIP3    H131715   6.455   5.555   2.223 -4.3140 -0.9454 -1.1322
 3408TIP3    H231716   6.434   5.407   2.199 -0.1495 -1.1745 -4.5216
 3409TIP3   OH231717   2.910   6.470  12.434 -0.5098 -0.0567  0.0280
 3409TIP3    H131718   2.936   6.455  12.343  0.1639  0.5208  0.1049
 3409TIP3    H231719   2.987   6.446  12.485 -0.6006  0.3703  0.3794
 3410TIP3   OH231720   0.038   4.602   2.545  0.0372 -0.4039  0.7380
 3410TIP3    H131721   0.078   4.515   2.550 -0.0539 -0.4057  1.5968
 3410TIP3    H231722   0.112   4.662   2.542  0.1338 -0.5466 -1.4560
 3411TIP3   OH231723   0.571   1.446  15.809 -0.6311  0.1632  0.1363
 3411TIP3    H131724   0.611   1.511  15.866 -0.0978  0.4674 -0.5719
 3411TIP3    H231725   0.478   1.449  15.832 -0.3594 -0.0962  1.3449
 3412TIP3   OH231726   5.400   1.702   2.865 -0.2090  0.6491 -0.3703
 3412TIP3    H131727   5.445   1.732   2.943 -0.0327 -1.9748  0.6535
 3412TIP3    H231728   5.470   1.671   2.807 -0.4508  0.5819 -0.6307
 3413TIP3   OH231729   0.964   2.330  10.922 -0.1516  0.2096  0.1508
 3413TIP3    H131730   0.923   2.252  10.885 -0.7246  0.9159 -0.7419
 3413TIP3    H231731   0.904   2.401  10.902  0.4704  0.9248  0.7465
 3414TIP3   OH231732   1.150   4.904  16.169  0.1978  0.1636  0.1254
 3414TIP3    H131733   1.072   4.957  16.151  1.3576  1.7734 -0.4235
 3414TIP3    H231734   1.209   4.964  16.216  0.7400 -1.3205  1.4184
 3415TIP3   OH231735   4.897   5.134  16.720 -0.2852 -0.1171  0.3104
 3415TIP3    H131736   4.864   5.216  16.685  0.6097  0.5564  0.9839
 3415TIP3    H231737   4.915   5.152  16.812 -0.0094 -1.0481  0.4545
 3416TIP3   OH231738   3.586   5.510   3.745 -0.3712  0.1347 -0.1011
 3416TIP3    H131739   3.659   5.556   3.703  0.5724  0.1223  1.4480
 3416TIP3    H231740   3.606   5.513   3.839 -0.6791 -2.6948  0.1485
 3417TIP3   OH231741   4.294   2.316   3.521  0.3612 -0.1299  0.3701
 3417TIP3    H131742   4.292   2.225   3.549  0.3453 -1.4593 -3.3569
 3417TIP3    H231743   4.355   2.318   3.447 -0.1808  2.7407 -0.1529
 3418TIP3   OH231744   6.769   4.048   1.514  0.2210 -0.0691  0.6579
 3418TIP3    H131745   6.803   3.987   1.579 -0.2166 -1.0151  0.0245
 3418TIP3    H231746   6.698   4.094   1.559  0.2978 -0.3017  1.0231
 3419TIP3   OH231747   3.620   4.804  11.718  0.4734 -0.1235 -0.0596
 3419TIP3    H131748   3.601   4.871  11.652  0.1674  0.0981  0.2550
 3419TIP3    H231749   3.535   4.785  11.758  0.8164  0.5278  1.0231
 3420TIP3   OH231750   3.794   6.152   0.942  0.4884 -0.0138  0.4392
 3420TIP3    H131751   3.716   6.174   0.890  1.2590  0.3343 -0.5876
 3420TIP3    H231752   3.778   6.062   0.971  0.3629 -0.5007 -1.0451
 3421TIP3   OH231753   2.411   6.070   4.079 -0.4685  0.3635  0.7210
 3421TIP3    H131754   2.489   6.039   4.034 -1.2473 -1.6234  0.6379
 3421TIP3    H231755   2.359   6.114   4.011  0.0498  0.6795  0.5278
 3422TIP3   OH231756   1.253   6.469  15.952  1.0074 -0.2826  0.0464
 3422TIP3    H131757   1.192   6.397  15.962  1.2086 -0.7898 -2.0066
 3422TIP3    H231758   1.333   6.429  15.918  1.1332  0.8772 -1.0962
 3423TIP3   OH231759   4.418   6.288   5.349  0.5298  0.2116  0.2855
 3423TIP3    H131760   4.384   6.350   5.284 -0.1747 -1.4742 -1.0181
 3423TIP3    H231761   4.343   6.269   5.405  0.3219 -0.6153 -0.2617
 3424TIP3   OH231762   1.724   1.958   3.133  0.5044 -0.0904  0.0793
 3424TIP3    H131763   1.784   2.032   3.138  0.8321 -0.3743  0.3821
 3424TIP3    H231764   1.779   1.883   3.110  0.0548 -0.0984 -1.0645
 3425TIP3   OH231765   2.023   0.356  13.383  0.4164 -0.1850  0.3374
 3425TIP3    H131766   2.107   0.322  13.351 -0.4147  0.4400 -2.8508
 3425TIP3    H231767   2.034   0.451  13.383  0.3688 -0.1524  2.0681
 3426TIP3   OH231768   5.405   2.390   0.527 -0.0884 -0.3246  0.2945
 3426TIP3    H131769   5.449   2.465   0.487 -0.7324 -0.3596 -0.4944
 3426TIP3    H231770   5.446   2.382   0.613 -0.8169  1.6746  0.8997
 3427TIP3   OH231771   4.407   6.743  15.757 -0.1444  0.3199  0.2474
 3427TIP3    H131772   4.398   6.832  15.722  1.6532  0.5832  0.3728
 3427TIP3    H231773   4.474   6.750  15.825  1.0129 -1.3624 -0.6572
 3428TIP3   OH231774   6.544   0.514  15.453  0.0281 -0.3342  0.0425
 3428TIP3    H131775   6.506   0.505  15.540 -2.0887  2.6768 -0.4394
 3428TIP3    H231776   6.476   0.484  15.393  0.5730 -0.1797 -0.6714
 3429TIP3   OH231777   3.631   4.709  13.939  0.1410  0.3421 -1.0268
 3429TIP3    H131778   3.673   4.785  13.897 -0.4511  0.6636 -1.0454
 3429TIP3    H231779   3.694   4.682  14.006  0.4280  0.7577 -1.1203
 3430TIP3   OH231780   3.250   3.671  12.681  0.2883 -0.1150 -0.2520
 3430TIP3    H131781   3.222   3.608  12.615  1.4653  0.6356 -1.5051
 3430TIP3    H231782   3.290   3.742  12.632  1.0664  0.5459  1.2568
 3431TIP3   OH231783   1.018   1.556  16.120  0.6676 -0.1087  0.7472
 3431TIP3    H131784   0.969   1.517  16.193 -2.0191  0.1547 -0.7853
 3431TIP3    H231785   1.031   1.647  16.146 -2.1675  0.5685  0.1454
 3432TIP3   OH231786   2.699   3.214   5.260 -0.1735  0.2787  0.0745
 3432TIP3    H131787   2.692   3.191   5.353  1.2272 -1.5929 -0.2199
 3432TIP3    H231788   2.781   3.262   5.254 -0.2054  0.2939 -0.2333
 3433TIP3   OH231789   6.314   4.758  14.607  0.6704 -0.3033  0.7854
 3433TIP3    H131790   6.263   4.680  14.632  0.6031 -1.0277 -1.4084
 3433TIP3    H231791   6.356   4.786  14.689 -0.4550 -1.7747  1.9299
 3434TIP3   OH231792   2.895   0.489   1.031  0.1516 -0.0890  0.2655
 3434TIP3    H131793   2.979   0.448   1.049  0.5175  0.2860 -0.5499
 3434TIP3    H231794   2.831   0.419   1.044  0.5627 -0.3179  1.0973
 3435TIP3   OH231795   3.633   2.696   4.651  0.1267  0.0660 -0.3620
 3435TIP3    H131796   3.722   2.687   4.688 -0.8928  0.3937  2.4379
 3435TIP3    H231797   3.608   2.607   4.627  2.0268  0.2458 -3.5357
 3436TIP3   OH231798   3.315   6.368   4.499  0.4463 -0.3170  0.3989
 3436TIP3    H131799   3.262   6.398   4.572 -0.0991 -0.9025  0.2484
 3436TIP3    H231800   3.260   6.306   4.452  1.5739 -1.6781  0.7798
 3437TIP3   OH231801   0.043   0.445  13.384 -0.2173  0.4242  0.0805
 3437TIP3    H131802   0.126   0.402  13.363 -0.7343  0.2090 -1.7755
 3437TIP3    H231803   0.024   0.419  13.474 -0.1065 -2.6374 -0.6522
 3438TIP3   OH231804   1.486   4.194  16.200  0.5570  0.3752 -0.0792
 3438TIP3    H131805   1.483   4.115  16.147 -0.0449  0.7600 -0.6384
 3438TIP3    H231806   1.564   4.184  16.255  0.9510 -0.2200 -0.7344
 3439TIP3   OH231807   2.336   1.064   6.490 -0.1946 -0.1201 -0.6683
 3439TIP3    H131808   2.429   1.053   6.511 -0.3695  0.8624  0.7891
 3439TIP3    H231809   2.335   1.127   6.419  0.2576 -0.3117 -0.8508
 3440TIP3   OH231810   2.310   0.365  13.816 -0.1066  0.2956  0.3921
 3440TIP3    H131811   2.384   0.426  13.823 -0.5623  0.8223  0.6746
 3440TIP3    H231812   2.310   0.338  13.724  0.0090  0.8290  0.2352
 3441TIP3   OH231813   5.985   2.959  15.732  0.6664 -0.6669 -0.2259
 3441TIP3    H131814   5.935   2.894  15.782 -0.3107 -1.2330 -1.8547
 3441TIP3    H231815   5.962   2.941  15.640  0.1521  2.1567 -0.7367
 3442TIP3   OH231816   0.816   3.414  13.480 -0.2754  0.4338  0.0694
 3442TIP3    H131817   0.843   3.444  13.393 -0.2822 -5.0581 -2.2478
 3442TIP3    H231818   0.721   3.427  13.482 -0.1469  1.4711 -0.3348
 3443TIP3   OH231819   4.618   0.447  15.554 -0.0416 -0.0394  0.3577
 3443TIP3    H131820   4.629   0.486  15.467  0.1694 -2.1836 -0.6333
 3443TIP3    H231821   4.670   0.504  15.612  0.4908  0.9679 -1.0372
 3444TIP3   OH231822   0.025   0.471   3.895  0.2655 -1.0070  0.5895
 3444TIP3    H131823   0.099   0.490   3.953  0.4551 -0.7879  0.2783
 3444TIP3    H231824   0.065   0.450   3.810 -0.0529 -0.1338  0.2094
 3445TIP3   OH231825   0.805   4.650  13.907  0.2627 -0.1363 -0.8027
 3445TIP3    H131826   0.835   4.676  13.994 -0.8555  1.6651 -0.8959
 3445TIP3    H231827   0.789   4.556  13.913  2.9176 -0.6134  0.0861
 3446TIP3   OH231828   1.648   1.453  12.248 -0.2259  0.2279  0.0790
 3446TIP3    H131829   1.654   1.446  12.344 -0.7314  0.8962  0.1645
 3446TIP3    H231830   1.560   1.424  12.227  0.3562 -1.3254 -0.3430
 3447TIP3   OH231831   2.979   3.538   1.884 -0.0688 -0.0982 -0.3851
 3447TIP3    H131832   3.042   3.525   1.813  1.5732  2.6899  0.4172
 3447TIP3    H231833   2.909   3.590   1.843 -0.5734 -0.9508 -0.6286
 3448TIP3   OH231834   2.158   3.873   2.125  0.0781 -0.1613 -0.5036
 3448TIP3    H131835   2.229   3.808   2.126  0.3533  0.0474 -2.2394
 3448TIP3    H231836   2.153   3.905   2.215  0.9243 -1.5302  0.0644
 3449TIP3   OH231837   4.834   5.877   4.576  0.1442 -0.1257 -0.6856
 3449TIP3    H131838   4.876   5.903   4.658 -1.2227  0.3710 -0.1167
 3449TIP3    H231839   4.741   5.880   4.595 -0.3503  2.2886 -2.9234
 3450TIP3   OH231840   2.799   5.476  14.558  0.2199  0.5015 -0.0371
 3450TIP3    H131841   2.859   5.534  14.606  0.7064  0.6193 -0.7814
 3450TIP3    H231842   2.855   5.405  14.526 -0.3187 -0.2320  0.6034
 3451TIP3   OH231843   4.858   0.735   5.147 -0.0333 -0.2131  0.4103
 3451TIP3    H131844   4.943   0.753   5.106 -0.7729  0.8908 -0.6897
 3451TIP3    H231845   4.796   0.729   5.075 -1.0484 -0.1483  1.2460
 3452TIP3   OH231846   6.116   4.973  13.700 -0.1076 -0.4134  0.0981
 3452TIP3    H131847   6.122   5.068  13.709  0.4261 -0.4287 -0.0684
 3452TIP3    H231848   6.206   4.943  13.705 -0.1923 -0.8343 -0.7194
 3453TIP3   OH231849   6.470   4.657  14.365  0.0743  0.6970 -0.2408
 3453TIP3    H131850   6.429   4.692  14.445 -0.3334  1.2255 -0.6758
 3453TIP3    H231851   6.435   4.568  14.358  1.0058  0.2234  0.7956
 3454TIP3   OH231852   0.748   2.907   1.307 -0.1248 -0.9853  0.2400
 3454TIP3    H131853   0.682   2.916   1.238  0.2443 -1.0531 -0.1290
 3454TIP3    H231854   0.751   2.993   1.348 -0.0725 -0.8282 -0.0861
 3455TIP3   OH231855   4.079   5.115   6.669  0.0319  0.1414  0.2160
 3455TIP3    H131856   4.026   5.166   6.730 -0.0556  0.4487 -0.1152
 3455TIP3    H231857   4.159   5.166   6.657 -0.2124  0.3814 -0.4013
 3456TIP3   OH231858   4.693   2.677  15.517  0.0536  0.3313 -0.1461
 3456TIP3    H131859   4.626   2.652  15.453  0.9519  0.3314 -1.1004
 3456TIP3    H231860   4.772   2.690  15.466  0.5339  1.4304  0.8330
 3457TIP3   OH231861   3.547   6.021   3.770 -0.1326  0.6650 -0.0672
 3457TIP3    H131862   3.453   6.010   3.780  0.1636 -2.3713  0.2646
 3457TIP3    H231863   3.561   6.024   3.676 -0.4059 -1.9716 -0.2762
 3458TIP3   OH231864   2.412   3.321  15.268  0.0360  0.7186 -0.1916
 3458TIP3    H131865   2.402   3.295  15.176 -0.7385 -0.8676  0.2905
 3458TIP3    H231866   2.454   3.406  15.264  2.3368 -0.3809 -1.9560
 3459TIP3   OH231867   5.898   6.318  16.983  0.0633  0.6418  0.0726
 3459TIP3    H131868   5.804   6.315  16.964  0.2984  1.8522 -1.5254
 3459TIP3    H231869   5.934   6.375  16.915  2.1674 -0.8834 -0.1712
 3460TIP3   OH231870   5.382   0.127  11.348 -0.1131  0.3907  0.0465
 3460TIP3    H131871   5.449   0.084  11.294 -0.1960  0.2434  0.0615
 3460TIP3    H231872   5.329   0.055  11.382 -1.2432  0.5946 -1.2187
 3461TIP3   OH231873   2.148   6.744   2.589 -0.7579  0.4973  0.4575
 3461TIP3    H131874   2.127   6.735   2.682  0.9983  2.1783  1.0644
 3461TIP3    H231875   2.169   6.655   2.561  0.1183  0.1705  2.0386
 3462TIP3   OH231876   0.360   0.519  13.034 -0.3384  0.1010 -0.0335
 3462TIP3    H131877   0.290   0.457  13.017 -0.2018  0.2534 -1.2567
 3462TIP3    H231878   0.366   0.571  12.954  1.8084 -0.5348 -0.3378
 3463TIP3   OH231879   1.825   3.427   5.825 -0.2369  0.1853 -0.1164
 3463TIP3    H131880   1.805   3.365   5.755  0.3254  0.5416 -0.6140
 3463TIP3    H231881   1.869   3.375   5.892 -2.4880 -0.5534  0.8833
 3464TIP3   OH231882   3.511   6.146   5.631  0.1801 -0.0228  0.1610
 3464TIP3    H131883   3.459   6.065   5.624 -1.2650  0.7554  1.2133
 3464TIP3    H231884   3.506   6.168   5.724  3.0348 -0.2589  0.4535
 3465TIP3   OH231885   4.508   5.761   5.737 -0.2216  0.1995 -0.0599
 3465TIP3    H131886   4.597   5.790   5.757 -0.0681 -1.0142  1.1975
 3465TIP3    H231887   4.452   5.830   5.772  0.1704 -0.3310  1.7543
 3466TIP3   OH231888   2.631   1.595  16.875 -0.0557  0.1052  0.1421
 3466TIP3    H131889   2.564   1.541  16.833  0.8670 -0.4600 -0.6576
 3466TIP3    H231890   2.637   1.562  16.965 -0.1514 -0.5104 -0.0786
 3467TIP3   OH231891   6.405   4.941  14.091  0.2842  0.5735  0.3697
 3467TIP3    H131892   6.468   4.905  14.153 -0.1631  0.6357  0.8670
 3467TIP3    H231893   6.404   4.877  14.019 -0.4336 -0.4076  1.2019
 3468TIP3   OH231894   6.339   3.866  14.433 -0.2355 -0.2344  0.1937
 3468TIP3    H131895   6.365   3.896  14.346  0.2232 -0.0036  0.4043
 3468TIP3    H231896   6.255   3.823  14.420 -0.4329  0.2838 -0.2757
 3469TIP3   OH231897   6.537   6.073   0.786  0.1587  0.1059 -0.4282
 3469TIP3    H131898   6.566   6.154   0.828 -1.2811 -0.0605  0.9505
 3469TIP3    H231899   6.444   6.067   0.806  0.7017 -3.2248  1.8435
 3470TIP3   OH231900   6.232   0.489   2.845 -0.3438 -0.4706 -0.0317
 3470TIP3    H131901   6.171   0.494   2.918  0.0174 -1.3238  0.3503
 3470TIP3    H231902   6.178   0.497   2.767 -0.6555  1.1928  0.3155
 3471TIP3   OH231903   5.535   2.017   2.548  0.0839 -0.3768  0.0777
 3471TIP3    H131904   5.571   2.100   2.516  0.0298 -0.4686 -0.2282
 3471TIP3    H231905   5.514   2.034   2.640  0.4241 -0.1649  0.1213
 3472TIP3   OH231906   2.365   4.005  14.659 -0.3056  0.1405 -0.3047
 3472TIP3    H131907   2.415   4.004  14.577 -0.8085 -0.0916 -0.6166
 3472TIP3    H231908   2.275   4.023  14.632 -0.1259  2.3698  0.4193
 3473TIP3   OH231909   5.944   1.823  15.300 -0.5264 -0.5938 -0.5202
 3473TIP3    H131910   5.999   1.843  15.224  1.1651 -2.0619  0.2615
 3473TIP3    H231911   5.861   1.867  15.281  0.4041  0.4710 -2.4252
 3474TIP3   OH231912   5.031   3.033   3.494 -0.1075  0.4232 -0.0566
 3474TIP3    H131913   5.051   2.979   3.418 -1.1031 -0.4858  0.3053
 3474TIP3    H231914   5.015   2.971   3.565  1.3583  1.2568  1.0730
 3475TIP3   OH231915   3.089   5.338  13.511  0.0658  0.1342  0.4374
 3475TIP3    H131916   3.062   5.253  13.478 -0.0358  0.5351 -0.5508
 3475TIP3    H231917   3.180   5.325  13.538  0.1089 -0.2407  0.1188
 3476TIP3   OH231918   2.025   0.287   4.597  0.3214  0.3749 -0.4101
 3476TIP3    H131919   2.030   0.253   4.507  2.2284  0.7205 -0.4707
 3476TIP3    H231920   2.089   0.358   4.599  0.3613  0.3133  1.2609
 3477TIP3   OH231921   0.707   4.969   5.182 -0.5398  0.5648  0.3739
 3477TIP3    H131922   0.617   4.974   5.151 -0.8075 -1.4991  0.6874
 3477TIP3    H231923   0.716   5.043   5.243 -2.1425  0.5828  0.6215
 3478TIP3   OH231924   4.423   2.990   4.223 -0.1442 -0.0866 -0.1792
 3478TIP3    H131925   4.370   3.014   4.147 -3.7201 -1.6609  1.5839
 3478TIP3    H231926   4.438   2.896   4.213 -0.0201 -0.1642  0.6581
 3479TIP3   OH231927   4.052   2.121  13.008 -0.2182  0.1714 -0.0519
 3479TIP3    H131928   4.057   2.037  12.963  2.4414  0.4297 -0.4033
 3479TIP3    H231929   4.094   2.183  12.948 -0.4970  1.3865  0.9596
 3480TIP3   OH231930   2.365   2.167  13.831  0.4638 -0.0289  0.3985
 3480TIP3    H131931   2.315   2.134  13.757  1.9915 -1.8999  0.1212
 3480TIP3    H231932   2.444   2.205  13.793  0.2146  1.0709  0.9412
 3481TIP3   OH231933   3.738   2.275   1.046  0.3561 -0.0326 -0.3848
 3481TIP3    H131934   3.790   2.325   0.985  1.3376 -0.8131 -0.2168
 3481TIP3    H231935   3.789   2.275   1.127  1.3166 -2.7417 -0.8663
 3482TIP3   OH231936   2.794   6.754   4.169  0.3833 -0.6210  0.2886
 3482TIP3    H131937   2.728   6.807   4.212 -1.3950 -3.8208  1.9111
 3482TIP3    H231938   2.748   6.713   4.096  1.2460 -1.0608 -0.0271
 3483TIP3   OH231939   6.583   3.520  15.369  0.3486  0.0026  0.1624
 3483TIP3    H131940   6.650   3.488  15.429 -0.8720 -0.9291  1.0764
 3483TIP3    H231941   6.513   3.455  15.374 -0.8802  1.2445 -0.2963
 3484TIP3   OH231942   1.725   1.893  15.288  0.0781  0.5429  0.6667
 3484TIP3    H131943   1.719   1.809  15.334  0.6516 -0.0347 -0.2710
 3484TIP3    H231944   1.674   1.954  15.342  0.0543 -0.2906  1.6187
 3485TIP3   OH231945   0.115   5.670  12.972 -0.4820  0.2005 -0.2889
 3485TIP3    H131946   0.154   5.582  12.974  0.7169  0.7154  0.5466
 3485TIP3    H231947   0.150   5.713  13.050 -0.9123  1.4781 -0.7750
 3486TIP3   OH231948   5.128   1.913   5.544 -0.3729 -0.3984 -0.0266
 3486TIP3    H131949   5.079   1.912   5.626 -0.1894 -0.3744  0.0836
 3486TIP3    H231950   5.124   1.822   5.513 -2.0930 -0.0353 -0.9821
 3487TIP3   OH231951   2.486   3.012   4.961  0.0139  0.5337  0.6048
 3487TIP3    H131952   2.539   2.952   4.908 -1.2367 -0.3999  0.3722
 3487TIP3    H231953   2.448   2.957   5.029 -2.3549  0.6988 -0.4971
 3488TIP3   OH231954   2.981   1.479  16.083  0.0009 -0.1502 -0.7570
 3488TIP3    H131955   2.996   1.573  16.071 -1.5118  0.5567  1.9225
 3488TIP3    H231956   3.054   1.450  16.137 -0.2853 -0.1650 -0.3730
 3489TIP3   OH231957   3.376   0.900  16.592 -0.0404  0.0456 -0.5565
 3489TIP3    H131958   3.336   0.838  16.532 -0.6044 -0.5463  0.4038
 3489TIP3    H231959   3.457   0.858  16.620  1.3008  1.2109 -2.4455
 3490TIP3   OH231960   0.511   2.877  15.430 -0.6533  0.3515  0.1122
 3490TIP3    H131961   0.496   2.956  15.379  0.9338 -0.7558 -2.2635
 3490TIP3    H231962   0.606   2.871  15.439 -0.8068 -0.5137  1.5787
 3491TIP3   OH231963   4.620   2.958  15.581 -0.7478  0.4124  0.0095
 3491TIP3    H131964   4.633   2.879  15.528  1.5706  0.1939  0.7545
 3491TIP3    H231965   4.554   2.932  15.646  0.0379 -1.0026  0.3062
 3492TIP3   OH231966   0.486   2.744  10.574 -0.1679  0.7782 -0.6336
 3492TIP3    H131967   0.531   2.703  10.647 -2.6103 -0.9791  0.0329
 3492TIP3    H231968   0.470   2.672  10.512 -1.4226  1.4378 -1.1265
 3493TIP3   OH231969   4.237   5.396  13.418 -0.0025 -0.3596  0.1219
 3493TIP3    H131970   4.298   5.400  13.345  1.5400 -1.3171  1.2767
 3493TIP3    H231971   4.184   5.476  13.410  1.1935  0.3545 -1.1134
 3494TIP3   OH231972   2.668   1.938   1.249  0.1450 -0.0837 -0.2539
 3494TIP3    H131973   2.694   1.870   1.312 -1.5885 -0.5649 -0.0250
 3494TIP3    H231974   2.740   2.001   1.251  1.4822 -1.5495  0.0402
 3495TIP3   OH231975   3.508   1.614  15.503 -0.3388 -0.2451 -0.0220
 3495TIP3    H131976   3.576   1.607  15.436 -1.2374 -0.3911 -0.9363
 3495TIP3    H231977   3.541   1.682  15.563  0.3076  0.1548 -0.8038
 3496TIP3   OH231978   5.945   0.757  13.582  0.3853 -0.1876 -0.6686
 3496TIP3    H131979   5.885   0.719  13.646  0.3477 -0.9508 -1.1474
 3496TIP3    H231980   5.898   0.755  13.499  0.5464  0.5230 -0.7837
 3497TIP3   OH231981   3.717   6.718   5.811  0.4699 -0.4219 -0.0412
 3497TIP3    H131982   3.762   6.784   5.758  3.9604 -1.1613  1.6828
 3497TIP3    H231983   3.761   6.636   5.788  0.9147 -1.0091  2.6149
 3498TIP3   OH231984   1.661   4.517   5.505  0.0928  0.2099  0.2944
 3498TIP3    H131985   1.627   4.436   5.543  0.3034 -0.2396 -0.4340
 3498TIP3    H231986   1.723   4.487   5.438 -0.5221  0.9539 -0.6307
 3499TIP3   OH231987   6.670   6.601   0.885 -0.1809 -0.4188  0.2125
 3499TIP3    H131988   6.641   6.670   0.826  0.6619 -0.3861 -0.1837
 3499TIP3    H231989   6.629   6.621   0.969 -2.7310 -1.3823 -0.7256
 3500TIP3   OH231990   3.907   1.128  13.940 -0.7864  0.1040 -0.2099
 3500TIP3    H131991   3.898   1.148  13.847 -0.5816 -0.4394 -0.3477
 3500TIP3    H231992   3.992   1.164  13.964 -0.4189 -0.5933 -0.4570
 3501TIP3   OH231993   3.971   6.792   1.961 -0.0588  0.0249 -0.5096
 3501TIP3    H131994   3.984   6.878   2.001  0.2815 -1.1633  2.1507
 3501TIP3    H231995   3.892   6.802   1.908  0.8574  2.3590 -1.5696
 3502TIP3   OH231996   5.265   1.175   2.584 -0.0142  0.3930 -0.0078
 3502TIP3    H131997   5.317   1.247   2.620  0.2228 -0.4965  1.5286
 3502TIP3    H231998   5.180   1.215   2.563  0.0198  1.0824  1.0748
 3503TIP3   OH231999   4.289   0.859   2.684  0.1356  0.4885 -0.6435
 3503TIP3    H132000   4.217   0.921   2.671 -2.4547 -2.3481 -1.1512
 3503TIP3    H232001   4.360   0.891   2.629 -1.6147  2.1724 -2.0445
 3504TIP3   OH232002   1.082   3.642   2.961  0.1616  0.3958  0.4610
 3504TIP3    H132003   1.157   3.633   3.020 -0.8172 -1.1254  1.5757
 3504TIP3    H232004   1.119   3.631   2.873  1.4081  0.9387  0.8932
 3505TIP3   OH232005   6.239   2.734   5.285  0.4591 -0.2666  0.1682
 3505TIP3    H132006   6.224   2.802   5.351 -0.4802 -1.5242  1.2940
 3505TIP3    H232007   6.226   2.652   5.331  1.4029 -1.2400 -1.2098
 3506TIP3   OH232008   2.571   2.453   2.543  0.0714  0.2182 -0.4061
 3506TIP3    H132009   2.531   2.378   2.585 -0.3284  0.7542  0.1854
 3506TIP3    H232010   2.628   2.491   2.610  0.5987  0.2066 -0.8333
 3507TIP3   OH232011   5.469   0.213   1.237 -0.5680  0.3568 -0.0157
 3507TIP3    H132012   5.560   0.193   1.212  0.3481  1.1061  2.4228
 3507TIP3    H232013   5.423   0.130   1.227  0.6687 -0.3444 -0.1587
 3508TIP3   OH232014   2.942   1.825   4.756 -0.4153 -0.2229 -0.0523
 3508TIP3    H132015   2.883   1.878   4.702 -0.3591  0.5844  0.6582
 3508TIP3    H232016   2.907   1.834   4.845  0.1200 -0.6624  0.2072
 3509TIP3   OH232017   3.235   6.732   3.104 -0.7761 -0.0927 -0.1583
 3509TIP3    H132018   3.305   6.774   3.154 -0.1982  0.3703 -1.3131
 3509TIP3    H232019   3.158   6.787   3.117  0.1155  1.7649 -2.1290
 3510TIP3   OH232020   3.398   1.767  14.360 -0.1096 -0.2521  0.4917
 3510TIP3    H132021   3.348   1.743  14.438  1.2759  0.3554  1.6023
 3510TIP3    H232022   3.444   1.686  14.336  0.1305 -0.2145  0.8218
 3511TIP3   OH232023   3.127   6.637  13.854 -0.1267 -0.5356 -0.3569
 3511TIP3    H132024   3.219   6.615  13.872 -0.2801 -0.0758  1.1156
 3511TIP3    H232025   3.121   6.731  13.872 -0.6472 -0.3159 -1.5691
 3512TIP3   OH232026   2.338   6.193   2.032  0.2713 -0.3752  0.5439
 3512TIP3    H132027   2.422   6.150   2.015  1.3017  1.2493  1.2590
 3512TIP3    H232028   2.279   6.122   2.057  1.2299 -1.6365 -0.6258
 3513TIP3   OH232029   3.723   5.755   0.088 -0.2538 -0.0829 -0.0407
 3513TIP3    H132030   3.678   5.767   0.172  0.6713  1.5265  0.2589
 3513TIP3    H232031   3.731   5.661   0.078 -0.9321 -0.3103  1.3854
 3514TIP3   OH232032   5.263   5.759  14.830 -0.2157  0.1856  0.1105
 3514TIP3    H132033   5.198   5.786  14.895 -0.5031  1.2564 -0.5856
 3514TIP3    H232034   5.345   5.798  14.861 -0.7814  2.7416 -1.3208
 3515TIP3   OH232035   2.499   4.035  12.498 -0.3850 -0.3602 -0.1923
 3515TIP3    H132036   2.553   3.961  12.471  0.9985  0.8374 -0.8222
 3515TIP3    H232037   2.476   4.080  12.417 -1.8072 -0.4578  0.1218
 3516TIP3   OH232038   1.333   6.103   4.469  0.0576 -0.1186  0.7659
 3516TIP3    H132039   1.323   6.070   4.380 -1.1372  2.2860 -0.0734
 3516TIP3    H232040   1.420   6.143   4.470  0.3386 -0.7309  0.8864
 3517TIP3   OH232041   2.158   0.177  15.787 -0.3906  0.1462 -0.7813
 3517TIP3    H132042   2.147   0.083  15.775  1.7462  0.0587 -2.8495
 3517TIP3    H232043   2.070   0.210  15.807 -1.6440 -1.9544 -2.4948
 3518TIP3   OH232044   6.461   6.035   1.091 -0.4239 -1.0817 -0.3025
 3518TIP3    H132045   6.486   6.031   1.184  0.3438 -0.7430 -0.4802
 3518TIP3    H232046   6.366   6.035   1.091 -0.5712  2.5596  0.7132
 3519TIP3   OH232047   0.324   3.850   0.877 -0.0122  0.8020 -0.3242
 3519TIP3    H132048   0.368   3.930   0.907 -2.6793  2.1271  0.3445
 3519TIP3    H232049   0.293   3.871   0.789 -1.0743  0.6817  0.0074
 3520TIP3   OH232050   4.609   2.768  16.970 -0.4265 -0.3093 -0.3947
 3520TIP3    H132051   4.589   2.717  17.048  0.3101 -0.3018 -0.1929
 3520TIP3    H232052   4.572   2.718  16.897 -0.6054 -0.6055 -0.0995
 3521TIP3   OH232053   1.281   4.396   3.071  0.0353 -0.1783 -0.3799
 3521TIP3    H132054   1.198   4.372   3.031  0.7939 -0.1924 -2.0108
 3521TIP3    H232055   1.347   4.356   3.015  1.2407  2.5397 -1.0382
 3522TIP3   OH232056   4.925   6.803  13.258  0.0839 -0.1943 -0.0189
 3522TIP3    H132057   4.885   6.718  13.240  1.0234 -0.5021 -0.7070
 3522TIP3    H232058   4.892   6.827  13.344 -0.8903 -0.8403 -0.1981
 3523TIP3   OH232059   1.311   4.803  11.111 -0.4035  0.2679 -0.6657
 3523TIP3    H132060   1.344   4.865  11.046 -0.4353 -0.0364 -0.9790
 3523TIP3    H232061   1.282   4.728  11.059  1.6896 -0.9655 -0.1479
 3524TIP3   OH232062   1.992   0.541   1.635 -0.3749  0.1649 -0.0779
 3524TIP3    H132063   2.049   0.515   1.563 -0.4505  0.1573 -0.1349
 3524TIP3    H232064   1.972   0.633   1.618 -2.0897 -0.3782 -1.2156
 3525TIP3   OH232065   0.594   5.064  11.255 -0.3470 -0.2697  0.7776
 3525TIP3    H132066   0.581   5.117  11.177  0.1098 -0.6871  0.4178
 3525TIP3    H232067   0.514   5.012  11.263  0.0815 -1.0667 -0.0617
 3526TIP3   OH232068   4.926   0.509  16.339 -0.4445 -0.0588  0.0314
 3526TIP3    H132069   4.995   0.538  16.398  1.3417  2.5029 -3.0239
 3526TIP3    H232070   4.865   0.583  16.335 -2.9522 -1.8383  1.7745
 3527TIP3   OH232071   0.034   2.527   4.422  0.5874 -0.0037  0.4167
 3527TIP3    H132072   0.067   2.551   4.509 -0.5702  0.3410  0.7851
 3527TIP3    H232073   0.110   2.533   4.365  1.2440  0.3535  1.3011
 3528TIP3   OH232074   5.469   5.591  12.352  0.2219  0.3248  0.4448
 3528TIP3    H132075   5.526   5.611  12.426 -0.3543 -0.7449  1.2007
 3528TIP3    H232076   5.523   5.538  12.293  0.8775  1.6909 -0.2418
 3529TIP3   OH232077   5.710   2.317   3.982  0.1997 -0.4081 -0.1666
 3529TIP3    H132078   5.779   2.309   3.916  0.0191  0.3307 -0.4563
 3529TIP3    H232079   5.655   2.239   3.969  0.1002 -0.2119 -0.9643
 3530TIP3   OH232080   4.703   4.277   0.491 -0.0240 -0.0451  0.2601
 3530TIP3    H132081   4.663   4.248   0.409  0.1918 -0.9575  0.4664
 3530TIP3    H232082   4.706   4.372   0.484 -0.1963 -0.1025 -0.7014
 3531TIP3   OH232083   5.886   0.719  13.862 -0.2180 -0.0099 -0.1743
 3531TIP3    H132084   5.871   0.779  13.935 -0.0168  0.3769 -0.4495
 3531TIP3    H232085   5.981   0.712  13.855 -0.2282 -1.4746  0.7620
 3532TIP3   OH232086   0.715   4.968  15.052 -0.2198  0.3999 -0.7580
 3532TIP3    H132087   0.675   5.049  15.085 -1.1113 -0.8456  1.4040
 3532TIP3    H232088   0.807   4.975  15.076 -0.1910  0.9669 -1.0104
 3533TIP3   OH232089   0.401   3.410   5.817 -0.3655 -0.0484 -0.3716
 3533TIP3    H132090   0.317   3.365   5.811 -1.0127  0.8007  1.3881
 3533TIP3    H232091   0.424   3.405   5.910  1.5334 -0.2352 -0.8133
 3534TIP3   OH232092   6.273   0.403  16.715  0.7687  0.4478  0.1713
 3534TIP3    H132093   6.192   0.374  16.673 -0.1294 -0.5275  2.3957
 3534TIP3    H232094   6.307   0.472  16.658 -1.2049  0.3171 -1.2462
 3535TIP3   OH232095   0.475   0.166   0.667 -0.3167  0.3358 -0.3126
 3535TIP3    H132096   0.497   0.191   0.756 -2.2236  1.0791 -0.0222
 3535TIP3    H232097   0.391   0.121   0.673  0.3643 -1.2473 -1.5386
 3536TIP3   OH232098   5.759   3.484   5.557  0.5271 -0.0337 -0.2335
 3536TIP3    H132099   5.761   3.487   5.652  0.4104  1.4386 -0.2643
 3536TIP3    H232100   5.797   3.567   5.529 -2.0262  0.8033 -1.4410
 3537TIP3   OH232101   0.635   1.878   0.402 -0.1647  0.3327 -0.1474
 3537TIP3    H132102   0.730   1.889   0.393 -0.0939  1.1149  1.2788
 3537TIP3    H232103   0.600   1.917   0.322  0.7336 -0.9582 -1.2232
 3538TIP3   OH232104   6.773   4.201  14.566  0.0273 -0.2859  0.2522
 3538TIP3    H132105   6.785   4.293  14.545 -1.0439 -0.1710  0.0707
 3538TIP3    H232106   6.682   4.195  14.597  1.0841 -0.6565  3.7619
 3539TIP3   OH232107   0.422   4.499  14.652 -0.1046  0.3045  0.2481
 3539TIP3    H132108   0.454   4.546  14.730  1.2506 -0.7498  0.3589
 3539TIP3    H232109   0.471   4.537  14.579  0.7047 -0.6355  0.2876
 3540TIP3   OH232110   5.775   2.497   4.953 -0.1588  0.2513  0.4518
 3540TIP3    H132111   5.776   2.571   5.013  0.9744  0.1682  0.5578
 3540TIP3    H232112   5.847   2.514   4.893 -2.9208  1.8410 -2.8146
 3541TIP3   OH232113   3.593   1.556  11.057  0.0955  0.2393  0.4835
 3541TIP3    H132114   3.513   1.520  11.017 -0.5773  1.7783  0.3996
 3541TIP3    H232115   3.585   1.534  11.150 -0.0984 -0.1707  0.3766
 3542TIP3   OH232116   4.847   6.337   5.689 -0.2191 -0.4223 -1.0264
 3542TIP3    H132117   4.866   6.429   5.704  1.9230 -1.0565  0.9451
 3542TIP3    H232118   4.752   6.331   5.691 -0.3793  1.5423  0.3711
 3543TIP3   OH232119   2.267   5.969   2.369 -0.0411  0.0321  0.2252
 3543TIP3    H132120   2.304   5.921   2.443  0.4883  1.4578  0.9329
 3543TIP3    H232121   2.340   6.023   2.337 -0.8596  1.0826  0.0917
 3544TIP3   OH232122   0.391   5.794   0.664  0.4397  0.2510 -0.3794
 3544TIP3    H132123   0.435   5.807   0.580  0.1862 -1.4761 -0.8237
 3544TIP3    H232124   0.378   5.882   0.699  2.5750  0.8832 -1.0862
 3545TIP3   OH232125   2.529   5.031   1.626 -0.5035  0.2881  0.1677
 3545TIP3    H132126   2.543   4.993   1.712  1.5662 -0.3336 -0.4006
 3545TIP3    H232127   2.441   5.069   1.631 -1.3710 -1.7579  1.7773
 3546TIP3   OH232128   5.683   4.186   2.332 -0.4795 -0.3982  0.0761
 3546TIP3    H132129   5.608   4.153   2.381  0.3314 -0.8915  1.0342
 3546TIP3    H232130   5.751   4.198   2.398 -0.4017  2.2756 -0.3742
 3547TIP3   OH232131   5.175   1.071   1.740 -0.0022  0.5076 -0.3400
 3547TIP3    H132132   5.141   1.032   1.659  1.6853  1.7219 -1.7103
 3547TIP3    H232133   5.254   1.021   1.760  0.1759  0.9077 -0.0380
 3548TIP3   OH232134   6.387   4.222   2.981 -0.4571 -0.7607 -0.1168
 3548TIP3    H132135   6.368   4.184   2.895  0.7156 -0.9142 -0.3327
 3548TIP3    H232136   6.478   4.252   2.974  0.2021 -2.1488  1.5401
 3549TIP3   OH232137   5.133   3.267  10.579 -0.0984 -0.5596  0.8615
 3549TIP3    H132138   5.100   3.181  10.605  1.5685 -1.4004  0.3644
 3549TIP3    H232139   5.094   3.283  10.493 -0.3627 -0.8621  0.9259
 3550TIP3   OH232140   0.209   0.079   0.179 -0.0959 -0.2249  0.3859
 3550TIP3    H132141   0.240   0.136   0.109 -2.2851  0.7154  0.0758
 3550TIP3    H232142   0.132   0.125   0.215  1.1288 -0.4634  3.7001
 3551TIP3   OH232143   0.722   1.677   5.880  0.2410  0.7065  0.7279
 3551TIP3    H132144   0.690   1.705   5.966 -0.8474  1.9360 -0.0298
 3551TIP3    H232145   0.643   1.654   5.832  0.9277 -1.2121  0.4334
 3552TIP3   OH232146   2.837   6.357   6.750  0.2793  1.0405 -0.3374
 3552TIP3    H132147   2.774   6.345   6.822 -1.5244  0.1804 -1.9787
 3552TIP3    H232148   2.821   6.447   6.721 -0.0135  0.9139 -0.5749
 3553TIP3   OH232149   3.568   5.419  12.248  0.2314  0.2133  0.0006
 3553TIP3    H132150   3.529   5.450  12.166  0.3615 -3.5207 -1.6576
 3553TIP3    H232151   3.508   5.449  12.316 -1.5893  0.8044 -1.7657
 3554TIP3   OH232152   3.978   4.397  14.093 -0.5693  0.2685  0.3271
 3554TIP3    H132153   3.981   4.358  14.006  0.9846  0.8968  0.0594
 3554TIP3    H232154   3.892   4.373  14.127 -0.2883 -2.0673 -0.4127
 3555TIP3   OH232155   1.720   0.379   6.846 -0.0705  0.5768  0.3898
 3555TIP3    H132156   1.790   0.321   6.819  0.7399  1.5459  0.3443
 3555TIP3    H232157   1.760   0.437   6.911 -0.6763  1.4693  0.0009
 3556TIP3   OH232158   6.111   1.632  15.003 -0.0066 -0.0629  0.0843
 3556TIP3    H132159   6.057   1.556  14.982 -1.4652  1.0170 -0.2337
 3556TIP3    H232160   6.058   1.707  14.976  1.4540  1.0670  0.2479
 3557TIP3   OH232161   1.964   2.932  12.456 -0.7138 -0.5302 -0.6984
 3557TIP3    H132162   1.999   2.845  12.478 -1.1214 -0.9172 -1.5457
 3557TIP3    H232163   1.958   2.932  12.361 -1.0349  0.3122 -0.6849
 3558TIP3   OH232164   5.684   1.753   4.034  0.3406  0.4764 -0.0489
 3558TIP3    H132165   5.651   1.675   3.990  1.3892  0.4072 -0.7659
 3558TIP3    H232166   5.776   1.759   4.007  0.2447  2.0422 -0.1555
 3559TIP3   OH232167   4.612   5.294   1.146  0.1204  0.0691  0.0964
 3559TIP3    H132168   4.526   5.330   1.123 -0.8868 -1.4804  1.2038
 3559TIP3    H232169   4.646   5.353   1.214 -0.3246  0.3765  0.0538
 3560TIP3   OH232170   1.707   3.932   2.875 -0.1429  0.8157  0.2656
 3560TIP3    H132171   1.748   3.913   2.791  2.4056  0.7126  1.4531
 3560TIP3    H232172   1.681   4.024   2.868 -0.7390  0.5908 -0.8798
 3561TIP3   OH232173   6.674   1.132   5.304 -0.3138  0.6441 -0.5569
 3561TIP3    H132174   6.758   1.100   5.335  0.4996 -1.5922 -4.4360
 3561TIP3    H232175   6.691   1.222   5.276  0.7083  0.3363 -0.9455
 3562TIP3   OH232176   4.413   5.658  15.256 -0.0529  0.4779 -0.3250
 3562TIP3    H132177   4.379   5.714  15.186  1.6223  0.5055 -1.1746
 3562TIP3    H232178   4.507   5.676  15.258  0.3807 -1.4930  0.1047
 3563TIP3   OH232179   2.447   3.341   1.210 -0.1019  0.3560 -0.5499
 3563TIP3    H132180   2.380   3.296   1.159 -0.2136 -1.7115  1.2608
 3563TIP3    H232181   2.519   3.279   1.215  0.1439  0.7194  1.2256
 3564TIP3   OH232182   5.727   5.110   3.410 -0.1868 -0.0325  0.6367
 3564TIP3    H132183   5.678   5.065   3.341  0.4054  2.0338 -1.2377
 3564TIP3    H232184   5.661   5.132   3.476 -0.7525 -2.0923  0.8335
 3565TIP3   OH232185   2.852   3.593   1.656 -0.3358  0.1087  0.4114
 3565TIP3    H132186   2.838   3.498   1.660  0.7249 -0.0045  2.1732
 3565TIP3    H232187   2.766   3.628   1.633 -1.5686 -1.0874  2.8208
 3566TIP3   OH232188   6.086   1.997  14.632 -0.1588 -0.3097  0.3225
 3566TIP3    H132189   6.068   2.089  14.655 -2.4851 -0.7060  0.3206
 3566TIP3    H232190   6.094   1.997  14.537 -1.7427 -0.2940  0.1590
 3567TIP3   OH232191   0.536   5.726   4.186  0.0614  0.1562 -0.1218
 3567TIP3    H132192   0.545   5.694   4.096  0.4420 -0.6353  0.1864
 3567TIP3    H232193   0.611   5.688   4.232  0.2033  1.0440  0.4022
 3568TIP3   OH232194   3.920   5.231  14.012 -0.2011  0.4868 -0.6709
 3568TIP3    H132195   3.950   5.306  14.064  1.4359  1.0836 -2.3895
 3568TIP3    H232196   3.975   5.232  13.934 -0.7654 -1.9888 -1.1797
 3569TIP3   OH232197   4.534   1.929   6.078  0.2679 -0.1571 -0.0898
 3569TIP3    H132198   4.559   1.848   6.122 -2.6477 -0.7815  0.5880
 3569TIP3    H232199   4.464   1.966   6.132  0.8845  2.3975 -0.8677
 3570TIP3   OH232200   5.903   0.015  11.800  0.0328  0.2122 -0.3358
 3570TIP3    H132201   5.898   0.109  11.817  1.2126 -0.1744  2.8101
 3570TIP3    H232202   5.826  -0.021  11.844  0.1566 -0.3956 -0.6133
 3571TIP3   OH232203   3.612   5.003  15.926  0.3679  0.0669  0.0996
 3571TIP3    H132204   3.707   5.006  15.913  0.5186 -2.0240  0.3721
 3571TIP3    H232205   3.590   4.910  15.919 -1.9893  0.6675 -2.1150
 3572TIP3   OH232206   2.120   5.082   6.399  0.4698  0.7861  0.1455
 3572TIP3    H132207   2.199   5.031   6.419  0.3843  0.4750 -0.3076
 3572TIP3    H232208   2.115   5.147   6.470  0.0638 -0.4300  1.2804
 3573TIP3   OH232209   2.031   0.646   2.081  0.1770 -0.4213 -0.0994
 3573TIP3    H132210   1.938   0.643   2.059 -0.1879 -1.3341  1.4597
 3573TIP3    H232211   2.041   0.726   2.133  0.2062 -0.4889 -0.0010
 3574TIP3   OH232212   5.870   4.167   4.629 -0.0236  0.0885 -0.1945
 3574TIP3    H132213   5.883   4.158   4.724  1.0481 -1.7442 -0.4684
 3574TIP3    H232214   5.907   4.253   4.608 -1.0165  0.8816  1.1379
 3575TIP3   OH232215   0.548   1.614  12.260 -0.8814 -0.3463 -0.6075
 3575TIP3    H132216   0.583   1.526  12.271 -1.3703 -0.3816  1.0158
 3575TIP3    H232217   0.611   1.659  12.204 -0.1067 -1.4411 -0.6274
 3576TIP3   OH232218   0.817   5.703   6.414  0.1713 -0.1254 -0.1611
 3576TIP3    H132219   0.879   5.775   6.427 -0.7336  0.2008  3.1565
 3576TIP3    H232220   0.838   5.670   6.326  1.4319  3.3456 -1.3665
 3577TIP3   OH232221   3.038   6.777  12.073  0.6617 -0.3878  0.5671
 3577TIP3    H132222   3.042   6.809  11.983 -1.2046  0.2313  0.6716
 3577TIP3    H232223   3.118   6.810  12.114  0.6071  0.9392 -0.3494
 3578TIP3   OH232224   3.055   3.936  16.434 -0.2376  0.3319 -0.3280
 3578TIP3    H132225   3.061   3.845  16.465  0.0829  0.2913 -0.5085
 3578TIP3    H232226   3.107   3.986  16.497  0.4653  0.2408 -0.8277
 3579TIP3   OH232227   5.295   1.904   2.722  0.6909 -0.3658 -0.3606
 3579TIP3    H132228   5.327   1.899   2.632 -0.8746 -0.6525 -0.9439
 3579TIP3    H232229   5.349   1.841   2.770  1.2630 -0.5325 -1.1981
 3580TIP3   OH232230   5.753   5.746  10.139  0.1528  0.0861  0.0306
 3580TIP3    H132231   5.753   5.672  10.077  1.0888  0.8529 -0.9269
 3580TIP3    H232232   5.794   5.817  10.091 -0.3555  1.1261  1.0883
 3581TIP3   OH232233   1.370   5.487   5.286  0.5581 -0.5318 -0.4626
 3581TIP3    H132234   1.375   5.580   5.264  0.4905 -0.2183  0.8016
 3581TIP3    H232235   1.295   5.455   5.236  0.2654  0.1989 -0.5088
 3582TIP3   OH232236   0.287   5.229   2.427 -0.0612  0.5265 -0.4775
 3582TIP3    H132237   0.292   5.266   2.339  3.1509 -2.9344 -1.9936
 3582TIP3    H232238   0.294   5.135   2.415 -1.1801 -0.2535  3.4494
 3583TIP3   OH232239   3.094   3.065  15.210  0.4034  0.1273  0.2123
 3583TIP3    H132240   3.049   3.143  15.241  0.2257 -0.2775  1.0049
 3583TIP3    H232241   3.146   3.095  15.136 -0.8644  0.6841 -0.4885
 3584TIP3   OH232242   6.351   0.682   4.531  0.2800 -0.1021 -0.0956
 3584TIP3    H132243   6.427   0.712   4.482 -0.2138  1.7072  0.1739
 3584TIP3    H232244   6.387   0.656   4.616  0.8819 -1.5528 -0.7465
 3585TIP3   OH232245   6.740   2.065   0.226  0.1174 -0.0172 -0.3799
 3585TIP3    H132246   6.686   2.143   0.233 -0.2116 -0.2637 -0.1452
 3585TIP3    H232247   6.826   2.091   0.260 -0.3025 -0.0629  0.7367
 3586TIP3   OH232248   5.530   1.456  13.456 -0.5223 -0.1099  0.6717
 3586TIP3    H132249   5.611   1.441  13.408 -1.0814  0.4516 -0.5060
 3586TIP3    H232250   5.558   1.479  13.545  0.6149  0.2664  0.2349
 3587TIP3   OH232251   3.970   5.419  11.733 -0.1998 -1.1640 -0.0191
 3587TIP3    H132252   3.939   5.426  11.824  0.2231  0.8744  0.0175
 3587TIP3    H232253   4.064   5.403  11.742 -0.0659 -0.4493 -0.0719
 3588TIP3   OH232254   2.007   6.027   1.787 -0.2253  0.7078 -0.1419
 3588TIP3    H132255   2.078   5.979   1.829 -1.4418  0.8592  2.2401
 3588TIP3    H232256   1.961   5.960   1.735 -1.1528 -0.5694  2.1509
 3589TIP3   OH232257   1.969   1.820   2.005 -0.0777  0.0059 -0.8062
 3589TIP3    H132258   2.047   1.812   2.060 -0.8777  2.9681  1.0191
 3589TIP3    H232259   1.901   1.776   2.054 -0.1620  0.0194 -0.9116
 3590TIP3   OH232260   5.957   6.581  16.302  0.3720 -0.5394  0.2152
 3590TIP3    H132261   5.885   6.576  16.239 -0.9078  0.3699  1.5276
 3590TIP3    H232262   6.032   6.543  16.257 -0.5790 -0.2233 -1.7160
 3591TIP3   OH232263   2.467   1.995  17.217  0.0855  0.0775  0.9250
 3591TIP3    H132264   2.560   2.013  17.203 -0.0719  0.6852  0.6271
 3591TIP3    H232265   2.466   1.919  17.276  0.8027  1.1956  2.4621
 3592TIP3   OH232266   0.892   1.195   5.159  0.2392  0.5895 -0.3333
 3592TIP3    H132267   0.835   1.232   5.227  0.9614  0.1133  0.5597
 3592TIP3    H232268   0.922   1.112   5.196  1.4246  0.7813 -0.8211
 3593TIP3   OH232269   1.237   6.686  12.364  0.3311 -0.9578  0.1139
 3593TIP3    H132270   1.173   6.620  12.338 -1.6406  0.8747  0.1265
 3593TIP3    H232271   1.201   6.769  12.334  2.3538  0.2514  0.7933
 3594TIP3   OH232272   1.322   5.985  16.456 -0.5932  0.5052  0.7271
 3594TIP3    H132273   1.286   6.068  16.488 -0.7213  0.3137  1.0859
 3594TIP3    H232274   1.259   5.919  16.486 -0.0814  0.1958  1.1226
 3595TIP3   OH232275   2.595   1.449   5.867  0.9365 -0.2536  0.9981
 3595TIP3    H132276   2.556   1.492   5.943 -0.4496 -0.0680  0.2242
 3595TIP3    H232277   2.555   1.362   5.865 -0.4412  0.3463 -0.4733
 3596TIP3   OH232278   1.375   1.370  12.230 -0.0579  0.2078  0.0169
 3596TIP3    H132279   1.280   1.372  12.229 -0.1096 -0.8888  0.7245
 3596TIP3    H232280   1.397   1.289  12.275  1.2017  1.4654  1.8311
 3597TIP3   OH232281   5.436   6.342  16.815  0.3847 -0.0438  0.0276
 3597TIP3    H132282   5.350   6.382  16.826 -0.7880 -1.6417 -2.5485
 3597TIP3    H232283   5.420   6.248  16.810  2.6627 -0.6770  2.3115
 3598TIP3   OH232284   5.067   0.347  11.432 -0.3683  0.0725  0.1849
 3598TIP3    H132285   5.152   0.375  11.400 -0.6467  1.1715  0.3656
 3598TIP3    H232286   5.078   0.339  11.527 -0.5259  0.4562  0.2374
 3599TIP3   OH232287   3.451   1.109   5.698 -0.0352  0.0250 -0.4011
 3599TIP3    H132288   3.425   1.177   5.635  0.8326  0.7305 -0.0281
 3599TIP3    H232289   3.457   1.156   5.781  2.1052 -0.1489 -0.4218
 3600TIP3   OH232290   0.529   6.509  15.828  0.6458 -0.3133 -0.1286
 3600TIP3    H132291   0.474   6.431  15.823  1.5187 -0.8807 -1.3599
 3600TIP3    H232292   0.479   6.577  15.782  0.9881 -0.8573 -1.3467
 3601TIP3   OH232293   3.461   0.456   2.914  0.3288 -0.3301  0.0411
 3601TIP3    H132294   3.487   0.407   2.836  0.8151  0.4986 -0.3315
 3601TIP3    H232295   3.543   0.471   2.962 -0.1726 -2.4358  1.6999
 3602TIP3   OH232296   5.005   1.563  10.959 -0.4715 -0.0275  0.2682
 3602TIP3    H132297   4.971   1.645  10.923  0.1997  0.1395  0.0100
 3602TIP3    H232298   5.049   1.521  10.884  0.9946  0.3460  0.8903
 3603TIP3   OH232299   2.026   5.736   1.240  0.1065 -0.5236  0.0618
 3603TIP3    H132300   2.049   5.807   1.299 -0.1884 -0.8609  0.5908
 3603TIP3    H232301   2.067   5.659   1.279 -1.0476 -0.9515  0.4598
 3604TIP3   OH232302   6.079   5.605   5.383  0.3460 -0.2935 -0.4358
 3604TIP3    H132303   6.027   5.581   5.461  1.4556 -0.7955  0.1789
 3604TIP3    H232304   6.135   5.676   5.413 -1.4352  1.7545 -1.6846
 3605TIP3   OH232305   5.267   6.636   2.078 -0.0552  0.0398  0.4637
 3605TIP3    H132306   5.342   6.691   2.097  0.3784 -0.5676  0.5226
 3605TIP3    H232307   5.230   6.673   1.998  0.5843  0.0603  0.1719
 3606TIP3   OH232308   6.718   2.689   3.629 -0.4438 -0.0044  0.5397
 3606TIP3    H132309   6.626   2.681   3.654 -0.6193 -0.0163 -0.0754
 3606TIP3    H232310   6.726   2.633   3.551 -0.0826  0.5212  0.1912
 3607TIP3   OH232311   5.608   6.431  14.218  0.1966 -0.0601 -0.0590
 3607TIP3    H132312   5.633   6.401  14.305 -3.2974  0.3020  1.2431
 3607TIP3    H232313   5.624   6.356  14.160  2.0010 -0.5063  0.9657
 3608TIP3   OH232314   3.175   5.454  11.176  0.1698  0.4772 -0.0050
 3608TIP3    H132315   3.142   5.543  11.191  2.2502  1.3801 -0.3110
 3608TIP3    H232316   3.250   5.467  11.117 -0.4474 -1.6699 -1.3734
 3609TIP3   OH232317   6.704   6.748  14.130  0.1467 -0.5213  0.2435
 3609TIP3    H132318   6.612   6.724  14.147 -0.2005  0.2957 -0.4494
 3609TIP3    H232319   6.747   6.664  14.114 -0.9122 -0.7917 -1.4515
 3610TIP3   OH232320   1.053   0.822  14.451 -0.1708  0.7276  0.0846
 3610TIP3    H132321   1.126   0.759  14.457  0.6746  1.5878 -0.6964
 3610TIP3    H232322   1.089   0.895  14.400 -1.8172  0.8445 -0.9966
 3611TIP3   OH232323   3.264   6.152  13.994 -0.1647  0.4002  0.4926
 3611TIP3    H132324   3.191   6.175  13.936  0.6303  0.5441 -0.4802
 3611TIP3    H232325   3.342   6.174  13.944  0.5691 -0.5462  1.1857
 3612TIP3   OH232326   1.416   3.849   1.499  0.6122 -0.3720 -0.3332
 3612TIP3    H132327   1.468   3.845   1.419  0.6456  0.2806 -0.3532
 3612TIP3    H232328   1.478   3.833   1.570  0.5277 -1.2519 -0.4471
 3613TIP3   OH232329   6.459   2.243   5.545  0.4642  0.0693 -0.6462
 3613TIP3    H132330   6.516   2.272   5.474  1.2886 -0.1218 -0.0783
 3613TIP3    H232331   6.514   2.185   5.597 -0.6632 -1.2042 -0.8352
 3614TIP3   OH232332   3.372   1.319  11.307 -0.9037  0.1931  0.5366
 3614TIP3    H132333   3.319   1.391  11.343 -0.4981  1.4269 -1.2411
 3614TIP3    H232334   3.379   1.338  11.214 -0.2480 -1.8464  0.1149
 3615TIP3   OH232335   5.792   6.270   4.340  0.0448  0.6395  0.4135
 3615TIP3    H132336   5.870   6.323   4.324 -0.5489  1.6625  0.8729
 3615TIP3    H232337   5.748   6.312   4.413 -0.1164 -0.8665  1.2125
 3616TIP3   OH232338   3.253   1.127   1.914 -0.6834 -0.1271 -0.1089
 3616TIP3    H132339   3.221   1.041   1.940  0.0120 -0.2295  0.4320
 3616TIP3    H232340   3.201   1.150   1.836  0.4310 -1.8723 -1.4483
 3617TIP3   OH232341   0.432   3.972   3.470 -0.5130 -0.3546 -0.1236
 3617TIP3    H132342   0.356   3.969   3.527 -0.0072 -2.8038  0.5537
 3617TIP3    H232343   0.476   4.055   3.491 -0.7149 -0.8462  2.5777
 3618TIP3   OH232344   5.998   5.028  11.632  0.0103 -0.8082  0.0394
 3618TIP3    H132345   6.015   4.937  11.609  3.1933  0.1259 -1.9561
 3618TIP3    H232346   5.997   5.028  11.728  2.2917 -2.6554  0.1658
 3619TIP3   OH232347   2.952   2.721  13.191 -0.6124 -0.6115  0.1551
 3619TIP3    H132348   2.975   2.686  13.105  3.8538  1.1618  0.3292
 3619TIP3    H232349   2.967   2.647  13.251  0.5321 -0.7513 -0.2648
 3620TIP3   OH232350   2.483   3.184   4.743 -0.0807  0.0498 -0.0795
 3620TIP3    H132351   2.453   3.270   4.772 -0.5308  0.2525 -1.1026
 3620TIP3    H232352   2.508   3.139   4.824  0.4707  1.2484  0.4371
 3621TIP3   OH232353   4.341   2.790   4.943  0.6739 -0.3250  0.4078
 3621TIP3    H132354   4.250   2.779   4.916  0.1088  0.0667  2.0132
 3621TIP3    H232355   4.387   2.716   4.904  0.1371  0.6376 -2.2335
 3622TIP3   OH232356   3.097   5.362  15.709  0.0894  0.1436 -0.0257
 3622TIP3    H132357   3.190   5.383  15.711 -0.5886  3.8495 -0.5589
 3622TIP3    H232358   3.053   5.446  15.720 -3.2322 -1.3613 -0.5575
 3623TIP3   OH232359   5.310   1.758  12.737  0.2111  0.5357  0.5439
 3623TIP3    H132360   5.373   1.692  12.709  1.0871  1.2744  0.7377
 3623TIP3    H232361   5.233   1.708  12.764 -0.0316 -0.3007 -1.5132
 3624TIP3   OH232362   6.304   6.557  15.887  0.3026  0.4006  0.2348
 3624TIP3    H132363   6.261   6.620  15.944 -1.0108 -1.0695  0.9332
 3624TIP3    H232364   6.238   6.533  15.822  0.3623 -1.0680  0.6627
 3625TIP3   OH232365   2.194   4.858  12.253 -0.7960  0.3306 -0.8282
 3625TIP3    H132366   2.287   4.840  12.244 -0.2764  1.5091  1.5944
 3625TIP3    H232367   2.177   4.927  12.189 -0.4045 -0.9431 -2.3772
 3626TIP3   OH232368   3.402   2.951   2.260 -0.3477 -0.1026  0.3512
 3626TIP3    H132369   3.385   3.045   2.258  0.9201  0.1317 -0.3365
 3626TIP3    H232370   3.357   2.917   2.182 -0.8576 -0.0929  0.6327
 3627TIP3   OH232371   6.278   4.028  15.430 -0.0711  0.4766  0.1008
 3627TIP3    H132372   6.211   3.960  15.418  1.4676 -1.6638  2.4697
 3627TIP3    H232373   6.279   4.043  15.525 -1.3058  5.0393 -0.3545
 3628TIP3   OH232374   3.795   1.859   1.185 -0.1204 -0.2315 -0.6624
 3628TIP3    H132375   3.773   1.782   1.237 -0.6618  1.0761  1.1619
 3628TIP3    H232376   3.891   1.860   1.182 -0.0693 -0.3223  0.3966
 3629TIP3   OH232377   4.517   6.791  16.697  0.4585  0.1610  0.3856
 3629TIP3    H132378   4.549   6.709  16.735  0.2356 -0.3806 -0.5610
 3629TIP3    H232379   4.460   6.828  16.765  0.7154 -0.3599  0.8995
 3630TIP3   OH232380   3.155   0.913  13.067  0.2637  0.2621 -0.1899
 3630TIP3    H132381   3.218   0.852  13.107  1.2443  1.2192 -0.2176
 3630TIP3    H232382   3.105   0.947  13.141  0.4314  0.2257 -0.0600
 3631TIP3   OH232383   0.903   4.061   1.001 -0.0624 -0.3045 -0.0298
 3631TIP3    H132384   0.822   4.082   0.953 -1.5790 -2.1105  1.5385
 3631TIP3    H232385   0.970   4.116   0.961 -1.6101 -0.2684 -2.8688
 3632TIP3   OH232386   3.665   3.294   4.560  0.3796  0.1955 -0.1465
 3632TIP3    H132387   3.613   3.365   4.598  0.2930 -0.2346  0.5588
 3632TIP3    H232388   3.753   3.330   4.552 -0.2331  1.3781 -2.5449
 3633TIP3   OH232389   6.766   2.953  12.099  0.5028 -0.2336  0.1081
 3633TIP3    H132390   6.754   2.909  12.015  1.3132 -0.5941  0.1702
 3633TIP3    H232391   6.860   2.972  12.103  0.7891 -1.6972  1.6421
 3634TIP3   OH232392   3.418   6.808   3.832 -0.0550 -0.7314 -0.2016
 3634TIP3    H132393   3.485   6.844   3.890 -0.6276 -0.2654  0.1850
 3634TIP3    H232394   3.422   6.713   3.847  0.2509 -0.6730  0.1125
 3635TIP3   OH232395   5.528   0.764   1.461  0.2865  0.1808  0.4157
 3635TIP3    H132396   5.569   0.739   1.544  1.5935  1.2076  0.1253
 3635TIP3    H232397   5.565   0.850   1.442  0.5350 -0.3341 -1.5788
 3636TIP3   OH232398   3.212   3.242  13.682  0.3539 -0.2670  0.3891
 3636TIP3    H132399   3.159   3.237  13.603  2.3886  0.3608 -1.0939
 3636TIP3    H232400   3.202   3.332  13.713 -0.8974 -0.6719  1.2080
 3637TIP3   OH232401   5.325   3.399   0.616 -0.2673 -0.1165  0.2042
 3637TIP3    H132402   5.332   3.376   0.709  0.0158 -0.2264  0.1552
 3637TIP3    H232403   5.349   3.491   0.611  1.6784 -0.5935 -0.0272
 3638TIP3   OH232404   5.417   0.306   1.508 -0.0476 -0.5914  0.1680
 3638TIP3    H132405   5.511   0.314   1.524 -0.1295  1.7777 -0.1558
 3638TIP3    H232406   5.411   0.267   1.421  0.7664  1.3762 -0.8560
 3639TIP3   OH232407   1.598   5.973  12.677 -0.3472  0.1313  0.4242
 3639TIP3    H132408   1.651   5.971  12.598  1.3507  0.3857  1.4964
 3639TIP3    H232409   1.545   5.894  12.673  1.1714 -0.9082 -0.0234
 3640TIP3   OH232410   2.822   1.844  15.911  0.7012 -0.4892 -0.4196
 3640TIP3    H132411   2.803   1.784  15.839 -0.5542 -0.8933  0.2065
 3640TIP3    H232412   2.796   1.930  15.879  1.0285 -0.5189 -0.7703
 3641TIP3   OH232413   5.594   4.473  16.116  0.3910 -0.2445 -0.2416
 3641TIP3    H132414   5.539   4.502  16.044 -0.0747  0.8588  0.5353
 3641TIP3    H232415   5.586   4.377  16.115  0.8596 -0.2879 -1.9858
 3642TIP3   OH232416   0.558   1.163  15.713 -0.5618  0.4205 -0.0745
 3642TIP3    H132417   0.621   1.141  15.644 -0.3261 -0.1419  0.3059
 3642TIP3    H232418   0.586   1.248  15.745 -0.0097  0.1930  0.0627
 3643TIP3   OH232419   1.599   0.746   0.348  0.1141 -0.2759  0.2140
 3643TIP3    H132420   1.559   0.822   0.305  1.5305  0.3998  0.0467
 3643TIP3    H232421   1.626   0.689   0.277  1.1356  0.1615  0.2312
 3644TIP3   OH232422   4.376   6.136  11.318  0.1360 -0.0151 -0.3960
 3644TIP3    H132423   4.404   6.087  11.395  0.3678 -1.0002 -1.0868
 3644TIP3    H232424   4.329   6.212  11.353 -0.5410 -0.9092  0.6953
 3645TIP3   OH232425   5.578   5.816  12.201 -0.2643 -0.4053 -0.0695
 3645TIP3    H132426   5.575   5.793  12.108 -0.9394  0.7320 -0.3419
 3645TIP3    H232427   5.507   5.765  12.241  0.2800 -1.1999 -0.0910
 3646TIP3   OH232428   0.748   4.634  15.939 -0.3643  0.2136  0.5120
 3646TIP3    H132429   0.739   4.655  15.846  1.2909  1.1232  0.5154
 3646TIP3    H232430   0.843   4.635  15.954 -0.5253 -1.4040  1.8858
 3647TIP3   OH232431   4.393   5.922  12.785  0.5605 -0.1401  0.0474
 3647TIP3    H132432   4.374   5.830  12.803  0.1873 -0.0512  0.1067
 3647TIP3    H232433   4.387   5.930  12.690  0.5898 -0.1754  0.0426
 3648TIP3   OH232434   5.697   0.177   1.740  0.2109  0.4120 -0.5987
 3648TIP3    H132435   5.774   0.123   1.722 -1.8191 -1.4953 -4.8912
 3648TIP3    H232436   5.691   0.235   1.664 -1.1270  2.5338  1.0069
 3649TIP3   OH232437   4.027   6.463  14.468 -0.4128 -0.8096  0.0468
 3649TIP3    H132438   4.028   6.532  14.534 -1.6440 -1.9197  1.2730
 3649TIP3    H232439   4.100   6.485  14.410 -2.6506  3.4308 -1.6672
 3650TIP3   OH232440   5.378   5.372  16.553 -0.0985 -0.3256  0.6100
 3650TIP3    H132441   5.333   5.309  16.610 -2.3816  1.1793  0.5858
 3650TIP3    H232442   5.396   5.447  16.609 -1.2818  0.6816 -0.2902
 3651TIP3   OH232443   5.484   3.350  13.822 -0.4998 -0.7827 -0.3015
 3651TIP3    H132444   5.501   3.402  13.744  1.1057  2.1967  1.8215
 3651TIP3    H232445   5.400   3.381  13.854  0.1323  0.0690  0.5926
 3652TIP3   OH232446   0.873   0.036   5.181  0.9292  0.5245  0.0592
 3652TIP3    H132447   0.790   0.021   5.225 -0.7653  0.7018 -2.8495
 3652TIP3    H232448   0.888   0.130   5.188  0.9198  0.4900  0.5962
 3653TIP3   OH232449   1.746   5.282  14.889  0.1270 -0.0775  0.1133
 3653TIP3    H132450   1.715   5.229  14.962 -1.0935  1.1367  0.5253
 3653TIP3    H232451   1.671   5.336  14.865  0.7469  0.1016 -1.5439
 3654TIP3   OH232452   3.283   4.188  13.072 -0.7442  0.0585  0.3914
 3654TIP3    H132453   3.273   4.095  13.095  0.6878 -0.3992 -0.7098
 3654TIP3    H232454   3.331   4.226  13.146  0.4154 -0.5355 -0.0374
 3655TIP3   OH232455   6.265   2.982   4.727 -0.0614 -0.2643  0.0126
 3655TIP3    H132456   6.340   2.965   4.784 -0.7860 -0.4193  0.9579
 3655TIP3    H232457   6.294   2.958   4.639  1.5881  1.3976  0.0515
 3656TIP3   OH232458   6.532   1.855  17.152  0.5372 -0.5488 -0.3956
 3656TIP3    H132459   6.498   1.798  17.222 -0.4469 -1.2743 -1.4322
 3656TIP3    H232460   6.457   1.907  17.125  1.2683  0.7813  0.0586
 3657TIP3   OH232461   1.000   1.209  11.330  0.6501 -0.4127 -0.2592
 3657TIP3    H132462   1.038   1.152  11.397 -0.5109 -0.6660  0.2086
 3657TIP3    H232463   0.920   1.242  11.370  0.3669  0.0912 -1.2238
 3658TIP3   OH232464   0.207   5.073  11.399 -0.0929  0.0046 -0.0045
 3658TIP3    H132465   0.216   5.064  11.494 -1.8219  0.3814  0.2149
 3658TIP3    H232466   0.257   5.151  11.377 -0.3589  0.3793  0.7097
 3659TIP3   OH232467   6.513   4.910  13.401  0.0472  0.6951  0.4192
 3659TIP3    H132468   6.608   4.916  13.396  0.0684  1.2770  1.2730
 3659TIP3    H232469   6.485   4.997  13.430 -0.8102  0.7661 -0.5785
 3660TIP3   OH232470   4.148   2.119  15.591 -1.1613 -0.2249 -0.4532
 3660TIP3    H132471   4.076   2.150  15.646 -1.9180 -0.6388 -1.1836
 3660TIP3    H232472   4.127   2.027  15.576 -1.4993  0.1109 -2.2274
 3661TIP3   OH232473   3.566   1.085   2.367  0.4093  0.3714  0.4240
 3661TIP3    H132474   3.655   1.107   2.397  0.1887 -1.0055  2.2482
 3661TIP3    H232475   3.564   0.990   2.368 -1.0296  0.3915  0.2098
 3662TIP3   OH232476   2.718   0.734  15.447  0.0634  0.0295  0.2116
 3662TIP3    H132477   2.676   0.649  15.436 -0.1682  0.0495  0.9164
 3662TIP3    H232478   2.800   0.715  15.493  0.0359  0.1772  0.3256
 3663TIP3   OH232479   0.441   0.810  15.884  0.5298 -0.1559 -0.5190
 3663TIP3    H132480   0.523   0.857  15.897 -0.3516  1.3236 -0.0665
 3663TIP3    H232481   0.380   0.875  15.849 -0.9309 -0.7637  0.7478
 3664TIP3   OH232482   0.644   3.851  14.134 -0.2429  0.5568  0.0249
 3664TIP3    H132483   0.677   3.882  14.218  1.3278 -0.7109 -0.0670
 3664TIP3    H232484   0.662   3.757  14.134 -1.4342  0.2946 -1.1904
 3665TIP3   OH232485   6.811   5.217   0.961 -0.2562  0.2052 -0.7308
 3665TIP3    H132486   6.818   5.294   1.018  1.7506  0.4911 -1.3101
 3665TIP3    H232487   6.898   5.206   0.924 -0.1042 -3.0878  0.2657
 3666TIP3   OH232488   0.542   2.938   3.504 -0.1580  0.4163 -0.7298
 3666TIP3    H132489   0.528   3.015   3.559  1.7526 -0.0427  0.4665
 3666TIP3    H232490   0.468   2.939   3.443 -2.4302  0.8949  1.8550
 3667TIP3   OH232491   3.648   4.036   2.777  0.4680 -0.6821 -0.7239
 3667TIP3    H132492   3.556   4.014   2.792  0.2253 -0.2025 -1.4283
 3667TIP3    H232493   3.672   3.987   2.698  0.8934 -1.0022 -0.3988
 3668TIP3   OH232494   0.672   6.335   0.615 -0.8825 -0.3341 -0.0399
 3668TIP3    H132495   0.766   6.339   0.597 -0.2885 -1.3167  2.3592
 3668TIP3    H232496   0.662   6.372   0.703 -2.2208 -2.9683  1.0692
 3669TIP3   OH232497   1.129   1.787   1.902 -0.1877 -0.5719 -0.3722
 3669TIP3    H132498   1.141   1.825   1.815  0.2978 -1.4875 -0.7232
 3669TIP3    H232499   1.128   1.692   1.886  1.7011 -0.8400  0.8074
 3670TIP3   OH232500   6.303   2.795  15.336 -0.2292 -0.2733 -0.0514
 3670TIP3    H132501   6.299   2.783  15.431 -1.1334  0.5303  0.0258
 3670TIP3    H232502   6.395   2.779  15.314  0.0767 -0.0900  1.0118
 3671TIP3   OH232503   1.870   2.467  14.296 -0.1667  0.4255  0.3947
 3671TIP3    H132504   1.798   2.530  14.302 -0.5150  0.0389  0.3472
 3671TIP3    H232505   1.827   2.381  14.303  0.3712  0.2076  1.1364
 3672TIP3   OH232506   4.122   4.860   6.574  0.1228  0.8692 -0.2471
 3672TIP3    H132507   4.111   4.946   6.615  0.4269  1.5848 -1.5999
 3672TIP3    H232508   4.191   4.818   6.624 -0.0221  1.4152  0.4267
 3673TIP3   OH232509   0.919   0.343  16.437  0.1140 -0.0078  0.1046
 3673TIP3    H132510   0.827   0.332  16.414  0.5066  1.1918 -2.3650
 3673TIP3    H232511   0.968   0.300  16.367  1.5199 -1.9314  2.1156
 3674TIP3   OH232512   6.151   1.500   3.195  0.5188  0.4745  0.6908
 3674TIP3    H132513   6.063   1.503   3.232  0.4051  0.1739  0.4436
 3674TIP3    H232514   6.177   1.408   3.200  0.5937  0.4710  0.2342
 3675TIP3   OH232515   5.698   0.743   3.581  0.0925 -0.4945  0.0448
 3675TIP3    H132516   5.784   0.730   3.543 -0.7468  0.4394 -2.3536
 3675TIP3    H232517   5.638   0.746   3.506 -2.0431 -1.0636  1.6040
 3676TIP3   OH232518   2.172   2.390  13.095  0.0317 -0.0260 -0.1799
 3676TIP3    H132519   2.077   2.390  13.085 -0.1089 -0.3467  1.0181
 3676TIP3    H232520   2.193   2.480  13.119  0.0274  0.0407 -0.4264
 3677TIP3   OH232521   0.544   0.084  13.069 -0.3897  0.2585  0.2932
 3677TIP3    H132522   0.633   0.119  13.065 -0.1553 -0.3702 -0.4000
 3677TIP3    H232523   0.508   0.117  13.151  0.3345  0.8691  0.3768
 3678TIP3   OH232524   2.749   3.212  15.205 -0.3381 -0.2660  0.1648
 3678TIP3    H132525   2.702   3.135  15.172 -1.6287  0.1982  0.8571
 3678TIP3    H232526   2.749   3.273  15.131 -0.2981 -0.5118 -0.0370
 3679TIP3   OH232527   1.736   6.749   0.465  0.2289 -0.2560 -0.3822
 3679TIP3    H132528   1.714   6.838   0.490  0.1028 -1.1062  2.9740
 3679TIP3    H232529   1.707   6.695   0.539 -0.4074 -3.2093 -2.5860
 3680TIP3   OH232530   2.523   2.620   6.856  0.0335  0.0369  0.0685
 3680TIP3    H132531   2.590   2.667   6.807  0.9274 -1.5219 -0.2709
 3680TIP3    H232532   2.440   2.658   6.826  0.7243  1.8013  0.2933
 3681TIP3   OH232533   3.189   5.799  12.244  0.0440  0.1682  0.5091
 3681TIP3    H132534   3.239   5.739  12.189 -0.9981 -1.4509  1.2499
 3681TIP3    H232535   3.253   5.838  12.303  0.8215  0.2207 -0.3568
 3682TIP3   OH232536   1.064   2.239  13.314 -0.3938  0.3311 -0.0043
 3682TIP3    H132537   1.038   2.305  13.379 -0.9125  1.0591 -0.9202
 3682TIP3    H232538   1.141   2.277  13.272  0.1642 -0.3070  0.4211
 3683TIP3   OH232539   1.058   1.919   4.954  0.1343 -0.3589 -0.5667
 3683TIP3    H132540   1.147   1.893   4.978 -0.1857  0.4319  1.7527
 3683TIP3    H232541   1.014   1.838   4.930  1.7065 -0.6533 -2.8014
 3684TIP3   OH232542   2.262   5.253   4.440  0.0965  0.0478  0.0323
 3684TIP3    H132543   2.341   5.272   4.389 -0.2732  1.0280 -0.1928
 3684TIP3    H232544   2.190   5.285   4.386 -0.2984  1.2299  1.2195
 3685TIP3   OH232545   1.086   2.195   0.280 -0.1469  0.2134  0.2013
 3685TIP3    H132546   1.116   2.168   0.192 -0.6834 -0.8497  0.3252
 3685TIP3    H232547   1.085   2.113   0.330 -0.2680  0.7463  1.0801
 3686TIP3   OH232548   6.130   0.093  11.563  0.2315 -0.3122  0.3286
 3686TIP3    H132549   6.055   0.058  11.611  0.7993 -0.6484  0.9829
 3686TIP3    H232550   6.149   0.176  11.608 -0.5969  0.4653 -0.7030
 3687TIP3   OH232551   2.077   0.448  13.052 -0.0644  0.1059  0.3047
 3687TIP3    H132552   2.107   0.494  12.974 -0.1670 -1.2039 -0.5373
 3687TIP3    H232553   2.011   0.386  13.020 -0.3348 -0.2470  1.4742
 3688TIP3   OH232554   4.123   5.119  13.380 -0.3896 -0.0265 -0.8006
 3688TIP3    H132555   4.148   5.207  13.406  0.2168 -0.3699 -0.2045
 3688TIP3    H232556   4.198   5.085  13.331 -1.2053  0.3208 -2.3612
 3689TIP3   OH232557   1.910   0.882  11.810 -0.2889  0.0940 -0.1750
 3689TIP3    H132558   1.964   0.955  11.840 -0.3433  0.0409  0.0482
 3689TIP3    H232559   1.824   0.898  11.848  0.1976 -1.1679  1.5881
 3690TIP3   OH232560   1.261   1.822  16.062 -0.9551 -0.0887 -0.3698
 3690TIP3    H132561   1.268   1.790  16.152 -0.9302  2.7706  0.7448
 3690TIP3    H232562   1.325   1.770  16.013  1.3728  0.3516  1.9429
 3691TIP3   OH232563   1.644   5.762  13.851 -0.1754  0.5107  0.2146
 3691TIP3    H132564   1.723   5.708  13.858  0.6230  1.7162  0.8224
 3691TIP3    H232565   1.617   5.754  13.760  1.2935  0.9612 -0.2793
 3692TIP3   OH232566   3.952   2.205  16.654  0.2226  0.0424 -0.0375
 3692TIP3    H132567   3.960   2.110  16.642 -1.9679 -0.1541 -0.4203
 3692TIP3    H232568   3.866   2.216  16.695  1.2152  1.7629  1.7094
 3693TIP3   OH232569   3.319   2.201  13.708  0.3643 -0.0297  0.1821
 3693TIP3    H132570   3.354   2.191  13.619  0.8493  1.5236  0.1695
 3693TIP3    H232571   3.276   2.287  13.707  0.1993 -0.0830  1.3903
 3694TIP3   OH232572   3.393   6.589   1.529  0.0745 -0.0540 -0.2370
 3694TIP3    H132573   3.451   6.578   1.604 -1.4465  0.5524  1.1061
 3694TIP3    H232574   3.411   6.678   1.498  0.3198 -0.1043 -0.2406
 3695TIP3   OH232575   0.119   2.686  10.568 -0.8039  0.5886 -0.2911
 3695TIP3    H132576   0.139   2.604  10.614 -2.7434 -0.5883 -1.4140
 3695TIP3    H232577   0.052   2.728  10.622  0.6017  1.7968  0.5924
 3696TIP3   OH232578   2.286   2.434  13.924 -0.0162  0.1551  0.0582
 3696TIP3    H132579   2.199   2.470  13.906  0.3653  1.0275 -0.0925
 3696TIP3    H232580   2.292   2.357  13.868  0.3854  1.7017 -2.1581
 3697TIP3   OH232581   4.946   0.284  15.570 -0.4019 -0.3172 -0.1026
 3697TIP3    H132582   4.957   0.209  15.628  1.8438  1.2441  1.7108
 3697TIP3    H232583   4.881   0.256  15.505 -1.9113 -2.7179  2.2401
 3698TIP3   OH232584   2.756   2.942   5.163 -0.3212 -0.1260  0.3245
 3698TIP3    H132585   2.767   2.960   5.070 -1.2033 -0.6079  0.1113
 3698TIP3    H232586   2.726   3.025   5.201 -0.6816 -0.1220  0.0393
 3699TIP3   OH232587   1.069   5.992   4.017 -0.6996  0.3288 -0.2962
 3699TIP3    H132588   1.006   6.050   3.974  1.0503  1.9080 -0.8779
 3699TIP3    H232589   1.131   5.968   3.948 -1.2178 -2.0762  0.0020
 3700TIP3   OH232590   3.722   2.294   0.576 -0.3571 -0.0121  0.5936
 3700TIP3    H132591   3.767   2.348   0.642 -0.8751 -0.0202  0.9568
 3700TIP3    H232592   3.691   2.218   0.625 -1.2559  0.2614  0.4679
 3701TIP3   OH232593   0.649   3.568  14.155 -0.1962 -0.1823  0.5655
 3701TIP3    H132594   0.647   3.530  14.068 -1.5321 -0.1743  0.5787
 3701TIP3    H232595   0.729   3.533  14.195 -0.3192 -1.3229 -0.1492
 3702TIP3   OH232596   3.097   5.884   5.970  0.2160 -0.3718 -0.0908
 3702TIP3    H132597   3.004   5.864   5.959  0.6014 -2.6704  0.2346
 3702TIP3    H232598   3.125   5.914   5.884 -0.7154 -0.1356 -0.3255
 3703TIP3   OH232599   0.464   3.112  16.680 -0.3065  0.0633 -0.1371
 3703TIP3    H132600   0.421   3.194  16.657 -0.6448 -0.0044  0.2461
 3703TIP3    H232601   0.491   3.075  16.597 -2.0623 -0.4939 -0.4925
 3704TIP3   OH232602   0.526   2.402  14.344  0.1668  0.4373 -0.2487
 3704TIP3    H132603   0.509   2.364  14.258 -0.2129  1.9343 -0.8715
 3704TIP3    H232604   0.607   2.452  14.332  0.1662  0.5758  0.2941
 3705TIP3   OH232605   5.266   2.742  11.310 -0.6228  0.9459 -0.3926
 3705TIP3    H132606   5.258   2.837  11.313 -0.8303  0.9143  0.8085
 3705TIP3    H232607   5.207   2.715  11.240 -0.6927  1.6909 -0.6261
 3706TIP3   OH232608   3.554   5.844  10.511 -0.2757 -0.1139 -0.7307
 3706TIP3    H132609   3.513   5.921  10.472 -2.0425 -0.0000  1.1871
 3706TIP3    H232610   3.646   5.868  10.522 -0.3719  0.9418 -1.9702
 3707TIP3   OH232611   2.998   6.349  13.765 -0.2179 -0.0256 -0.1918
 3707TIP3    H132612   3.035   6.437  13.776 -0.4561 -0.0257  0.6560
 3707TIP3    H232613   3.059   6.304  13.707  0.1813  0.5358 -0.2103
 3708TIP3   OH232614   1.419   3.309  15.941  0.1870  0.0782 -0.1640
 3708TIP3    H132615   1.379   3.354  15.867  1.3217  2.4406  0.5377
 3708TIP3    H232616   1.366   3.334  16.017  0.9595  0.4238  0.2760
 3709TIP3   OH232617   3.119   0.571   1.327 -0.1706  0.5582  0.2026
 3709TIP3    H132618   3.043   0.514   1.338 -0.8960  0.9192 -2.4123
 3709TIP3    H232619   3.189   0.527   1.376 -1.4061 -1.0690  0.6051
 3710TIP3   OH232620   3.133   0.502  12.385 -0.0663 -0.2404  0.5181
 3710TIP3    H132621   3.135   0.586  12.341 -0.3405  0.8602  2.5031
 3710TIP3    H232622   3.053   0.504  12.438 -0.0822 -1.7495  0.5998
 3711TIP3   OH232623   3.182   4.102   4.869  0.1882  0.2666 -0.0052
 3711TIP3    H132624   3.163   4.181   4.920  0.8478 -0.2438  1.0624
 3711TIP3    H232625   3.276   4.087   4.881  0.0230 -0.8223  0.0042
 3712TIP3   OH232626   1.211   4.727  11.625 -0.7084  0.3390 -0.7677
 3712TIP3    H132627   1.218   4.641  11.582 -2.4746 -1.0962  1.5831
 3712TIP3    H232628   1.147   4.775  11.573 -1.0870 -0.4865 -1.0875
 3713TIP3   OH232629   6.387   6.519   0.414 -0.2204  0.1413  0.3432
 3713TIP3    H132630   6.419   6.599   0.373 -1.6999  0.7903  0.3945
 3713TIP3    H232631   6.366   6.461   0.341  1.0088 -0.2794  0.3098
 3714TIP3   OH232632   4.471   1.021  11.286 -0.2007 -0.3005  0.0748
 3714TIP3    H132633   4.497   1.029  11.378 -2.0716 -0.3260  0.6678
 3714TIP3    H232634   4.458   1.112  11.257  0.4377 -0.2905 -0.1790
 3715TIP3   OH232635   1.855   1.431  16.676  0.7600 -0.3436  0.0242
 3715TIP3    H132636   1.831   1.369  16.607 -2.2901  0.1610  0.4541
 3715TIP3    H232637   1.853   1.517  16.633 -1.3632 -0.0060  0.6754
 3716TIP3   OH232638   5.418   3.340  12.305 -0.4208 -0.5645  0.3333
 3716TIP3    H132639   5.347   3.314  12.363  0.9540  0.0677  2.3860
 3716TIP3    H232640   5.495   3.296  12.339  0.9370  1.8613  0.6341
 3717TIP3   OH232641   4.668   1.612   2.231 -0.6236  0.8540  0.5191
 3717TIP3    H132642   4.578   1.644   2.230 -1.1559 -0.4387  2.0533
 3717TIP3    H232643   4.668   1.540   2.168 -0.0053  2.3290 -1.2488
 3718TIP3   OH232644   3.012   2.310   0.595 -0.7976 -0.5426 -0.3103
 3718TIP3    H132645   2.936   2.367   0.578 -0.6653 -0.9116 -2.3498
 3718TIP3    H232646   2.985   2.224   0.563 -0.4822 -1.3546  1.4771
 3719TIP3   OH232647   0.412   6.276  16.917 -0.3473  0.8787  0.0288
 3719TIP3    H132648   0.375   6.215  16.981  0.2516  1.5769  1.0803
 3719TIP3    H232649   0.468   6.222  16.862 -1.4250  0.1409 -0.3671
 3720TIP3   OH232650   5.889   6.492  10.200  0.4160  0.5352  0.2361
 3720TIP3    H132651   5.854   6.537  10.277 -0.7642 -0.1056  0.0818
 3720TIP3    H232652   5.897   6.401  10.227  1.9869  0.6524  0.2612
 3721TIP3   OH232653   3.417   1.836   4.946 -0.2175  0.7350 -0.1604
 3721TIP3    H132654   3.350   1.882   4.896  1.3627  1.8145 -1.3907
 3721TIP3    H232655   3.396   1.744   4.935 -1.3052  1.0360 -0.7736
 3722TIP3   OH232656   0.435   0.766   0.660 -0.4289 -0.1545 -0.0466
 3722TIP3    H132657   0.366   0.818   0.619  0.5225  1.3430  0.2003
 3722TIP3    H232658   0.495   0.830   0.698  0.9467 -1.4226  0.0269
 3723TIP3   OH232659   5.698   3.606  15.738  0.0096 -0.2782  1.0050
 3723TIP3    H132660   5.766   3.623  15.803  0.9864  1.5595 -0.4039
 3723TIP3    H232661   5.731   3.532  15.687 -0.0285 -0.7044  1.5871
 3724TIP3   OH232662   1.558   6.198   2.041 -0.4465 -0.0350  0.6982
 3724TIP3    H132663   1.634   6.244   2.077  1.1576 -0.8112 -1.4048
 3724TIP3    H232664   1.498   6.267   2.015  1.1599  0.8977 -0.8240
 3725TIP3   OH232665   2.622   6.786  15.978  0.8931  0.2504  0.0787
 3725TIP3    H132666   2.553   6.850  15.960  0.4538 -0.7080 -2.0201
 3725TIP3    H232667   2.575   6.704  15.990  1.5243  0.0890  1.6691
 3726TIP3   OH232668   4.426   1.274  12.484  0.2267 -0.7930 -0.3068
 3726TIP3    H132669   4.464   1.352  12.444 -1.8904 -0.6474 -2.2820
 3726TIP3    H232670   4.458   1.201  12.431 -0.3700 -0.8913 -0.5499
 3727TIP3   OH232671   0.371   3.473  12.748  0.2279  0.5296  0.2041
 3727TIP3    H132672   0.323   3.458  12.666 -1.2863 -0.5838  1.2353
 3727TIP3    H232673   0.449   3.418  12.740 -1.1488 -1.5845  0.4819
 3728TIP3   OH232674   3.552   5.401  13.804  0.3513  0.1304  0.2212
 3728TIP3    H132675   3.578   5.487  13.837  2.2368 -0.2015 -0.2633
 3728TIP3    H232676   3.505   5.360  13.877 -1.1813  1.7796  0.2312
 3729TIP3   OH232677   4.493   4.934  17.227 -0.4525  0.0900  0.2291
 3729TIP3    H132678   4.521   4.884  17.150  0.3217  0.5481  0.2005
 3729TIP3    H232679   4.551   4.904  17.297 -0.5083  0.3821  0.3992
 3730TIP3   OH232680   5.714   4.687  14.597 -0.0901 -0.0202 -0.4203
 3730TIP3    H132681   5.730   4.751  14.667 -0.0916 -0.0588 -0.3842
 3730TIP3    H232682   5.686   4.608  14.644 -0.2815  0.0151 -0.4779
 3731TIP3   OH232683   2.633   5.197  17.190  0.3818  0.4789  0.0465
 3731TIP3    H132684   2.573   5.264  17.223 -0.9078 -1.0481  0.9432
 3731TIP3    H232685   2.688   5.175  17.265 -1.2742 -1.6231  0.7412
 3732TIP3   OH232686   0.490   2.020  16.998  0.1189 -0.3951 -0.0108
 3732TIP3    H132687   0.522   1.980  17.079 -2.0384  0.4681  1.3809
 3732TIP3    H232688   0.407   2.062  17.023  0.1490  1.2765 -2.3235
 3733TIP3   OH232689   5.453   5.535  10.456  0.2315  0.2235  0.5695
 3733TIP3    H132690   5.487   5.617  10.420 -2.2149  0.2025 -2.2495
 3733TIP3    H232691   5.494   5.467  10.403  0.0213 -0.1626  0.8939
 3734TIP3   OH232692   3.516   4.199   5.991 -0.3691  0.0302  0.0774
 3734TIP3    H132693   3.597   4.150   6.009 -1.2944 -1.6096 -0.0284
 3734TIP3    H232694   3.467   4.195   6.073 -1.3343 -0.9930 -0.5266
 3735TIP3   OH232695   2.123   3.202  16.971  0.0976 -0.4857 -0.2717
 3735TIP3    H132696   2.115   3.161  17.057 -1.9321  0.1404 -0.1224
 3735TIP3    H232697   2.214   3.185  16.946  1.1869  0.5129  2.5686
 3736TIP3   OH232698   6.191   3.135   6.139  0.3580  0.7936 -0.4349
 3736TIP3    H132699   6.113   3.182   6.111 -0.4399 -1.2468 -1.8902
 3736TIP3    H232700   6.165   3.092   6.221  0.4783  1.3709 -0.0918
 3737TIP3   OH232701   1.992   3.792  15.156 -0.2328 -0.1765  0.1867
 3737TIP3    H132702   1.918   3.839  15.193 -0.1483 -0.3789  0.6135
 3737TIP3    H232703   2.048   3.772  15.231  0.6908  0.7333 -0.2328
 3738TIP3   OH232704   4.916   2.699  15.384 -0.5985 -0.0573 -0.1502
 3738TIP3    H132705   4.924   2.699  15.289  3.5644 -0.5796  0.0010
 3738TIP3    H232706   4.944   2.787  15.411  1.0924 -0.7674  0.5910
 3739TIP3   OH232707   2.441   1.914  13.462 -0.5841  0.3045 -0.7869
 3739TIP3    H132708   2.433   1.819  13.465 -0.0433  0.2719  2.0166
 3739TIP3    H232709   2.530   1.930  13.431  0.4853 -0.2504  1.8061
 3740TIP3   OH232710   6.692   1.947   4.252 -0.5895  0.0981 -0.0884
 3740TIP3    H132711   6.701   1.974   4.161  2.7355  2.2606  0.6909
 3740TIP3    H232712   6.743   1.866   4.257  2.0468  1.6550  0.3202
 3741TIP3   OH232713   3.609   6.093  15.184  0.0044 -0.0494 -0.5340
 3741TIP3    H132714   3.580   6.017  15.135 -2.2176  0.3263  0.0855
 3741TIP3    H232715   3.531   6.147  15.194  0.7428  0.7237  1.8834
 3742TIP3   OH232716   6.333   6.800  15.623  0.0949 -0.3604 -0.5191
 3742TIP3    H132717   6.420   6.778  15.592 -0.5606 -1.4034 -1.7307
 3742TIP3    H232718   6.317   6.888  15.590  0.6249 -0.2322 -0.4358
 3743TIP3   OH232719   3.907   4.512   3.594  0.9231  0.0339 -0.7919
 3743TIP3    H132720   3.899   4.534   3.501  2.5418 -0.4029 -1.0839
 3743TIP3    H232721   3.985   4.456   3.598  0.9472  0.1325  0.8500
 3744TIP3   OH232722   6.365   6.700   2.673 -0.3259 -0.2072  0.0583
 3744TIP3    H132723   6.396   6.621   2.630 -2.1402 -0.0178 -1.7545
 3744TIP3    H232724   6.382   6.770   2.610 -1.1707  0.4135  0.5002
 3745TIP3   OH232725   5.053   6.533   1.491  0.1608  0.5353  0.2402
 3745TIP3    H132726   4.968   6.552   1.450  0.3099  1.7929  0.4548
 3745TIP3    H232727   5.094   6.470   1.433 -1.6716 -1.5707  1.1029
 3746TIP3   OH232728   2.750   0.578   5.615  0.2985  0.6265 -0.3211
 3746TIP3    H132729   2.705   0.494   5.603 -0.0501  0.6452  0.7009
 3746TIP3    H232730   2.730   0.628   5.537  0.1435 -0.0815 -0.7452
 3747TIP3   OH232731   6.677   4.403   5.179  0.3921  0.2111  0.0251
 3747TIP3    H132732   6.741   4.407   5.250 -1.2302 -1.1404  1.6747
 3747TIP3    H232733   6.643   4.493   5.172  0.2472  0.2799  1.3192
 3748TIP3   OH232734   1.036   4.110  12.421  0.4597 -0.3341 -0.1980
 3748TIP3    H132735   0.976   4.102  12.346  3.1632 -1.3355 -2.4221
 3748TIP3    H232736   1.095   4.181  12.396  0.9007 -0.0889  1.4398
 3749TIP3   OH232737   5.124   5.200   4.235 -0.4803 -0.4900 -0.2265
 3749TIP3    H132738   5.163   5.179   4.320 -1.6260 -0.5032  0.3109
 3749TIP3    H232739   5.102   5.293   4.241 -0.4304 -0.4549 -0.5636
 3750TIP3   OH232740   0.769   5.425  16.707  0.1734  0.3258 -0.4980
 3750TIP3    H132741   0.800   5.432  16.616 -1.7584  2.2647 -1.1119
 3750TIP3    H232742   0.751   5.332  16.720 -0.1496  0.0865 -2.3626
 3751TIP3   OH232743   2.221   3.858  13.380  0.2999 -0.8812 -1.0756
 3751TIP3    H132744   2.189   3.771  13.402  2.7422 -1.5641  0.0292
 3751TIP3    H232745   2.302   3.842  13.332  1.5608  0.7730  0.4147
 3752TIP3   OH232746   4.553   1.148  11.544  0.1192  0.2902 -0.3290
 3752TIP3    H132747   4.506   1.191  11.616 -0.8320  0.6952 -1.1680
 3752TIP3    H232748   4.643   1.138  11.576 -0.3287  0.2921  0.9788
 3753TIP3   OH232749   0.244   1.898   6.724  0.2436 -0.4891 -0.4451
 3753TIP3    H132750   0.267   1.990   6.722  1.8334 -0.8677 -0.9585
 3753TIP3    H232751   0.324   1.852   6.696 -0.8077 -1.9605 -1.1848
 3754TIP3   OH232752   4.822   0.069  11.586  0.4038  0.5410 -0.4216
 3754TIP3    H132753   4.786   0.152  11.617  0.8063  0.7850 -0.5925
 3754TIP3    H232754   4.784   0.003  11.644 -1.7192  0.5590 -1.6704
 3755TIP3   OH232755   2.277   6.412   2.197 -0.4400 -0.4815 -0.1110
 3755TIP3    H132756   2.220   6.352   2.245 -1.8808  0.7422 -0.2098
 3755TIP3    H232757   2.307   6.362   2.121 -3.6870 -0.4273 -1.6184
 3756TIP3   OH232758   2.050   1.709   5.623  0.2104 -0.8201 -0.3953
 3756TIP3    H132759   2.128   1.677   5.667  0.3839  0.4857  0.3058
 3756TIP3    H232760   1.978   1.688   5.683  0.6258  2.5191  1.5436
 3757TIP3   OH232761   3.536   2.096  10.683  0.3513  0.2595  0.0915
 3757TIP3    H132762   3.447   2.119  10.711  0.5336  1.2539 -0.0811
 3757TIP3    H232763   3.593   2.139  10.746  0.7102 -0.2245  0.0965
 3758TIP3   OH232764   2.080   0.649  11.166 -0.1137 -0.3398 -0.0745
 3758TIP3    H132765   2.095   0.743  11.161  0.6101 -0.3896  0.8750
 3758TIP3    H232766   2.003   0.640  11.222  1.1160 -0.3686  1.6841
 3759TIP3   OH232767   5.124   6.353  11.181 -0.4696 -0.5269 -0.1550
 3759TIP3    H132768   5.126   6.357  11.085  0.9215 -1.3505 -0.1837
 3759TIP3    H232769   5.188   6.419  11.209  0.6589 -1.6829  0.1163
 3760TIP3   OH232770   3.332   1.344  13.497  0.6500 -0.1764 -0.1218
 3760TIP3    H132771   3.309   1.421  13.445 -0.9257 -1.4018 -1.3315
 3760TIP3    H232772   3.321   1.374  13.588 -0.6380  0.8450 -0.5739
 3761TIP3   OH232773   2.145   4.345  10.808 -0.0578  0.4787 -0.2566
 3761TIP3    H132774   2.210   4.324  10.875 -1.2428  1.4697  1.2903
 3761TIP3    H232775   2.148   4.440  10.801 -0.6293  0.4556 -0.9081
 3762TIP3   OH232776   0.185   5.552  17.167 -0.2105 -0.5191  0.1303
 3762TIP3    H132777   0.276   5.526  17.183 -0.2154 -0.9413 -0.5123
 3762TIP3    H232778   0.155   5.496  17.096 -0.5673  0.4845 -0.5442
 3763TIP3   OH232779   4.112   4.821  15.491 -0.0496  0.4422 -0.0112
 3763TIP3    H132780   4.186   4.865  15.533  0.1344 -0.5523  0.7416
 3763TIP3    H232781   4.130   4.829  15.397  0.9459  0.3500  0.1571
 3764TIP3   OH232782   4.339   2.752   2.426 -0.0965  0.0249 -0.3142
 3764TIP3    H132783   4.386   2.719   2.350  0.4247  2.2567 -1.0503
 3764TIP3    H232784   4.247   2.747   2.401  0.0343  0.1329 -0.8443
 3765TIP3   OH232785   0.181   3.165   1.928 -0.4061 -0.1637 -0.4619
 3765TIP3    H132786   0.267   3.131   1.951 -1.4216 -3.0528 -0.5611
 3765TIP3    H232787   0.173   3.150   1.834 -0.4180  1.6996 -0.8077
 3766TIP3   OH232788   6.252   6.745  16.178  0.3271 -0.3459  0.1885
 3766TIP3    H132789   6.169   6.788  16.159  0.4299 -0.2775 -0.1265
 3766TIP3    H232790   6.231   6.652  16.184  0.3149 -0.3979 -0.4869
 3767TIP3   OH232791   6.332   4.370  16.662 -0.1199 -0.5915  0.5679
 3767TIP3    H132792   6.261   4.370  16.598  0.7192  0.0904 -0.3904
 3767TIP3    H232793   6.389   4.299  16.634  1.3852  1.0819 -0.7768
 3768TIP3   OH232794   6.346   2.665   0.174 -0.0038  0.0182 -0.1248
 3768TIP3    H132795   6.409   2.652   0.244  0.8448 -1.0303 -1.0555
 3768TIP3    H232796   6.386   2.730   0.117  0.0348 -0.3019 -0.4688
 3769TIP3   OH232797   6.091   3.832   1.321  0.2322  0.0862 -0.0184
 3769TIP3    H132798   6.185   3.847   1.316  0.3977 -1.0918 -0.9892
 3769TIP3    H232799   6.071   3.831   1.414  1.2607 -0.0478  0.2090
 3770TIP3   OH232800   0.299   0.201  13.975  0.4718 -0.1539  0.1030
 3770TIP3    H132801   0.234   0.134  13.995 -0.6342  0.9059  0.1870
 3770TIP3    H232802   0.247   0.277  13.948  1.5845  1.2706  1.7934
 3771TIP3   OH232803   6.085   0.314  14.471 -0.2389  0.2013  0.1855
 3771TIP3    H132804   6.128   0.296  14.554  2.4531  0.4702 -1.0435
 3771TIP3    H232805   6.019   0.380  14.491  1.4445  1.4529  1.8542
 3772TIP3   OH232806   6.352   1.218   4.375 -0.3971  0.4114  0.2565
 3772TIP3    H132807   6.397   1.229   4.291 -1.3705  3.3337  0.0084
 3772TIP3    H232808   6.422   1.217   4.440  0.2717 -0.4200 -0.4392
 3773TIP3   OH232809   4.426   6.087   0.702 -0.6890 -0.0924  0.5560
 3773TIP3    H132810   4.384   6.169   0.675  1.9446  0.5704 -1.9300
 3773TIP3    H232811   4.413   6.028   0.628 -1.2544 -1.4932  1.7130
 3774TIP3   OH232812   5.963   3.838  13.842  0.1185 -0.2118 -0.1413
 3774TIP3    H132813   6.039   3.833  13.784 -0.2779 -0.5509 -0.6461
 3774TIP3    H232814   5.901   3.894  13.795  1.1230  2.4494  1.5379
 3775TIP3   OH232815   0.979   4.401  12.767  0.7097  0.0224 -0.2189
 3775TIP3    H132816   1.036   4.468  12.728 -0.0299  0.0839 -1.2246
 3775TIP3    H232817   0.892   4.441  12.767  0.2299 -0.9978 -0.9690
 3776TIP3   OH232818   0.472   0.253  14.882  0.1326 -0.2139 -0.9161
 3776TIP3    H132819   0.541   0.288  14.939  0.0763 -1.2176 -0.2108
 3776TIP3    H232820   0.413   0.206  14.941 -1.5700  1.2143 -1.3952
 3777TIP3   OH232821   2.500   5.750  14.273  0.0094  0.0322  0.1179
 3777TIP3    H132822   2.409   5.747  14.300 -0.2308 -1.7462 -0.7715
 3777TIP3    H232823   2.534   5.662  14.290  1.0763  0.1650 -1.1050
 3778TIP3   OH232824   4.519   2.219  16.727 -0.1922  0.4016  0.1456
 3778TIP3    H132825   4.557   2.244  16.811  0.0786  1.0444 -0.1671
 3778TIP3    H232826   4.424   2.226  16.741 -0.1555  0.2769  0.4635
 3779TIP3   OH232827   6.086   6.047  14.370  0.0990  0.1965 -0.4282
 3779TIP3    H132828   6.179   6.028  14.385  0.6886  3.2492  0.3505
 3779TIP3    H232829   6.062   5.988  14.298  1.9950 -2.2249  0.7661
 3780TIP3   OH232830   2.613   4.439   0.349  0.0016 -0.4009 -0.0776
 3780TIP3    H132831   2.540   4.493   0.378 -1.2548 -2.2734  0.4445
 3780TIP3    H232832   2.643   4.481   0.269 -1.7028  0.4042 -0.3484
 3781TIP3   OH232833   4.299   1.340   0.338  0.3646 -0.3534  0.5739
 3781TIP3    H132834   4.317   1.297   0.422  1.4082 -0.6608  0.2072
 3781TIP3    H232835   4.343   1.285   0.273 -2.3085 -1.4338 -0.4725
 3782TIP3   OH232836   5.654   4.164   1.341 -0.0937  0.1747 -0.2997
 3782TIP3    H132837   5.626   4.162   1.250 -1.5143 -0.6477  0.1245
 3782TIP3    H232838   5.625   4.080   1.377  0.9018  0.2664  0.7816
 3783TIP3   OH232839   0.081   1.770   2.359  0.2460 -0.0987 -0.6999
 3783TIP3    H132840   0.025   1.756   2.435 -0.4869  0.2938 -1.1590
 3783TIP3    H232841   0.133   1.690   2.353  1.4198  0.4512  1.1104
 3784TIP3   OH232842   6.394   1.965  13.827  0.0840 -0.5152  0.2228
 3784TIP3    H132843   6.386   1.870  13.824  0.0818 -0.5526  1.0565
 3784TIP3    H232844   6.304   1.997  13.838 -0.2108 -0.2685 -2.3169
 3785TIP3   OH232845   1.281   3.700   5.571 -0.7522 -0.1002  0.4664
 3785TIP3    H132846   1.187   3.684   5.572 -0.3999 -2.6613  0.5548
 3785TIP3    H232847   1.304   3.719   5.662 -1.1969  0.7341  0.4080
 3786TIP3   OH232848   6.727   1.683  14.196 -0.6632 -0.0796 -0.4994
 3786TIP3    H132849   6.728   1.607  14.254 -0.8709 -1.9459 -2.7855
 3786TIP3    H232850   6.637   1.689  14.165 -0.7225  1.3320 -0.1120
 3787TIP3   OH232851   0.730   3.735   5.960  0.0914  0.2143 -0.0713
 3787TIP3    H132852   0.702   3.736   6.051  1.2178  2.7960  0.3343
 3787TIP3    H232853   0.681   3.806   5.918 -0.2749 -0.8069 -1.4577
 3788TIP3   OH232854   4.752   2.425   5.629  0.5176 -0.2180  0.0362
 3788TIP3    H132855   4.833   2.450   5.586  0.7005 -0.5468  0.1827
 3788TIP3    H232856   4.776   2.351   5.684 -0.1881 -1.3284 -1.0972
 3789TIP3   OH232857   1.422   4.313  15.927 -0.4280  0.1174  0.4042
 3789TIP3    H132858   1.475   4.300  16.006  0.7756  0.6241 -0.2880
 3789TIP3    H232859   1.478   4.365  15.869 -0.9932 -0.8578 -1.0829
 3790TIP3   OH232860   5.285   6.193  13.431 -0.2980 -0.1600 -0.3625
 3790TIP3    H132861   5.267   6.100  13.415  1.1048 -0.3081 -1.2449
 3790TIP3    H232862   5.245   6.238  13.356 -3.0078  0.2338  1.2054
 3791TIP3   OH232863   3.714   6.344   5.577  0.0244  0.7841  0.4057
 3791TIP3    H132864   3.741   6.330   5.668  1.1554  2.9489  0.4653
 3791TIP3    H232865   3.634   6.292   5.568  0.0880  0.2128  2.5151
 3792TIP3   OH232866   1.324   2.982   4.449  0.2292 -0.7772  0.0697
 3792TIP3    H132867   1.416   2.984   4.475  0.1166 -2.9273  0.8884
 3792TIP3    H232868   1.276   2.964   4.530 -0.7003 -1.6608 -0.6431
 3793TIP3   OH232869   2.196   2.772   3.098  0.2594 -0.0484 -0.4750
 3793TIP3    H132870   2.277   2.729   3.073 -0.0875 -0.2446 -1.3050
 3793TIP3    H232871   2.160   2.716   3.168  1.2715  0.5425  0.5515
 3794TIP3   OH232872   6.631   0.737  16.184 -0.1949  0.3315 -0.3647
 3794TIP3    H132873   6.642   0.693  16.269  1.4718 -2.3689 -1.8420
 3794TIP3    H232874   6.703   0.800  16.182 -0.6573  0.9078  0.4834
 3795TIP3   OH232875   0.738   1.040   3.589  0.3315  0.1720 -0.5142
 3795TIP3    H132876   0.680   1.101   3.635 -1.1895 -0.8797 -0.9656
 3795TIP3    H232877   0.779   0.989   3.659 -0.7033 -0.3028 -0.2326
 3796TIP3   OH232878   3.150   6.322  12.528 -0.0823 -0.0005  0.3739
 3796TIP3    H132879   3.116   6.284  12.447  0.3850  1.4424 -0.5426
 3796TIP3    H232880   3.231   6.274  12.545  0.3104  0.3083 -0.5571
 3797TIP3   OH232881   4.921   0.703   2.459 -0.4491  0.1811 -0.4235
 3797TIP3    H132882   5.001   0.698   2.512 -0.2341  0.1189 -0.7567
 3797TIP3    H232883   4.851   0.713   2.524 -0.0475  1.7465 -0.1953
 3798TIP3   OH232884   4.580   1.505   0.963 -0.0697  0.4281 -0.4006
 3798TIP3    H132885   4.567   1.593   0.999 -0.0540  0.2720 -0.0089
 3798TIP3    H232886   4.624   1.457   1.033  1.3013  0.5310 -1.1634
 3799TIP3   OH232887   1.483   5.466  12.660 -0.7284  0.3846  0.4698
 3799TIP3    H132888   1.527   5.457  12.745  1.3290  1.9178 -0.3660
 3799TIP3    H232889   1.452   5.556  12.659 -1.4908  0.1288 -0.1010
 3800TIP3   OH232890   2.876   4.469   0.178 -0.2765 -0.1161  1.0239
 3800TIP3    H132891   2.874   4.448   0.085  1.3549  0.2989  0.8713
 3800TIP3    H232892   2.841   4.557   0.184 -1.2935 -0.4995  0.9366
 3801TIP3   OH232893   4.577   0.912   6.269 -0.0938 -0.2505 -0.1491
 3801TIP3    H132894   4.537   0.999   6.259  0.0431 -0.3871 -2.2964
 3801TIP3    H232895   4.503   0.852   6.267 -0.1101 -0.2540  0.3788
 3802TIP3   OH232896   1.055   4.576  16.375  0.0537  0.7343 -0.1203
 3802TIP3    H132897   1.053   4.512  16.446 -0.6311 -0.2230 -0.9801
 3802TIP3    H232898   1.115   4.539  16.311  0.2439  1.3274 -0.2908
 3803TIP3   OH232899   2.661   5.331   5.231 -0.1667  0.5645 -0.1422
 3803TIP3    H132900   2.756   5.326   5.219 -0.1467 -0.1398  0.3000
 3803TIP3    H232901   2.646   5.419   5.266  0.3022  0.7403 -0.3777
 3804TIP3   OH232902   5.311   6.798   3.692 -0.6471 -0.6268  0.4436
 3804TIP3    H132903   5.378   6.778   3.757 -1.9166 -1.4550  1.5508
 3804TIP3    H232904   5.263   6.872   3.729 -1.2917 -1.0100  0.3810
 3805TIP3   OH232905   3.302   4.349  15.613 -0.0036 -0.3805  1.1872
 3805TIP3    H132906   3.251   4.293  15.671 -1.1834 -1.5131 -0.8328
 3805TIP3    H232907   3.247   4.360  15.536  1.3334  1.4010  0.4218
 3806TIP3   OH232908   3.814   6.328   3.027  0.0705  0.3559  0.1710
 3806TIP3    H132909   3.800   6.275   2.948 -0.8649  0.7668  0.0538
 3806TIP3    H232910   3.823   6.264   3.098 -2.2844  0.0421  0.2398
 3807TIP3   OH232911   4.993   4.400   5.211  0.3906 -0.0318 -0.7133
 3807TIP3    H132912   5.058   4.357   5.156  0.0297 -0.9935 -0.3956
 3807TIP3    H232913   4.910   4.386   5.165  0.1293 -0.5618 -0.0908
 3808TIP3   OH232914   6.301   5.875  14.094 -0.3485 -0.5702  0.2886
 3808TIP3    H132915   6.240   5.943  14.064  1.5263  0.8987 -0.4217
 3808TIP3    H232916   6.270   5.795  14.052 -2.6070 -0.2071  1.1195
 3809TIP3   OH232917   2.387   2.613  13.667  0.3231 -0.3680 -0.0497
 3809TIP3    H132918   2.368   2.542  13.606 -0.6614 -0.4619  0.3528
 3809TIP3    H232919   2.308   2.622  13.720  0.1423  1.5221 -0.5724
 3810TIP3   OH232920   0.685   4.427  11.710  0.1965 -0.1927 -0.1202
 3810TIP3    H132921   0.665   4.360  11.775 -0.2716 -0.0381 -0.1032
 3810TIP3    H232922   0.617   4.493  11.722  2.4217  1.8972  2.0434
 3811TIP3   OH232923   4.775   6.201  13.096 -0.4283  0.1644  0.4117
 3811TIP3    H132924   4.818   6.158  13.170 -0.4419  1.1214  0.9916
 3811TIP3    H232925   4.695   6.238  13.133 -0.5699  0.4288 -0.1494
 3812TIP3   OH232926   3.561   6.371   1.889  0.1866 -0.3238 -0.0954
 3812TIP3    H132927   3.617   6.326   1.826 -1.2163 -2.0700 -0.1587
 3812TIP3    H232928   3.597   6.347   1.975 -0.2266 -1.1959 -0.1481
 3813TIP3   OH232929   4.686   0.242   3.216 -0.4150 -0.4522 -0.0369
 3813TIP3    H132930   4.780   0.254   3.201 -0.4349 -1.0314 -0.7038
 3813TIP3    H232931   4.660   0.318   3.268  0.4370 -0.3248  0.2220
 3814TIP3   OH232932   5.908   1.985   3.072 -0.0364 -0.6060  0.4290
 3814TIP3    H132933   5.998   1.959   3.052  0.3646 -0.7399  2.2391
 3814TIP3    H232934   5.892   2.060   3.015  0.9559 -1.0159 -0.4339
 3815TIP3   OH232935   3.579   1.485   3.456  0.4441 -0.4083 -0.5644
 3815TIP3    H132936   3.660   1.453   3.495  1.0414 -0.8904 -2.1102
 3815TIP3    H232937   3.585   1.459   3.364 -1.2288  0.0215 -0.8283
 3816TIP3   OH232938   4.723   6.447   0.292 -0.8112 -0.2071 -0.3410
 3816TIP3    H132939   4.647   6.389   0.302  0.1865 -1.3682  1.1251
 3816TIP3    H232940   4.788   6.393   0.246  0.7102 -0.9592  2.4494
 3817TIP3   OH232941   3.047   0.024  12.878 -0.2839  0.2103 -0.8330
 3817TIP3    H132942   3.102   0.041  12.801  0.0923  2.8125 -0.1028
 3817TIP3    H232943   3.018   0.111  12.906 -2.3514 -0.8604  0.5944
 3818TIP3   OH232944   1.075   5.419  14.475  0.1816  0.3083  0.0459
 3818TIP3    H132945   1.150   5.474  14.454  0.5056  0.9897  2.6725
 3818TIP3    H232946   1.104   5.330  14.456  1.5880  0.5831  0.7920
 3819TIP3   OH232947   6.775   2.845  15.265 -0.2874 -0.3376 -0.3833
 3819TIP3    H132948   6.821   2.869  15.185 -0.6011 -1.0234 -0.7810
 3819TIP3    H232949   6.705   2.787  15.236 -0.2660 -0.7791  0.4035
 3820TIP3   OH232950   6.642   2.678  16.470 -0.3089  0.0537  0.6656
 3820TIP3    H132951   6.692   2.653  16.392 -0.0992  2.5118 -0.0980
 3820TIP3    H232952   6.603   2.597  16.501  2.6659 -1.6633  0.2467
 3821TIP3   OH232953   5.866   5.486  13.746  0.6740 -0.0209  0.1536
 3821TIP3    H132954   5.850   5.572  13.785 -0.2520 -0.2574  0.3151
 3821TIP3    H232955   5.789   5.434  13.769  1.1189 -0.8314 -0.1321
 3822TIP3   OH232956   5.199   3.536   1.998 -0.0239 -0.1391  0.3278
 3822TIP3    H132957   5.240   3.554   1.913  2.2443  0.1908  1.4157
 3822TIP3    H232958   5.160   3.620   2.023  2.4478  0.8688  1.1631
 3823TIP3   OH232959   4.652   2.104  15.917  0.4668  0.1219  0.5412
 3823TIP3    H132960   4.706   2.063  15.850  0.7547  0.3090  0.6575
 3823TIP3    H232961   4.562   2.089  15.887  0.5611 -0.6997  0.6528
 3824TIP3   OH232962   0.510   2.024   3.236  0.3674  0.1838  0.2749
 3824TIP3    H132963   0.588   2.005   3.288  0.4037 -1.7020 -0.3875
 3824TIP3    H232964   0.529   1.988   3.149 -0.7148  0.9021 -0.2869
 3825TIP3   OH232965   5.098   2.643  11.097 -0.2034  0.0965  0.3759
 3825TIP3    H132966   5.168   2.678  11.043  1.4860 -2.3812  0.8031
 3825TIP3    H232967   5.037   2.603  11.034  1.5489 -2.4256  0.1643
 3826TIP3   OH232968   3.384   2.540  15.943  1.2051  0.0588 -0.5344
 3826TIP3    H132969   3.337   2.560  16.024  0.1302 -0.7127 -0.9516
 3826TIP3    H232970   3.435   2.620  15.926  0.2503  0.8296  0.0729
 3827TIP3   OH232971   3.523   1.554  16.966  0.4296  0.3135 -0.1478
 3827TIP3    H132972   3.614   1.565  16.993  0.1252 -1.2322  1.7427
 3827TIP3    H232973   3.475   1.542  17.048 -1.2945 -0.1685 -1.1753
 3828TIP3   OH232974   2.648   6.121   1.341 -0.2452 -0.5018 -0.3799
 3828TIP3    H132975   2.718   6.121   1.276  1.3681 -1.0163  1.2844
 3828TIP3    H232976   2.623   6.214   1.348 -0.6329 -0.4609 -1.8643
 3829TIP3   OH232977   1.275   3.564  12.980 -0.3541 -0.0786 -0.0834
 3829TIP3    H132978   1.324   3.630  12.932  1.2316 -0.4451  0.9757
 3829TIP3    H232979   1.192   3.556  12.932 -0.9514  3.2102  0.2162
 3830TIP3   OH232980   5.648   2.880  11.055 -0.7365  0.0123 -0.4572
 3830TIP3    H132981   5.636   2.839  11.141  0.1963 -0.0730 -0.3573
 3830TIP3    H232982   5.715   2.826  11.012 -1.3451 -0.0732 -1.3215
 3831TIP3   OH232983   2.568   1.033   3.268  0.1034 -0.1712  0.4320
 3831TIP3    H132984   2.587   1.052   3.176  2.8078  1.2319  1.1855
 3831TIP3    H232985   2.616   0.952   3.286  0.9763  0.4423  0.9709
 3832TIP3   OH232986   5.488   4.617  15.625 -0.7959  0.3857 -0.4741
 3832TIP3    H132987   5.574   4.636  15.587 -0.4475 -0.7225 -0.2777
 3832TIP3    H232988   5.430   4.684  15.588  0.3511  1.8078  0.1982
 3833TIP3   OH232989   1.120   5.332   5.721 -0.3738 -0.0802 -0.4351
 3833TIP3    H132990   1.098   5.260   5.780 -0.4442 -1.3328 -1.9357
 3833TIP3    H232991   1.216   5.333   5.719 -0.3606  0.4167  0.2195
 3834TIP3   OH232992   2.132   6.087   3.465 -0.5255  0.0671 -0.2064
 3834TIP3    H132993   2.113   6.038   3.545  0.3496  0.9969  0.5958
 3834TIP3    H232994   2.052   6.135   3.446  0.0873  1.9482  1.6721
 3835TIP3   OH232995   5.780   4.911  13.789 -0.1884  0.2040  0.8167
 3835TIP3    H132996   5.867   4.922  13.829  0.9683  1.2209 -1.7875
 3835TIP3    H232997   5.721   4.962  13.845  1.7382  3.5251  0.0895
 3836TIP3   OH232998   1.320   4.635   2.699  0.4610  0.5724 -0.3324
 3836TIP3    H132999   1.320   4.541   2.680  0.3070  1.0677 -3.2498
 3836TIP3    H233000   1.404   4.666   2.667  0.5800  1.4555  0.7680
 3837TIP3   OH233001   4.084   3.545  17.312  0.4610  0.0659  0.7785
 3837TIP3    H133002   4.116   3.635  17.320  0.0083  0.3698 -0.5246
 3837TIP3    H233003   4.046   3.541  17.224  0.5321 -1.4277  0.7941
 3838TIP3   OH233004   6.431   4.890  12.391 -0.3782 -0.5653  1.0375
 3838TIP3    H133005   6.439   4.968  12.446  2.8005 -0.3217  0.4274
 3838TIP3    H233006   6.406   4.923  12.305 -0.7791 -0.4397  1.2005
 3839TIP3   OH233007   1.244   5.750   4.711 -0.1869 -0.4115 -0.4245
 3839TIP3    H133008   1.339   5.743   4.721 -0.2268  0.4499  0.6955
 3839TIP3    H233009   1.210   5.677   4.763 -0.1592 -0.2645 -0.1979
 3840TIP3   OH233010   0.470   5.416   5.798 -0.1341 -0.8061  0.1794
 3840TIP3    H133011   0.475   5.415   5.894  0.5929 -3.3644  0.1886
 3840TIP3    H233012   0.405   5.349   5.777 -0.3053 -0.2576 -1.1352
 3841TIP3   OH233013   1.955   4.029  12.932  0.3391  0.1651 -0.1069
 3841TIP3    H133014   1.923   4.021  12.842 -1.0832  1.2458  0.2746
 3841TIP3    H233015   1.878   4.056  12.983  1.1055 -0.4401  1.4505
 3842TIP3   OH233016   6.803   1.243  16.501 -0.1808  0.1439  0.2399
 3842TIP3    H133017   6.890   1.256  16.538  0.3519 -0.6322 -0.7160
 3842TIP3    H233018   6.751   1.209  16.574  0.8348 -1.3134  0.3177
 3843TIP3   OH233019   0.944   0.810   1.574 -0.1671 -0.7557 -0.2180
 3843TIP3    H133020   0.860   0.778   1.543 -0.9381  0.0530  0.9598
 3843TIP3    H233021   1.001   0.734   1.572 -1.6670 -2.0054  1.5476
 3844TIP3   OH233022   1.597   2.105   3.330  0.3276 -0.0918  0.0313
 3844TIP3    H133023   1.618   2.019   3.293 -2.0918 -0.2779 -1.1611
 3844TIP3    H233024   1.558   2.086   3.415  1.3933 -0.0200  0.5481
 3845TIP3   OH233025   1.567   2.126   5.980 -0.2809  0.0151  0.3281
 3845TIP3    H133026   1.558   2.066   6.055 -2.1457 -0.5190 -0.2582
 3845TIP3    H233027   1.484   2.118   5.934  0.3408  1.3247 -1.0876
 3846TIP3   OH233028   5.943   0.421  12.235 -0.3616 -0.5351 -0.0048
 3846TIP3    H133029   5.859   0.455  12.204 -0.4591 -0.8746 -0.1145
 3846TIP3    H233030   5.927   0.328  12.252  0.1520 -0.7473 -0.6236
 3847TIP3   OH233031   0.153   5.040   3.133  0.0262 -0.3833  0.1914
 3847TIP3    H133032   0.155   5.020   3.039 -0.6628  1.0821 -0.1707
 3847TIP3    H233033   0.129   5.132   3.137  1.1142 -0.1212  1.7909
 3848TIP3   OH233034   2.654   0.984  15.735  0.4390 -0.1803  0.1184
 3848TIP3    H133035   2.700   1.033  15.803 -1.2632  0.2354  1.0168
 3848TIP3    H233036   2.672   0.892  15.755 -0.1998 -0.0708  1.2810
 3849TIP3   OH233037   5.259   0.150  12.059  0.2911  0.1399  0.7204
 3849TIP3    H133038   5.173   0.114  12.080 -0.5311  2.2846  1.2343
 3849TIP3    H233039   5.271   0.128  11.966 -0.5621 -0.6171  0.7650
 3850TIP3   OH233040   2.179   0.215   0.213 -0.0235 -0.1835 -0.8811
 3850TIP3    H133041   2.120   0.209   0.289 -0.7931  3.2991 -1.0053
 3850TIP3    H233042   2.122   0.203   0.137 -0.3503  1.5375 -0.9556
 3851TIP3   OH233043   2.177   4.645  16.949 -0.0500  0.2876 -0.3902
 3851TIP3    H133044   2.201   4.621  17.039  1.6699 -1.2739 -1.2078
 3851TIP3    H233045   2.107   4.710  16.960  0.6471  0.7383  2.0772
 3852TIP3   OH233046   1.234   0.642   3.236  0.2116  0.5165 -0.4950
 3852TIP3    H133047   1.302   0.577   3.224 -0.8454 -0.4608 -1.4311
 3852TIP3    H233048   1.235   0.661   3.330  2.2839  1.1467 -0.6023
 3853TIP3   OH233049   5.021   1.168   6.460  0.0263 -0.0045  0.0387
 3853TIP3    H133050   5.019   1.245   6.518 -0.2793 -0.2819  0.3976
 3853TIP3    H233051   4.996   1.202   6.374  1.5139  0.6161 -0.1766
 3854TIP3   OH233052   2.137   6.604  16.871 -0.1665  0.2986  0.5452
 3854TIP3    H133053   2.044   6.581  16.873 -0.8160  2.6718  2.0359
 3854TIP3    H233054   2.182   6.526  16.904 -1.5953 -0.8951 -0.2011
 3855TIP3   OH233055   6.611   3.361   1.917 -0.0370  0.3883  0.3734
 3855TIP3    H133056   6.529   3.342   1.871  1.2673 -3.1263 -0.8554
 3855TIP3    H233057   6.671   3.387   1.847  1.7666 -4.2994 -0.1704
 3856TIP3   OH233058   3.359   6.149   2.947 -0.0590  0.3179 -0.1495
 3856TIP3    H133059   3.267   6.176   2.947 -0.3337 -0.2172  2.6707
 3856TIP3    H233060   3.408   6.229   2.930 -1.0232  0.8183 -0.6398
 3857TIP3   OH233061   2.609   1.571  11.974 -0.2400  0.4027 -0.0479
 3857TIP3    H133062   2.618   1.514  12.050 -0.4683 -1.3274 -1.2667
 3857TIP3    H233063   2.694   1.614  11.966 -0.6490  1.7259  1.9856
 3858TIP3   OH233064   2.933   0.009   3.748  0.0551  0.3700 -0.1208
 3858TIP3    H133065   2.970   0.025   3.661  0.4029  1.2304  0.1730
 3858TIP3    H233066   3.005   0.026   3.808 -0.0168 -0.8034  0.3193
 3859TIP3   OH233067   6.565   1.874  14.616  0.7335 -0.3337 -0.1307
 3859TIP3    H133068   6.629   1.826  14.670 -0.1930 -0.6117  0.7540
 3859TIP3    H233069   6.505   1.913  14.679  1.0025  1.3508 -0.8858
 3860TIP3   OH233070   0.123   1.770   0.951 -0.2727 -0.1008 -0.1134
 3860TIP3    H133071   0.176   1.847   0.971  0.7661 -0.6665 -0.5952
 3860TIP3    H233072   0.046   1.805   0.905 -0.1802  0.7056  0.3336
 3861TIP3   OH233073   2.379   1.974   2.748  0.3103 -0.1802 -0.2151
 3861TIP3    H133074   2.291   2.006   2.731  1.2942  1.5706 -2.5466
 3861TIP3    H233075   2.392   1.903   2.685  0.4519 -0.7232  0.4075
 3862TIP3   OH233076   2.547   1.029   2.521  0.5307  0.0728  0.2834
 3862TIP3    H133077   2.604   1.090   2.475 -0.0263  0.1269 -0.3515
 3862TIP3    H233078   2.604   0.957   2.546  0.8243 -0.0311 -0.6378
 3863TIP3   OH233079   3.198   5.828   3.229 -0.6421  0.0842 -0.1370
 3863TIP3    H133080   3.145   5.863   3.158  1.8693 -0.5142 -2.4534
 3863TIP3    H233081   3.190   5.733   3.221 -0.8223  0.0087  0.8083
 3864TIP3   OH233082   5.956   4.054   0.330  0.0428  0.0587 -0.2498
 3864TIP3    H133083   5.870   4.061   0.289 -0.3983 -0.0830  0.6423
 3864TIP3    H233084   5.938   4.045   0.423  1.0502  0.7448  0.0251
 3865TIP3   OH233085   4.519   3.394   2.361  0.2043 -0.5424 -0.1583
 3865TIP3    H133086   4.595   3.399   2.419 -0.2213 -0.7675  0.4302
 3865TIP3    H233087   4.505   3.300   2.347 -1.1706 -0.6115  1.3789
 3866TIP3   OH233088   3.791   3.474  15.989 -0.3132 -0.2062 -0.6002
 3866TIP3    H133089   3.726   3.445  16.054 -0.2597  0.2157 -0.3544
 3866TIP3    H233090   3.778   3.415  15.915 -1.3316  0.2030 -0.7650
 3867TIP3   OH233091   4.345   6.598  16.906 -0.2621 -0.4936  0.0152
 3867TIP3    H133092   4.314   6.520  16.859  0.7241 -0.5480 -0.5664
 3867TIP3    H233093   4.299   6.671  16.864  0.5355 -0.5487 -1.0045
 3868TIP3   OH233094   2.552   6.219   5.918 -0.2334  0.6840  0.0130
 3868TIP3    H133095   2.468   6.262   5.906 -0.1363  0.5459 -1.4419
 3868TIP3    H233096   2.607   6.253   5.847  0.9998  0.8952  1.0224
 3869TIP3   OH233097   1.151   0.105  16.127  0.2077 -0.1943 -0.6584
 3869TIP3    H133098   1.179   0.161  16.054  1.9196  0.2328  0.2558
 3869TIP3    H233099   1.124   0.023  16.086 -0.5131  0.6246 -1.8816
 3870TIP3   OH233100   2.501   3.363   6.247 -0.3986 -0.4418 -0.8743
 3870TIP3    H133101   2.432   3.356   6.313 -0.7527 -1.6475 -1.3307
 3870TIP3    H233102   2.524   3.272   6.227  1.5153 -0.0741 -0.5478
 3871TIP3   OH233103   1.975   5.442  16.806 -0.1917  0.7547 -0.1718
 3871TIP3    H133104   2.018   5.356  16.810 -0.8876  0.3747 -0.7019
 3871TIP3    H233105   2.011   5.482  16.727 -2.2313 -0.3715 -1.7681
 3872TIP3   OH233106   5.860   6.419   1.292  0.3141  0.1642 -0.2150
 3872TIP3    H133107   5.786   6.478   1.277  0.3059  0.3314  0.4601
 3872TIP3    H233108   5.907   6.417   1.208 -1.4484 -1.3538 -1.2407
 3873TIP3   OH233109   2.412   6.755   6.277 -0.0211 -0.3532  0.2968
 3873TIP3    H133110   2.338   6.747   6.337 -0.2695  0.6224  0.1421
 3873TIP3    H233111   2.480   6.799   6.328 -0.1384  0.2356 -0.0434
 3874TIP3   OH233112   3.514   3.789   4.544 -0.3331 -0.1110 -0.4046
 3874TIP3    H133113   3.534   3.881   4.561 -0.5404  0.4203 -2.6769
 3874TIP3    H233114   3.428   3.776   4.582 -0.6622  0.8812 -0.7697
 3875TIP3   OH233115   6.825   1.732   5.250  0.3073  0.3475 -0.4949
 3875TIP3    H133116   6.754   1.668   5.262  0.9164 -0.1874  0.3104
 3875TIP3    H233117   6.782   1.807   5.208 -0.8956  0.2987  0.5707
 3876TIP3   OH233118   0.757   0.040  13.830 -0.0264 -0.3376  0.4422
 3876TIP3    H133119   0.681   0.091  13.800  1.0673  0.5070 -0.9973
 3876TIP3    H233120   0.796   0.093  13.899 -0.8828 -0.9256  1.4184
 3877TIP3   OH233121   4.984   0.121   5.039  0.0872 -0.3527 -0.0933
 3877TIP3    H133122   5.040   0.199   5.035 -0.5421  0.0431 -1.7286
 3877TIP3    H233123   5.045   0.048   5.050  0.7804  0.2377  0.0408
 3878TIP3   OH233124   1.305   4.470  12.799 -0.1973  0.0055  0.0991
 3878TIP3    H133125   1.317   4.430  12.885  1.1132  0.0566 -0.0519
 3878TIP3    H233126   1.310   4.397  12.738 -0.0495  0.1127 -0.0169
 3879TIP3   OH233127   6.529   5.127   0.263 -0.3836 -0.0620  0.2643
 3879TIP3    H133128   6.551   5.079   0.342  0.1670  0.9837  0.7646
 3879TIP3    H233129   6.574   5.211   0.272  1.3615 -0.6324 -2.0518
 3880TIP3   OH233130   2.986   1.133  15.549  0.1780  0.6461 -0.2179
 3880TIP3    H133131   3.026   1.056  15.590 -1.0915  0.3342  0.4788
 3880TIP3    H233132   2.901   1.103  15.518  0.0486  1.5451 -0.7642
 3881TIP3   OH233133   2.222   0.739  16.128 -0.3389  0.0776  0.2936
 3881TIP3    H133134   2.252   0.800  16.196 -0.3769  0.7859 -0.3085
 3881TIP3    H233135   2.158   0.683  16.171 -0.4114  0.5661  0.8225
 3882TIP3   OH233136   4.564   4.273   3.037 -0.1870 -0.4647  0.0049
 3882TIP3    H133137   4.577   4.185   3.073  1.4259 -0.4031 -0.3558
 3882TIP3    H233138   4.524   4.258   2.951 -0.5527 -0.7959  0.2259
 3883TIP3   OH233139   2.882   2.191  12.440  0.6295 -0.3510  0.3331
 3883TIP3    H133140   2.965   2.144  12.449  0.5404 -0.6319 -0.2368
 3883TIP3    H233141   2.825   2.150  12.506  0.9624 -0.1019  0.7815
 3884TIP3   OH233142   2.129   5.757  16.497 -0.7653 -0.7897  0.2343
 3884TIP3    H133143   2.099   5.834  16.545  0.0092 -0.4410  0.1780
 3884TIP3    H233144   2.127   5.783  16.405 -1.9200 -1.3417  0.0932
 3885TIP3   OH233145   3.299   2.483   3.368 -0.9013 -0.1496  0.2510
 3885TIP3    H133146   3.282   2.528   3.285 -0.2824 -0.1434  0.1218
 3885TIP3    H233147   3.262   2.539   3.435  0.5441  0.9658  0.1669
 3886TIP3   OH233148   0.498   4.026  13.081 -0.2537 -0.0553 -0.5396
 3886TIP3    H133149   0.511   4.112  13.120  1.3481 -0.4734 -0.0810
 3886TIP3    H233150   0.478   4.045  12.989  0.6399  0.8039 -0.5776
 3887TIP3   OH233151   5.051   1.637  12.790  0.4723 -0.1386 -0.1896
 3887TIP3    H133152   4.988   1.593  12.733  0.0831 -0.2115  0.2897
 3887TIP3    H233153   5.046   1.588  12.872  2.1951 -1.0430 -0.5909
 3888TIP3   OH233154   5.471   0.990  15.859 -0.2420  0.0596 -0.2441
 3888TIP3    H133155   5.484   1.021  15.769 -0.2637  0.7965 -0.0005
 3888TIP3    H233156   5.552   1.015  15.904  0.4114 -1.6322 -0.3964
 3889TIP3   OH233157   2.207   3.263   4.343  0.4297  0.1374 -0.3881
 3889TIP3    H133158   2.213   3.354   4.372  1.2556 -0.3176  0.9339
 3889TIP3    H233159   2.297   3.240   4.319  0.1950 -0.2876 -0.8796
 3890TIP3   OH233160   1.621   0.816  12.515  0.1727  0.4859 -0.0303
 3890TIP3    H133161   1.710   0.783  12.521  0.0255  0.2335  0.8784
 3890TIP3    H233162   1.631   0.907  12.485  0.6292 -0.0226 -1.4962
 3891TIP3   OH233163   3.854   5.033  11.223  0.0566  0.1513  0.1672
 3891TIP3    H133164   3.913   4.958  11.223 -1.1729 -0.8715 -0.7146
 3891TIP3    H233165   3.784   5.008  11.163 -0.8027  1.6953  0.4665
 3892TIP3   OH233166   0.647   4.879  10.417 -0.3546 -0.0142 -0.6128
 3892TIP3    H133167   0.720   4.850  10.471  0.8469  1.6496 -1.2857
 3892TIP3    H233168   0.648   4.820  10.341  0.2755 -0.0017 -0.6151
 3893TIP3   OH233169   5.424   0.649  11.161 -0.4197  0.1720 -0.3263
 3893TIP3    H133170   5.505   0.671  11.208 -0.1964 -0.9796 -0.1271
 3893TIP3    H233171   5.447   0.658  11.069 -1.1658  3.4978 -0.2954
 3894TIP3   OH233172   2.801   0.161  13.772 -1.1388  0.0833  0.4751
 3894TIP3    H133173   2.893   0.140  13.760 -1.2320 -0.0536 -0.0629
 3894TIP3    H233174   2.799   0.224  13.844 -0.5113  0.9046 -0.1959
 3895TIP3   OH233175   1.826   6.669  12.929  0.0724 -0.3120  0.1080
 3895TIP3    H133176   1.866   6.593  12.972  0.7667 -0.2324 -0.3833
 3895TIP3    H233177   1.836   6.740  12.992  3.4044  0.4549 -1.0883
 3896TIP3   OH233178   1.444   2.209   3.913 -0.6845  0.1013  0.2739
 3896TIP3    H133179   1.516   2.244   3.965  0.5361 -0.6124 -0.8907
 3896TIP3    H233180   1.370   2.266   3.933  0.2241  0.9278  1.3978
 3897TIP3   OH233181   3.728   6.224   1.740  0.0304 -0.1888 -0.1924
 3897TIP3    H133182   3.644   6.191   1.709  0.7040 -1.0309 -1.1899
 3897TIP3    H233183   3.785   6.222   1.663  0.7871  0.9873  0.3164
 3898TIP3   OH233184   3.831   4.519   5.219  0.0713 -0.2670  0.3401
 3898TIP3    H133185   3.775   4.529   5.142 -0.2108  0.5915  0.6429
 3898TIP3    H233186   3.852   4.425   5.221 -1.3718 -0.6333  0.2143
 3899TIP3   OH233187   2.960   0.982  14.293  0.9690 -0.2517 -0.0756
 3899TIP3    H133188   3.047   0.996  14.331  0.5340  1.2970  0.4141
 3899TIP3    H233189   2.942   1.062  14.244 -0.6294 -0.0569  0.7645
 3900TIP3   OH233190   5.562   0.658   4.378  0.4349 -0.5106 -0.1627
 3900TIP3    H133191   5.475   0.692   4.355  1.0783  0.4513 -1.2977
 3900TIP3    H233192   5.612   0.736   4.404  1.2902 -0.8889 -0.6396
 3901TIP3   OH233193   5.873   3.290  13.257  0.5557 -0.3703  0.2953
 3901TIP3    H133194   5.890   3.269  13.165 -0.8664 -1.3629  0.2422
 3901TIP3    H233195   5.779   3.281  13.268  0.7474 -0.8214  1.9867
 3902TIP3   OH233196   4.052   3.888  14.612 -0.3954  0.0707 -0.2680
 3902TIP3    H133197   3.978   3.828  14.619 -0.8535  0.3236 -2.2072
 3902TIP3    H233198   4.129   3.834  14.631 -0.9006 -0.8371 -0.7261
 3903TIP3   OH233199   3.712   1.067  15.094  0.3131 -0.1922  0.2629
 3903TIP3    H133200   3.625   1.096  15.068  0.9356 -0.2717 -2.1038
 3903TIP3    H233201   3.697   1.019  15.176 -2.3933 -2.9951 -1.6512
 3904TIP3   OH233202   5.666   4.336  15.051 -0.0859 -0.0420  0.1242
 3904TIP3    H133203   5.722   4.356  15.126 -3.2124 -1.1098  2.9618
 3904TIP3    H233204   5.705   4.257  15.013  0.5205 -0.5977  1.8110
 3905TIP3   OH233205   6.322   1.727   0.338  0.0444  0.0775  0.3519
 3905TIP3    H133206   6.363   1.676   0.409 -0.7743 -1.2543 -0.1142
 3905TIP3    H233207   6.395   1.778   0.301  0.8289 -0.5439  0.9989
 3906TIP3   OH233208   2.939   0.235   6.010 -0.5391  0.0934  0.6067
 3906TIP3    H133209   2.884   0.299   5.964 -1.4361 -0.7577  0.4616
 3906TIP3    H233210   2.952   0.273   6.097 -2.0420 -0.0504  0.9181
 3907TIP3   OH233211   0.382   4.417  14.084  0.0061  0.2453  0.0781
 3907TIP3    H133212   0.353   4.449  13.999  0.1163 -3.4391 -1.5008
 3907TIP3    H233213   0.340   4.476  14.147 -2.2020  1.5478 -2.4161
 3908TIP3   OH233214   5.321   2.670   1.606  0.2634  0.0351 -0.3437
 3908TIP3    H133215   5.399   2.712   1.569  1.1133 -0.4734  0.8283
 3908TIP3    H233216   5.253   2.737   1.600  0.7955  0.5130 -1.3116
 3909TIP3   OH233217   0.188   4.051  12.830  0.2266  0.0638 -0.5700
 3909TIP3    H133218   0.282   4.043  12.813  0.0875 -0.4093 -1.1655
 3909TIP3    H233219   0.153   3.965  12.807 -0.2839  0.0697  0.1475
 3910TIP3   OH233220   3.069   2.939   1.050  0.2187 -0.1327  0.5168
 3910TIP3    H133221   3.042   2.850   1.069 -0.4433 -0.4928 -1.7821
 3910TIP3    H233222   3.064   2.985   1.134 -0.0817 -2.0700  1.6059
 3911TIP3   OH233223   1.495   1.361   2.421 -0.1636 -0.0782  0.0436
 3911TIP3    H133224   1.459   1.346   2.509 -0.7174  1.5927  0.1486
 3911TIP3    H233225   1.420   1.389   2.369  0.4559  0.5841 -0.5112
 3912TIP3   OH233226   1.113   1.871   3.237  0.3434 -0.1395 -0.4028
 3912TIP3    H133227   1.206   1.850   3.226  0.5787  0.4721  0.3731
 3912TIP3    H233228   1.082   1.887   3.147  1.4055  1.3716 -0.5524
 3913TIP3   OH233229   1.611   2.470  11.945 -0.2825  0.0953  0.5786
 3913TIP3    H133230   1.620   2.445  11.853 -0.4580  0.8055  0.3658
 3913TIP3    H233231   1.592   2.387  11.990 -0.9712 -0.1444 -0.1236
 3914TIP3   OH233232   4.261   3.031   1.717  0.2026 -0.3161 -0.2808
 3914TIP3    H133233   4.169   3.007   1.727  0.4510 -1.2137 -0.0234
 3914TIP3    H233234   4.262   3.096   1.647 -0.4066 -1.7509 -1.6724
 3915TIP3   OH233235   6.592   5.692   1.296 -0.3589  0.0754 -0.1869
 3915TIP3    H133236   6.579   5.786   1.301  0.5506  0.2359 -0.5327
 3915TIP3    H233237   6.528   5.655   1.357  0.1007  0.9959  0.8863
 3916TIP3   OH233238   3.552   4.193  16.003  0.2335  0.0015 -0.2340
 3916TIP3    H133239   3.555   4.135  16.079 -1.3713 -0.2569 -0.3401
 3916TIP3    H233240   3.623   4.162  15.946 -0.8578 -2.2006 -0.5095
 3917TIP3   OH233241   0.634   1.426   3.487 -0.4140  1.0716  0.1225
 3917TIP3    H133242   0.682   1.506   3.509 -0.9787  1.0512  1.5082
 3917TIP3    H233243   0.543   1.446   3.512 -0.6996  0.2620 -0.2498
 3918TIP3   OH233244   0.792   4.026   1.752  0.9699 -0.4348  0.3784
 3918TIP3    H133245   0.725   3.957   1.754 -0.8663  1.2540  1.4488
 3918TIP3    H233246   0.852   4.003   1.822  0.0638 -0.6972  1.0952
 3919TIP3   OH233247   3.857   5.870  16.006  0.0833  0.2920 -0.5536
 3919TIP3    H133248   3.930   5.929  16.024 -0.9469  1.2237  0.7958
 3919TIP3    H233249   3.892   5.807  15.943  1.7930  1.1883 -0.5629
 3920TIP3   OH233250   1.080   5.145   2.949 -0.5607 -0.5680 -0.6357
 3920TIP3    H133251   1.111   5.134   3.039 -1.0545 -0.1401 -0.4071
 3920TIP3    H233252   1.000   5.093   2.945 -1.9864  1.4729 -0.0394
 3921TIP3   OH233253   0.743   2.647   3.007  0.3914  0.7070  0.1996
 3921TIP3    H133254   0.745   2.552   3.017 -0.1860  0.6187 -0.4253
 3921TIP3    H233255   0.743   2.681   3.097  0.8029  0.1281  0.4233
 3922TIP3   OH233256   2.581   4.276  12.761  0.5595  0.1257 -0.8536
 3922TIP3    H133257   2.540   4.287  12.846  4.2136  1.3638  0.9382
 3922TIP3    H233258   2.570   4.361  12.718  1.5668  0.5914 -0.2062
 3923TIP3   OH233259   4.722   2.425  16.599 -0.7089  0.2577 -0.1258
 3923TIP3    H133260   4.773   2.352  16.636 -0.6407  0.1364 -0.4505
 3923TIP3    H233261   4.650   2.438  16.660 -1.4486 -0.9294 -0.6992
 3924TIP3   OH233262   4.806   5.628  14.239 -0.0999 -0.0184 -0.2414
 3924TIP3    H133263   4.886   5.641  14.290  0.2360  1.9179 -1.1686
 3924TIP3    H233264   4.836   5.585  14.159 -0.1979 -0.4851 -0.0307
 3925TIP3   OH233265   3.299   3.784  14.159 -0.1478 -0.1874 -0.1943
 3925TIP3    H133266   3.295   3.753  14.250 -0.7129 -3.0472 -1.0898
 3925TIP3    H233267   3.237   3.857  14.156 -0.6821 -0.5195  1.5624
 3926TIP3   OH233268   4.601   4.494   1.608  0.2990  0.1321 -0.4766
 3926TIP3    H133269   4.666   4.559   1.581 -0.4043  1.3979  0.7239
 3926TIP3    H233270   4.652   4.427   1.654  0.7990  0.9656  0.2117
 3927TIP3   OH233271   1.910   6.802   3.032 -0.5630 -0.0401  0.5580
 3927TIP3    H133272   1.842   6.866   3.011 -0.4969  0.8129  2.7547
 3927TIP3    H233273   1.983   6.854   3.065  0.1601 -1.1434  0.7696
 3928TIP3   OH233274   6.178   1.988  15.404  0.2723  0.0749 -0.0173
 3928TIP3    H133275   6.178   2.008  15.497 -0.4059  0.0200 -0.0008
 3928TIP3    H233276   6.098   1.938  15.390  0.4659 -0.0807 -0.5958
 3929TIP3   OH233277   2.498   6.462  13.025  0.8853  0.1740  0.3012
 3929TIP3    H133278   2.564   6.405  12.986  1.4245  1.7223 -1.1682
 3929TIP3    H233279   2.416   6.435  12.983  1.0269  0.0335  0.1152
 3930TIP3   OH233280   4.993   1.186  16.574 -0.2754 -0.0403 -0.7176
 3930TIP3    H133281   5.069   1.133  16.598 -0.3636 -0.4544 -1.3264
 3930TIP3    H233282   4.918   1.132  16.598 -0.3686 -0.0234 -0.9669
 3931TIP3   OH233283   3.693   3.133  11.847  0.1032 -0.3338 -0.0874
 3931TIP3    H133284   3.787   3.115  11.852 -0.4635 -4.0679 -0.2919
 3931TIP3    H233285   3.680   3.172  11.760  1.1140 -3.1776 -1.6291
 3932TIP3   OH233286   2.910   5.372   3.015 -0.2271  0.3139  0.2088
 3932TIP3    H133287   2.939   5.463   3.018  0.5168  0.2077 -1.9556
 3932TIP3    H233288   2.972   5.329   2.956  0.3054 -1.9669  2.2776
 3933TIP3   OH233289   3.005   0.986  15.901 -0.2189 -0.2519 -0.0277
 3933TIP3    H133290   3.011   0.943  15.816  0.1501  0.7756 -0.5448
 3933TIP3    H233291   3.077   1.050  15.900 -0.4562  0.0421  0.8954
 3934TIP3   OH233292   3.882   1.002   1.319  0.7373  0.4038  0.2719
 3934TIP3    H133293   3.789   0.993   1.300  0.8417 -1.3239  0.4447
 3934TIP3    H233294   3.924   1.001   1.232  0.7030 -0.3367  0.2637
 3935TIP3   OH233295   2.434   4.625   1.291 -0.0336 -0.1373 -0.1490
 3935TIP3    H133296   2.385   4.657   1.215 -1.1092 -0.8857  0.2003
 3935TIP3    H233297   2.424   4.530   1.287  2.8959 -0.5360 -1.0524
 3936TIP3   OH233298   2.341   6.255   1.163 -0.1651  0.1688  0.5460
 3936TIP3    H133299   2.284   6.306   1.107  0.5069  0.0883 -0.2289
 3936TIP3    H233300   2.429   6.288   1.145  0.1255 -0.2712  1.1090
 3937TIP3   OH233301   5.508   6.333   1.585 -0.5187  0.9997 -0.0585
 3937TIP3    H133302   5.523   6.367   1.673 -0.3515  1.5566 -0.2935
 3937TIP3    H233303   5.431   6.382   1.553 -2.3841 -1.2040  0.8069
 3938TIP3   OH233304   0.398   5.252   3.559  0.3272 -0.0165 -0.1751
 3938TIP3    H133305   0.333   5.214   3.500  1.0604  1.1462 -1.8268
 3938TIP3    H233306   0.480   5.210   3.533  0.5454 -0.0881  0.6060
 3939TIP3   OH233307   0.988   4.449   2.603 -0.4709  0.3951  0.0183
 3939TIP3    H133308   0.943   4.419   2.524 -0.0758  0.0240 -0.0699
 3939TIP3    H233309   1.081   4.431   2.586 -0.3536  0.5880  0.4447
 3940TIP3   OH233310   2.782   0.328  13.281  0.2703  0.1293  0.3270
 3940TIP3    H133311   2.689   0.351  13.273  0.1428  0.0406  1.3955
 3940TIP3    H233312   2.829   0.409  13.261 -0.0004 -0.0101 -0.9483
 3941TIP3   OH233313   5.894   1.307  13.037 -0.7648  0.7684  0.4927
 3941TIP3    H133314   5.867   1.387  12.992  0.7170  0.7142 -0.5293
 3941TIP3    H233315   5.989   1.308  13.033 -0.7277 -1.4837 -0.3148
 3942TIP3   OH233316   5.325   5.970   4.433  0.2043  0.0783 -0.4527
 3942TIP3    H133317   5.411   5.995   4.400 -0.1581  1.3076 -0.4808
 3942TIP3    H233318   5.272   6.049   4.426 -0.8527 -0.5891 -0.1622
 3943TIP3   OH233319   2.307   4.676   6.247 -0.9495  0.5920 -0.0900
 3943TIP3    H133320   2.309   4.755   6.193 -0.0136 -1.2690 -3.0538
 3943TIP3    H233321   2.246   4.617   6.201 -0.0637 -1.1379  0.8401
 3944TIP3   OH233322   3.408   4.937   0.397  0.2875  0.0401  0.4812
 3944TIP3    H133323   3.464   5.013   0.381  0.6168 -0.7496 -2.6564
 3944TIP3    H233324   3.319   4.972   0.396  0.5237  0.7210  1.6418
 3945TIP3   OH233325   6.251   5.991   2.117 -0.3631  0.5040 -0.0486
 3945TIP3    H133326   6.317   5.951   2.062 -0.4710 -1.3485  1.0729
 3945TIP3    H233327   6.290   6.073   2.147  1.3829 -0.4813  0.4801
 3946TIP3   OH233328   5.201   2.320   1.258  0.3815  0.1501 -0.2166
 3946TIP3    H133329   5.125   2.274   1.294  0.2124  0.9437  0.4704
 3946TIP3    H233330   5.175   2.412   1.257  1.9485  0.6851  1.7298
 3947TIP3   OH233331   5.282   3.590  13.274 -0.4228  0.0977  0.2453
 3947TIP3    H133332   5.243   3.545  13.349  1.0788  0.4469  1.2903
 3947TIP3    H233333   5.323   3.520  13.223 -1.9725 -0.2164 -0.6253
 3948TIP3   OH233334   6.699   5.355  16.539 -0.8258 -0.2087  0.3573
 3948TIP3    H133335   6.606   5.377  16.526 -0.5025  0.5223 -0.9161
 3948TIP3    H233336   6.730   5.334  16.451  0.2905 -0.1651  0.7354
 3949TIP3   OH233337   0.906   4.425   2.339 -0.3742  0.6239  0.3251
 3949TIP3    H133338   0.949   4.370   2.273 -0.2023  1.1079  0.0287
 3949TIP3    H233339   0.833   4.371   2.370  0.8152 -0.4839  1.3242
 3950TIP3   OH233340   1.074   4.843  16.473 -0.0294  0.4273 -0.2818
 3950TIP3    H133341   1.089   4.757  16.434  1.0109  0.7307 -0.5881
 3950TIP3    H233342   1.150   4.895  16.447 -0.1299  1.1353  0.7646
 3951TIP3   OH233343   4.851   4.095   3.637  0.1944  0.8121  0.4687
 3951TIP3    H133344   4.924   4.079   3.697 -0.5829  1.3228  1.5877
 3951TIP3    H233345   4.893   4.114   3.552  1.2985 -0.3426  0.7358
 3952TIP3   OH233346   6.477   0.128  16.733  0.4776 -0.5454 -0.2024
 3952TIP3    H133347   6.490   0.204  16.789  1.1151 -0.8984  0.1387
 3952TIP3    H233348   6.436   0.163  16.654  1.1701  0.2292 -0.2314
 3953TIP3   OH233349   4.920   3.485   3.308  0.1825 -0.0454 -0.1731
 3953TIP3    H133350   4.911   3.394   3.280  1.0866 -0.4038  0.6354
 3953TIP3    H233351   4.862   3.534   3.250 -2.1265 -1.4041  0.8520
 3954TIP3   OH233352   3.072   5.394  16.425  0.2378  0.1803 -0.0603
 3954TIP3    H133353   3.041   5.305  16.410  1.4285 -0.6087  1.8045
 3954TIP3    H233354   3.152   5.384  16.476  0.0589  2.3287  0.7669
 3955TIP3   OH233355   0.742   3.312  12.139 -0.0096  0.1168  0.4662
 3955TIP3    H133356   0.720   3.385  12.198 -1.7653 -2.3076  3.0744
 3955TIP3    H233357   0.835   3.296  12.154  0.9217  2.8524 -1.5688
 3956TIP3   OH233358   0.872   0.038   2.391  0.0776 -0.3244  0.0488
 3956TIP3    H133359   0.878   0.030   2.486 -0.3235  0.3668  0.1360
 3956TIP3    H233360   0.958   0.009   2.359 -0.1936 -1.7467  0.5287
 3957TIP3   OH233361   0.123   0.230   0.609 -0.2482  0.1993  0.4330
 3957TIP3    H133362   0.166   0.282   0.676  1.0995  0.5227 -0.6262
 3957TIP3    H233363   0.046   0.195   0.651 -0.2067  1.5620  1.7207
 3958TIP3   OH233364   2.717   6.788   5.832  0.2831  0.6205  0.4766
 3958TIP3    H133365   2.653   6.799   5.761  0.1351 -3.4268 -0.2860
 3958TIP3    H233366   2.802   6.788   5.788  0.3264 -0.0560  0.5485
 3959TIP3   OH233367   1.024   1.231   0.160 -0.0967  0.1268  0.0089
 3959TIP3    H133368   1.087   1.302   0.146  0.2888  0.1105  1.4891
 3959TIP3    H233369   1.015   1.190   0.074  0.6482  1.1559 -0.5941
 3960TIP3   OH233370   5.737   5.843   0.040 -0.5047 -0.2747  0.0776
 3960TIP3    H133371   5.786   5.787   0.101  0.0561 -0.3513 -0.4335
 3960TIP3    H233372   5.755   5.932   0.070  0.3713 -0.2750 -0.3995
 3961TIP3   OH233373   1.323   0.804   1.824  0.0102 -0.1723 -0.3695
 3961TIP3    H133374   1.307   0.735   1.888 -1.6000  1.0352  0.5855
 3961TIP3    H233375   1.350   0.879   1.876  0.2728  0.3763 -1.2742
 3962TIP3   OH233376   2.696   0.230   1.563  0.4821  0.5728  0.2384
 3962TIP3    H133377   2.636   0.302   1.547  1.9328  1.7961  0.0044
 3962TIP3    H233378   2.685   0.172   1.488  1.3210  2.0448 -1.0897
 3963TIP3   OH233379   1.415   6.041  16.791  0.2677 -0.4246 -0.2006
 3963TIP3    H133380   1.504   6.073  16.804  0.7608 -0.6569 -2.5287
 3963TIP3    H233381   1.365   6.119  16.765 -0.0960 -0.4036  0.5279
 3964TIP3   OH233382   2.426   5.714  16.615  0.3917 -0.0087  0.3475
 3964TIP3    H133383   2.458   5.639  16.665  0.0176 -1.3395 -1.3173
 3964TIP3    H233384   2.490   5.783  16.633  0.6120 -0.6142  2.1246
 3965TIP3   OH233385   4.769   2.303   5.932  0.1479  0.0903  0.0950
 3965TIP3    H133386   4.849   2.255   5.910  1.0038  0.6709  1.7416
 3965TIP3    H233387   4.744   2.268   6.018  0.2884  1.9113  0.9141
 3966TIP3   OH233388   4.874   6.754  14.662  0.2967  0.3291 -0.0645
 3966TIP3    H133389   4.912   6.674  14.627  0.2051  0.4093 -0.3511
 3966TIP3    H233390   4.937   6.823  14.639 -0.4506  0.6098 -1.3682
 3967TIP3   OH233391   6.557   4.935   6.001 -0.1696  0.4631  0.6417
 3967TIP3    H133392   6.500   4.860   5.982 -1.8807  0.7461  3.8780
 3967TIP3    H233393   6.537   4.999   5.933 -2.2263 -0.2541  0.5187
 3968TIP3   OH233394   1.700   0.819   5.442  0.3686  0.3662  0.0834
 3968TIP3    H133395   1.711   0.727   5.416  0.5783  0.8916 -1.8749
 3968TIP3    H233396   1.746   0.826   5.526  1.4789 -1.0367 -0.3665
 3969TIP3   OH233397   4.916   0.015   0.169  0.1680 -0.1426 -0.0743
 3969TIP3    H133398   4.902  -0.078   0.150 -1.5538  0.0908 -0.0568
 3969TIP3    H233399   4.965   0.015   0.252 -1.3180 -1.0213  0.8430
 3970TIP3   OH233400   6.098   5.903  13.289 -0.5008  0.0417 -0.5209
 3970TIP3    H133401   6.131   5.816  13.309  0.8578  1.4255  4.8873
 3970TIP3    H233402   6.170   5.947  13.243 -0.8538 -1.2943 -2.4436
 3971TIP3   OH233403   3.398   3.509   4.202 -0.4700  0.3143 -0.4320
 3971TIP3    H133404   3.457   3.433   4.204  0.6085  1.1379  1.3415
 3971TIP3    H233405   3.372   3.516   4.110  2.0488 -0.2394 -1.2782
 3972TIP3   OH233406   4.812   1.888   4.242  0.4545 -0.2502 -0.2228
 3972TIP3    H133407   4.767   1.804   4.254  0.1120  0.1467  1.6309
 3972TIP3    H233408   4.901   1.865   4.215  0.2508 -1.1976 -0.1015
 3973TIP3   OH233409   1.345   5.572   0.729  0.2402 -0.0789 -0.6100
 3973TIP3    H133410   1.407   5.600   0.662 -1.2095 -0.3078 -2.1169
 3973TIP3    H233411   1.390   5.502   0.775  1.1893 -0.0796 -1.4976
 3974TIP3   OH233412   1.233   3.768  12.810 -0.5885 -0.8176  0.4828
 3974TIP3    H133413   1.144   3.802  12.812 -0.6996 -0.7064 -2.2238
 3974TIP3    H233414   1.284   3.830  12.861 -2.1728 -1.4591  3.0138
 3975TIP3   OH233415   3.002   1.752   0.811 -0.0993  0.0437 -0.0138
 3975TIP3    H133416   2.955   1.793   0.884  0.5581 -0.5505  0.7689
 3975TIP3    H233417   3.050   1.680   0.851  0.0812 -0.4559 -1.0905
 3976TIP3   OH233418   2.134   2.191  16.558  0.3508 -0.3633  0.0246
 3976TIP3    H133419   2.212   2.140  16.582 -0.6906 -1.2643  1.6574
 3976TIP3    H233420   2.119   2.248  16.633 -0.2532  0.1939 -0.5162
 3977TIP3   OH233421   1.184   2.130   1.478  0.4585 -0.9829 -0.0152
 3977TIP3    H133422   1.175   2.068   1.406  0.0801 -0.0628 -0.7768
 3977TIP3    H233423   1.270   2.170   1.464 -0.3797  0.5420 -1.0725
 3978TIP3   OH233424   1.472   5.970  14.677 -0.4591 -0.4061  0.5453
 3978TIP3    H133425   1.549   5.916  14.658 -0.2626 -0.3135  1.0646
 3978TIP3    H233426   1.506   6.058  14.686 -0.7084 -0.2749  0.2190
 3979TIP3   OH233427   5.260   4.901  12.590  0.3121 -0.4491  0.3077
 3979TIP3    H133428   5.194   4.963  12.621  0.0933 -0.4099 -0.2250
 3979TIP3    H233429   5.210   4.825  12.561  0.5929 -0.9880  1.1909
 3980TIP3   OH233430   1.629   3.520   1.380  0.4981  0.4296 -0.6067
 3980TIP3    H133431   1.558   3.461   1.352  0.0614  0.7795 -0.2463
 3980TIP3    H233432   1.682   3.532   1.301  0.1320  0.1963 -0.8929
 3981TIP3   OH233433   1.399   4.993  12.573 -0.2024  0.3712 -0.2806
 3981TIP3    H133434   1.370   4.941  12.498  0.0993 -1.7386  0.9719
 3981TIP3    H233435   1.480   5.034  12.544 -1.7199  2.3075 -2.1529
 3982TIP3   OH233436   5.238   6.730  17.089 -0.3144  0.2494 -0.0733
 3982TIP3    H133437   5.275   6.803  17.138  0.8846 -0.4742  0.1391
 3982TIP3    H233438   5.179   6.771  17.026  0.2545  1.3901  0.1122
 3983TIP3   OH233439   2.461   1.878   5.534  0.1195 -0.3749 -0.0658
 3983TIP3    H133440   2.459   1.800   5.589  0.5772 -0.0829  0.3739
 3983TIP3    H233441   2.469   1.951   5.596 -0.5846  0.0443 -0.4542
 3984TIP3   OH233442   5.436   5.921  14.959 -0.0772  0.6201 -0.2906
 3984TIP3    H133443   5.493   5.849  14.987  0.1881  0.8169 -0.3125
 3984TIP3    H233444   5.496   5.982  14.915 -0.3580  0.6899 -0.5735
 3985TIP3   OH233445   4.621   0.931   5.518  0.7553  0.2343  0.2931
 3985TIP3    H133446   4.631   1.008   5.575  3.9006  0.8571 -0.8945
 3985TIP3    H233447   4.657   0.959   5.434 -0.4644 -1.7740 -0.9784
 3986TIP3   OH233448   5.258   6.180   2.503  1.2221  0.5712  0.0396
 3986TIP3    H133449   5.283   6.253   2.560  0.2105  1.5267 -0.6872
 3986TIP3    H233450   5.162   6.178   2.507  1.2609 -1.4029  0.8508
 3987TIP3   OH233451   0.786   4.620  13.044  0.4093 -0.3273  0.2562
 3987TIP3    H133452   0.758   4.540  13.089 -0.3783 -0.9773 -1.3252
 3987TIP3    H233453   0.850   4.659  13.104 -2.0654 -0.0131  2.9482
 3988TIP3   OH233454   6.554   0.279   4.923  0.0426 -0.1837 -0.4715
 3988TIP3    H133455   6.640   0.247   4.897 -0.3514 -0.3187 -1.6254
 3988TIP3    H233456   6.495   0.205   4.909 -0.4576  0.2757 -0.8070
 3989TIP3   OH233457   3.085   5.813   5.469 -0.6626 -0.1281 -0.1999
 3989TIP3    H133458   3.157   5.762   5.505 -0.3358  0.1599 -0.4389
 3989TIP3    H233459   3.111   5.832   5.379 -0.7751  0.4593 -0.1172
 3990TIP3   OH233460   5.667   6.741   5.736 -0.4908 -0.0206  0.2372
 3990TIP3    H133461   5.667   6.667   5.797  0.6450  0.0443  0.3380
 3990TIP3    H233462   5.666   6.701   5.649 -0.8147 -0.1304  0.2890
 3991TIP3   OH233463   2.217   0.108  14.094  0.7953 -0.0130 -0.3522
 3991TIP3    H133464   2.246   0.023  14.062  1.0053 -0.2132  0.3545
 3991TIP3    H233465   2.293   0.142  14.142  1.0715  1.0162 -1.4662
 3992TIP3   OH233466   1.315   4.119   4.198 -0.3942  0.4654 -0.1927
 3992TIP3    H133467   1.348   4.037   4.161 -0.6853  0.6483 -0.8727
 3992TIP3    H233468   1.266   4.159   4.127 -3.4898 -0.5358  1.1941
 3993TIP3   OH233469   4.956   3.769  14.115 -0.4111  0.2385 -0.0322
 3993TIP3    H133470   4.965   3.797  14.206 -1.1652 -0.8103  0.3845
 3993TIP3    H233471   5.046   3.767  14.081 -0.2647  2.3118  0.1422
 3994TIP3   OH233472   1.948   5.943  15.166 -0.0090  0.6472 -0.1076
 3994TIP3    H133473   1.864   5.991  15.163 -0.9185 -0.8550  0.3904
 3994TIP3    H233474   1.989   5.962  15.081  0.1640  3.1033  0.4329
 3995TIP3   OH233475   2.591   4.778   5.278  0.3390  0.5103  0.6931
 3995TIP3    H133476   2.641   4.738   5.207  0.6349  1.4608  0.3586
 3995TIP3    H233477   2.499   4.762   5.254  0.3704  2.0858 -0.7067
 3996TIP3   OH233478   5.205   3.910   4.612  0.0249  0.1687 -0.6152
 3996TIP3    H133479   5.246   3.989   4.649 -2.6273  1.3854 -0.0465
 3996TIP3    H233480   5.246   3.900   4.526  2.0532  0.7706  0.2080
 3997TIP3   OH233481   6.723   2.561  14.831 -0.2422  0.4774  0.1069
 3997TIP3    H133482   6.701   2.489  14.772  1.0540 -0.3012  0.5309
 3997TIP3    H233483   6.819   2.562  14.834 -0.2485  1.5638  0.9218
 3998TIP3   OH233484   1.916   5.282   0.804 -0.1871  0.2812  0.1991
 3998TIP3    H133485   2.005   5.311   0.785 -0.3961  1.1859  0.5528
 3998TIP3    H233486   1.927   5.199   0.850  0.4022 -0.5087 -1.3037
 3999TIP3   OH233487   4.803   5.749   1.462  0.3792 -0.4541 -0.5669
 3999TIP3    H133488   4.857   5.792   1.528  0.9449 -2.7633  0.5660
 3999TIP3    H233489   4.714   5.781   1.480  0.5450 -0.8791  1.2157
 4000TIP3   OH233490   1.123   1.920   2.158 -0.0037  0.3024 -0.3732
 4000TIP3    H133491   1.111   1.896   2.066 -1.1161 -1.0312  0.0793
 4000TIP3    H233492   1.193   1.985   2.157  2.2445 -1.9612 -1.8903
 4001TIP3   OH233493   2.325   3.655  14.870  0.3168 -0.5883 -0.0556
 4001TIP3    H133494   2.320   3.725  14.936 -1.4872  1.1116 -1.8297
 4001TIP3    H233495   2.417   3.632  14.867  0.4900 -0.7554  3.0013
 4002TIP3   OH233496   0.577   1.362  12.371 -0.2181  0.9551 -0.0440
 4002TIP3    H133497   0.616   1.326  12.292  0.8811  0.2562  0.7898
 4002TIP3    H233498   0.483   1.347  12.361 -0.0956  0.8824 -1.2007
 4003TIP3   OH233499   5.045   6.370  16.087  0.4561  0.0306  0.3895
 4003TIP3    H133500   5.101   6.373  16.009 -0.7710 -0.7657 -0.5562
 4003TIP3    H233501   4.996   6.452  16.085  1.1958  0.4979  0.9382
 4004TIP3   OH233502   5.469   0.522   5.077  0.0619  0.1021 -0.2738
 4004TIP3    H133503   5.387   0.525   5.026 -0.1228  1.3986  0.0603
 4004TIP3    H233504   5.459   0.446   5.134  0.1374 -1.2035 -1.9312
 4005TIP3   OH233505   0.968   1.432  14.384  0.0676  0.1461 -0.4227
 4005TIP3    H133506   0.945   1.519  14.416  1.2704 -0.4736  2.4839
 4005TIP3    H233507   1.063   1.434  14.375  0.1422 -0.9308 -0.0538
 4006TIP3   OH233508   1.088   6.676  16.038 -1.1219  0.4978 -0.6138
 4006TIP3    H133509   1.027   6.614  16.078 -0.1239 -1.0589 -1.4136
 4006TIP3    H233510   1.158   6.622  16.002 -0.2214  2.0943 -1.4000
 4007TIP3   OH233511   5.763   5.682   4.180 -0.1460  0.0221  0.7209
 4007TIP3    H133512   5.849   5.702   4.145 -0.3645 -0.6451 -0.2351
 4007TIP3    H233513   5.768   5.589   4.205 -0.9094 -0.3432 -0.4013
 4008TIP3   OH233514   5.296   6.096  14.159  0.7060  0.3660  0.0455
 4008TIP3    H133515   5.241   6.152  14.105 -0.5906 -0.6117  0.3153
 4008TIP3    H233516   5.306   6.015  14.108 -0.8130 -0.7044  1.3393
 4009TIP3   OH233517   1.020   6.276  10.597  0.1714 -0.0185  0.6992
 4009TIP3    H133518   0.934   6.314  10.613  0.6564  0.9943  0.9343
 4009TIP3    H233519   1.071   6.346  10.557  1.5472  0.0862  2.5036
 4010TIP3   OH233520   5.881   3.092  14.722  0.1381  0.3479  0.4524
 4010TIP3    H133521   5.946   3.116  14.657  0.3641  0.5383  0.7469
 4010TIP3    H233522   5.833   3.020  14.682  2.1458 -1.5127  1.2199
 4011TIP3   OH233523   4.010   4.119   5.405 -0.0852  0.0853 -0.2270
 4011TIP3    H133524   4.018   4.191   5.467  3.0063  0.6289 -1.0487
 4011TIP3    H233525   3.977   4.046   5.456 -0.2806  1.2420  1.3681
 4012TIP3   OH233526   0.381   5.026   3.996 -0.6612  0.3343 -0.4180
 4012TIP3    H133527   0.333   4.977   3.930 -2.2286  0.9260  0.2411
 4012TIP3    H233528   0.322   5.029   4.072  0.1620  1.5995  0.2066
 4013TIP3   OH233529   1.151   1.871  12.649 -0.5822  1.0274 -0.2099
 4013TIP3    H133530   1.127   1.963  12.642  1.2835  1.4406 -2.1614
 4013TIP3    H233531   1.122   1.832  12.567  0.2348  0.2825 -0.1647
 4014TIP3   OH233532   1.951   5.198  12.004 -0.1633 -0.2335  0.5784
 4014TIP3    H133533   1.965   5.289  12.029  0.3595 -0.7790  2.4578
 4014TIP3    H233534   1.860   5.195  11.975 -0.0131  0.9882 -0.0796
 4015TIP3   OH233535   4.814   1.624  13.892 -0.1070 -0.6073 -0.5337
 4015TIP3    H133536   4.769   1.655  13.813  0.6254 -1.2422 -1.2233
 4015TIP3    H233537   4.861   1.701  13.924 -0.5982 -0.2847 -0.5803
 4016TIP3   OH233538   5.692   6.805  12.850  0.0177 -0.2488 -0.3836
 4016TIP3    H133539   5.606   6.804  12.892  0.1230 -1.2145 -0.1725
 4016TIP3    H233540   5.751   6.840  12.916  0.0383 -0.9845 -0.0035
 4017TIP3   OH233541   6.112   1.978   6.386 -0.2547 -0.0396  0.9866
 4017TIP3    H133542   6.058   1.900   6.386 -1.0963  0.5256  1.2985
 4017TIP3    H233543   6.062   2.042   6.335 -0.3126  0.7652  1.9976
 4018TIP3   OH233544   6.095   4.313  10.330  0.2872 -0.9349 -0.8427
 4018TIP3    H133545   6.098   4.407  10.313 -0.2254 -0.5626  0.8556
 4018TIP3    H233546   6.179   4.280  10.299  2.4246  0.8631  2.4465
 4019TIP3   OH233547   1.542   4.019  14.521  0.5210 -0.4359  0.1382
 4019TIP3    H133548   1.451   3.997  14.503  0.3637  1.0116 -0.9578
 4019TIP3    H233549   1.544   4.114  14.527  1.7184 -0.5145  1.6319
 4020TIP3   OH233550   3.844   6.034  14.030 -0.2438  0.3724 -0.5239
 4020TIP3    H133551   3.901   6.043  13.954  0.3649  0.7096 -0.0343
 4020TIP3    H233552   3.896   5.985  14.094 -1.5125 -1.8422 -1.0853
 4021TIP3   OH233553   0.450   0.418   2.057  0.1967 -0.4229 -0.1458
 4021TIP3    H133554   0.467   0.422   1.963  0.3647 -1.6787 -0.1784
 4021TIP3    H233555   0.534   0.439   2.098  0.1997 -0.1845 -0.2713
 4022TIP3   OH233556   6.665   4.389   3.066 -0.1883  0.3310 -0.1009
 4022TIP3    H133557   6.622   4.436   3.138 -0.8131  0.7503 -0.7412
 4022TIP3    H233558   6.704   4.312   3.108  0.2446  1.0391  0.8486
 4023TIP3   OH233559   4.335   0.126   2.407 -0.3098 -0.0561  0.3745
 4023TIP3    H133560   4.418   0.135   2.360 -0.7372 -0.8787 -0.5792
 4023TIP3    H233561   4.275   0.185   2.361 -1.0201 -1.6583 -0.8806
 4024TIP3   OH233562   5.084   2.363  14.143 -0.2149 -0.2366  0.6883
 4024TIP3    H133563   4.991   2.367  14.119 -0.1078  0.2373  0.3306
 4024TIP3    H233564   5.127   2.420  14.079  0.3535 -0.6394  0.7102
 4025TIP3   OH233565   1.369   1.528   0.583  0.1866  0.3312  0.5420
 4025TIP3    H133566   1.361   1.435   0.603 -0.8438  0.4643  0.8025
 4025TIP3    H233567   1.291   1.568   0.622 -0.2090  1.0759 -0.9522
 4026TIP3   OH233568   2.303   0.967  14.174  0.1999 -0.0905 -0.3174
 4026TIP3    H133569   2.274   0.879  14.152 -1.6442  0.0960  1.1121
 4026TIP3    H233570   2.398   0.960  14.180  0.1446 -1.8152 -0.8601
 4027TIP3   OH233571   0.711   0.195   2.236 -0.1799 -0.1395  0.6125
 4027TIP3    H133572   0.623   0.207   2.271 -1.6355 -1.2958 -2.3029
 4027TIP3    H233573   0.756   0.143   2.302 -1.3615  1.1512  2.5466
 4028TIP3   OH233574   4.230   5.311  11.801 -0.3374 -0.5366 -0.5027
 4028TIP3    H133575   4.314   5.325  11.845 -0.6636  0.7839 -0.2648
 4028TIP3    H233576   4.186   5.244  11.854  0.5300 -1.2082 -0.6017
 4029TIP3   OH233577   4.981   2.375   5.111 -0.1010 -0.0359  0.1243
 4029TIP3    H133578   5.050   2.432   5.143 -1.0222  1.1178  0.1136
 4029TIP3    H233579   4.996   2.369   5.017 -0.0511  0.2590  0.1141
 4030TIP3   OH233580   1.523   6.633   3.475 -0.0395  0.2488  0.5089
 4030TIP3    H133581   1.535   6.539   3.458 -1.4945  0.0134  0.7000
 4030TIP3    H233582   1.449   6.658   3.420  0.1029  1.2184  0.7407
 4031TIP3   OH233583   6.678   3.560  17.141  0.2807  0.0098  0.0734
 4031TIP3    H133584   6.596   3.609  17.133  0.8976  0.8062 -1.8660
 4031TIP3    H233585   6.657   3.472  17.111  0.1096  0.1949 -0.3542
 4032TIP3   OH233586   0.355   0.488  13.540  0.4706 -0.1294  0.7692
 4032TIP3    H133587   0.347   0.529  13.455  0.4124  1.0483  1.3253
 4032TIP3    H233588   0.446   0.505  13.566  0.5565 -0.6844  0.8411
 4033TIP3   OH233589   1.211   6.209  12.312  0.2649 -0.0883  0.0525
 4033TIP3    H133590   1.205   6.199  12.218  1.8404 -1.0740  0.0260
 4033TIP3    H233591   1.167   6.132  12.348  2.0327 -1.1443  0.0458
 4034TIP3   OH233592   6.795   3.539   3.560  0.6166 -0.4552 -0.2396
 4034TIP3    H133593   6.846   3.578   3.490  0.7541 -2.0856 -1.0868
 4034TIP3    H233594   6.709   3.523   3.522  0.3101 -0.2338  0.3419
 4035TIP3   OH233595   5.912   3.575  11.895  0.0920  0.0520 -0.7110
 4035TIP3    H133596   5.874   3.648  11.846  1.7576  1.5485  0.0849
 4035TIP3    H233597   5.953   3.520  11.828 -0.1930  0.4807 -1.2468
 4036TIP3   OH233598   5.759   1.014  11.715 -0.0658 -0.6778  0.6092
 4036TIP3    H133599   5.806   0.965  11.782 -1.3822 -1.5845  0.9143
 4036TIP3    H233600   5.670   1.023  11.750 -0.1794  0.8727 -0.0007
 4037TIP3   OH233601   5.749   3.661  11.662 -0.2216  0.5001 -0.3498
 4037TIP3    H133602   5.702   3.690  11.584  1.2785 -0.7606 -1.8066
 4037TIP3    H233603   5.830   3.711  11.662 -0.2368  0.5435  0.4613
 4038TIP3   OH233604   2.269   5.106  16.233 -0.2509  0.2050  0.3942
 4038TIP3    H133605   2.198   5.107  16.297  0.2823 -0.5396  1.0185
 4038TIP3    H233606   2.278   5.197  16.205 -0.0996  0.6615  1.8403
 4039TIP3   OH233607   1.321   4.622   5.610  0.6314  0.0292 -0.1695
 4039TIP3    H133608   1.393   4.649   5.553 -0.4310 -0.7994 -2.0043
 4039TIP3    H233609   1.301   4.532   5.581 -0.7581  0.0470  0.6818
 4040TIP3   OH233610   6.794   0.587   2.881  0.5862 -0.2685  0.7565
 4040TIP3    H133611   6.763   0.657   2.938 -0.6577 -1.7239  1.9652
 4040TIP3    H233612   6.781   0.507   2.932  1.9783 -1.4026 -0.5585
 4041TIP3   OH233613   0.748   3.994   4.050 -0.8053  1.1635  0.2130
 4041TIP3    H133614   0.814   4.062   4.063 -0.9966  1.4301 -0.1786
 4041TIP3    H233615   0.669   4.042   4.026 -0.7743  0.7782 -0.7185
 4042TIP3   OH233616   6.759   3.811  14.914 -0.1117  0.5019 -0.4232
 4042TIP3    H133617   6.838   3.866  14.909  1.1889 -1.3313 -1.1046
 4042TIP3    H233618   6.721   3.816  14.826 -0.2771  0.6769 -0.3439
 4043TIP3   OH233619   3.382   3.069   4.703  0.9206  0.1167 -0.2798
 4043TIP3    H133620   3.382   3.003   4.773  0.7639  0.3599 -0.0500
 4043TIP3    H233621   3.443   3.034   4.638  1.2852  0.0191  0.1075
 4044TIP3   OH233622   4.884   2.141   3.737  0.0221  0.4968  0.2706
 4044TIP3    H133623   4.862   2.051   3.713 -0.2422  0.6754 -0.1862
 4044TIP3    H233624   4.886   2.141   3.832  0.6649 -0.1409  0.2702
 4045TIP3   OH233625   3.583   1.422  15.099 -0.2204  0.0859  0.3823
 4045TIP3    H133626   3.530   1.461  15.168  1.2861  1.4489  0.8329
 4045TIP3    H233627   3.673   1.436  15.127  0.4234 -0.4007 -1.2985
 4046TIP3   OH233628   6.029   0.269  15.589  0.0496  0.5187  0.1239
 4046TIP3    H133629   5.974   0.253  15.512  0.7401 -1.3665 -0.0366
 4046TIP3    H233630   6.035   0.364  15.595 -0.5819  0.7223 -1.7525
 4047TIP3   OH233631   5.057   1.662  12.490 -0.5321  0.4112  0.4263
 4047TIP3    H133632   5.062   1.682  12.584  2.8771  0.2168  0.4057
 4047TIP3    H233633   5.102   1.578  12.481 -3.6694 -1.2599 -1.0755
 4048TIP3   OH233634   2.782   0.238   4.774 -0.1568  0.2458 -0.5262
 4048TIP3    H133635   2.815   0.258   4.686  0.3297 -0.5291 -0.5296
 4048TIP3    H233636   2.852   0.266   4.833  1.2733 -2.7110 -0.5998
 4049TIP3   OH233637   5.767   3.407   0.055 -0.3947  0.7176  0.6522
 4049TIP3    H133638   5.683   3.431   0.016  0.0378  0.3367 -0.5459
 4049TIP3    H233639   5.748   3.331   0.110 -1.1332  1.6646  1.7836
 4050TIP3   OH233640   5.836   3.811   4.999  0.1361  0.4167  0.1249
 4050TIP3    H133641   5.877   3.805   4.913 -0.4465  0.8737 -0.1913
 4050TIP3    H233642   5.901   3.854   5.054  0.4981  0.1521 -0.0890
 4051TIP3   OH233643   5.713   6.636  13.449  0.5238 -0.0800 -0.1146
 4051TIP3    H133644   5.659   6.690  13.391  1.6225  0.8294 -0.3083
 4051TIP3    H233645   5.735   6.559  13.397  1.8947  0.9473 -1.1101
 4052TIP3   OH233646   3.817   5.574   4.192  0.0363 -0.0127  0.0628
 4052TIP3    H133647   3.862   5.624   4.260 -1.0981  1.4733 -0.2437
 4052TIP3    H233648   3.870   5.494   4.183  2.9319  1.8167 -0.6432
 4053TIP3   OH233649   5.662   1.090  16.014  0.6443  0.0822  0.6905
 4053TIP3    H133650   5.636   1.146  16.088 -2.4342  0.5522 -0.6285
 4053TIP3    H233651   5.718   1.023  16.054  2.0742  2.3293  2.8063
 4054TIP3   OH233652   5.551   0.374  16.556  0.0800 -0.2874  0.1119
 4054TIP3    H133653   5.492   0.432  16.509 -0.1466 -1.2774 -0.8748
 4054TIP3    H233654   5.636   0.386  16.513 -0.3784 -2.0546 -1.3963
 4055TIP3   OH233655   0.344   3.198   4.872  0.0387 -0.0556  0.2344
 4055TIP3    H133656   0.385   3.170   4.791 -1.7445 -0.9546 -0.4114
 4055TIP3    H233657   0.353   3.294   4.872  0.1232 -0.0557 -1.0037
 4056TIP3   OH233658   2.478   1.558   3.458  0.1257 -0.3939 -0.1181
 4056TIP3    H133659   2.470   1.518   3.545  0.8579  1.0159  0.6282
 4056TIP3    H233660   2.542   1.503   3.412 -0.1626 -1.0706  0.2757
 4057TIP3   OH233661   5.120   4.691   1.465  0.1457  0.0862 -0.3626
 4057TIP3    H133662   5.162   4.775   1.446 -0.7509  0.1292 -2.4575
 4057TIP3    H233663   5.041   4.715   1.514  0.3555  0.3875 -0.1676
 4058TIP3   OH233664   0.900   1.768  14.815  0.1352 -0.0027 -0.2725
 4058TIP3    H133665   0.966   1.831  14.843 -0.7490  0.6319  0.4364
 4058TIP3    H233666   0.897   1.703  14.885  0.7032 -0.5887 -0.7771
 4059TIP3   OH233667   5.702   2.203   2.433 -0.0377 -0.3579 -0.0576
 4059TIP3    H133668   5.721   2.266   2.363 -0.8156  0.8961  0.8161
 4059TIP3    H233669   5.787   2.164   2.455  0.3052 -0.3230 -1.2617
 4060TIP3   OH233670   3.605   4.474  14.934 -0.4857  0.3179 -0.0789
 4060TIP3    H133671   3.594   4.532  14.858 -1.3174  2.8126  1.8209
 4060TIP3    H233672   3.687   4.501  14.974 -0.4480 -0.4325  0.3742
 4061TIP3   OH233673   6.478   6.678   5.482 -0.0038  0.5885 -0.6956
 4061TIP3    H133674   6.437   6.697   5.398 -0.6637  0.2265 -0.4677
 4061TIP3    H233675   6.405   6.680   5.545  0.6085  1.7479  0.0157
 4062TIP3   OH233676   1.250   1.443  14.423  0.6766 -0.3043  0.2748
 4062TIP3    H133677   1.267   1.365  14.476 -0.4139 -0.7832 -0.0524
 4062TIP3    H233678   1.225   1.510  14.486  0.6294 -0.5104  0.4774
 4063TIP3   OH233679   2.665   5.823  13.225  0.3316  0.6638 -0.0045
 4063TIP3    H133680   2.658   5.855  13.315  1.0111  0.5157  0.1105
 4063TIP3    H233681   2.678   5.728  13.234 -0.2689  0.5515 -0.2867
 4064TIP3   OH233682   5.362   0.282  11.587 -0.0713 -0.0323  0.3858
 4064TIP3    H133683   5.451   0.297  11.618 -0.0304  0.3401  0.0945
 4064TIP3    H233684   5.373   0.242  11.501 -0.1867 -0.3101  0.4990
 4065TIP3   OH233685   2.951   0.651  14.551  0.5054  0.0621 -0.1689
 4065TIP3    H133686   2.884   0.717  14.569  1.0983  0.3623  1.0485
 4065TIP3    H233687   2.907   0.587  14.494 -0.5880  0.6305  0.0088
 4066TIP3   OH233688   5.321   4.794   0.666  0.1618  0.3199  0.3005
 4066TIP3    H133689   5.334   4.885   0.693  1.1344 -0.2527  1.9593
 4066TIP3    H233690   5.409   4.758   0.660 -0.2321 -0.7222  0.5146
 4067TIP3   OH233691   6.420   2.445  15.433  0.5759  0.3809 -0.0136
 4067TIP3    H133692   6.369   2.524  15.416  1.3408  0.7729 -0.5393
 4067TIP3    H233693   6.420   2.436  15.528 -3.1735 -1.4460 -0.0055
 4068TIP3   OH233694   5.897   5.825   0.800  0.1603 -0.6887  0.2471
 4068TIP3    H133695   5.946   5.768   0.860  1.1308 -0.2368 -0.0945
 4068TIP3    H233696   5.825   5.859   0.853  0.7360 -0.6624  1.0334
 4069TIP3   OH233697   3.522   0.419   4.901 -0.6763  0.1533 -0.4056
 4069TIP3    H133698   3.463   0.468   4.959 -2.3840 -3.3615  1.1266
 4069TIP3    H233699   3.593   0.390   4.959  0.6695  1.2470 -1.4351
 4070TIP3   OH233700   4.458   5.110   1.693 -0.1659 -0.1619  0.2049
 4070TIP3    H133701   4.415   5.024   1.704  1.0201 -0.7321  0.5000
 4070TIP3    H233702   4.545   5.089   1.661  0.1367  0.9517  0.2768
 4071TIP3   OH233703   4.958   0.077   1.934 -0.3105 -0.2795  0.1168
 4071TIP3    H133704   4.958  -0.011   1.898 -1.6633  0.3044 -1.4468
 4071TIP3    H233705   4.903   0.072   2.012 -1.1217 -0.6461 -0.4719
 4072TIP3   OH233706   1.496   6.732  15.574 -0.1980  0.4170 -0.4616
 4072TIP3    H133707   1.414   6.724  15.623  0.1949  1.5407  0.4138
 4072TIP3    H233708   1.535   6.645  15.580 -0.2989  0.4441  0.9949
 4073TIP3   OH233709   3.276   4.343  12.199  0.0190 -0.0127  0.1187
 4073TIP3    H133710   3.204   4.287  12.228 -1.8505  1.4826 -1.3497
 4073TIP3    H233711   3.301   4.393  12.276  0.6032 -1.6790  1.0378
 4074TIP3   OH233712   2.379   2.383  13.503  0.5658  0.4741  0.2424
 4074TIP3    H133713   2.369   2.422  13.417 -2.4382  0.7459  0.6038
 4074TIP3    H233714   2.409   2.294  13.486 -1.4986 -0.0108 -1.2771
 4075TIP3   OH233715   6.445   2.347   3.626  0.4273  0.2281 -0.3398
 4075TIP3    H133716   6.498   2.287   3.573  0.4095 -0.8788  0.8372
 4075TIP3    H233717   6.477   2.434   3.603  0.2613 -0.1813 -2.3145
 4076TIP3   OH233718   6.016   4.391  16.899  0.1847  0.7341 -0.0804
 4076TIP3    H133719   6.097   4.432  16.930  1.1877  0.7055 -2.4425
 4076TIP3    H233720   5.965   4.463  16.862  0.8713  0.3040 -2.0167
 4077TIP3   OH233721   0.392   3.081  12.564 -0.5834  0.3324  0.3948
 4077TIP3    H133722   0.379   3.086  12.659 -1.1592 -1.0816  0.4107
 4077TIP3    H233723   0.306   3.098  12.527 -0.8990 -1.4827  0.2287
 4078TIP3   OH233724   2.844   5.836  14.816 -0.1308  0.5945 -0.3753
 4078TIP3    H133725   2.904   5.765  14.791  0.2522  0.0619  1.8563
 4078TIP3    H233726   2.860   5.904  14.751  0.3380 -0.8875 -1.9061
 4079TIP3   OH233727   3.952   3.064   1.993  0.4769 -0.0990 -0.0653
 4079TIP3    H133728   3.966   3.020   1.909 -0.2298 -0.7359  0.1488
 4079TIP3    H233729   3.857   3.064   2.005  0.5501  0.3301  0.5583
 4080TIP3   OH233730   2.236   2.395  16.752  0.6147 -0.6990 -0.0619
 4080TIP3    H133731   2.220   2.343  16.830 -1.7284 -1.2503 -0.8355
 4080TIP3    H233732   2.184   2.474  16.765  2.8453  0.7998  0.3601
 4081TIP3   OH233733   6.297   0.884   1.726  0.4110 -0.2221  0.2400
 4081TIP3    H133734   6.329   0.946   1.791 -1.5435 -1.2079  2.2695
 4081TIP3    H233735   6.214   0.920   1.697 -0.3111 -1.3993  0.7713
 4082TIP3   OH233736   3.694   0.807  12.310  0.3070  0.4336  0.5716
 4082TIP3    H133737   3.736   0.742  12.366 -1.6691 -0.3697  1.2151
 4082TIP3    H233738   3.645   0.863  12.370 -1.8001 -0.4067 -0.2507
 4083TIP3   OH233739   4.869   0.859  11.186  0.1103  0.5736 -0.2194
 4083TIP3    H133740   4.810   0.934  11.197 -0.7272 -0.0503 -0.3515
 4083TIP3    H233741   4.869   0.842  11.091  1.8724  1.6260 -0.4654
 4084TIP3   OH233742   5.715   0.947   2.216  0.7322  0.4391 -0.3464
 4084TIP3    H133743   5.748   0.880   2.276 -1.1157  0.0982  0.3621
 4084TIP3    H233744   5.700   0.900   2.134  0.3594  0.1913 -0.1412
 4085TIP3   OH233745   1.895   1.699   1.556 -0.5241  0.4227  0.0253
 4085TIP3    H133746   1.834   1.737   1.620 -0.9164 -1.0356  0.5715
 4085TIP3    H233747   1.850   1.620   1.524  1.6769 -1.6521  1.6581
 4086TIP3   OH233748   2.764   3.344   4.233 -0.0615  0.2965  0.1895
 4086TIP3    H133749   2.743   3.296   4.313 -0.7240  1.4372  0.7279
 4086TIP3    H233750   2.823   3.414   4.262 -1.5206  1.6608 -0.0262
 4087TIP3   OH233751   2.810   0.551   5.216 -0.5078  0.0864 -0.4279
 4087TIP3    H133752   2.740   0.597   5.262 -0.2918 -1.6891  1.8890
 4087TIP3    H233753   2.806   0.462   5.250  3.2811  0.0490  0.3895
 4088TIP3   OH233754   4.748   4.865   4.071  0.5084 -0.4501  0.3749
 4088TIP3    H133755   4.803   4.821   4.136  0.9085 -0.5953 -0.0586
 4088TIP3    H233756   4.695   4.926   4.122  0.5826 -0.8016  0.8773
 4089TIP3   OH233757   2.602   0.917   5.264 -1.2128  1.1263 -0.2688
 4089TIP3    H133758   2.542   0.873   5.324  0.7382 -2.7032 -0.8545
 4089TIP3    H233759   2.569   0.894   5.177  0.1391  0.2974 -0.5872
 4090TIP3   OH233760   3.548   3.999  11.549  0.4172 -0.3925 -0.4569
 4090TIP3    H133761   3.570   4.038  11.465  1.1665  0.3013  0.0463
 4090TIP3    H233762   3.624   4.017  11.605 -1.0736  1.4448  1.1334
 4091TIP3   OH233763   0.180   4.172  11.199 -0.6178 -0.2917 -0.3686
 4091TIP3    H133764   0.195   4.147  11.108  0.1095 -0.1634 -0.2901
 4091TIP3    H233765   0.247   4.238  11.216 -1.5299  0.5953 -0.1171
 4092TIP3   OH233766   4.240   4.727   1.841 -0.5428  0.5179  0.4939
 4092TIP3    H133767   4.257   4.759   1.930  1.3587 -0.2176  0.4483
 4092TIP3    H233768   4.225   4.633   1.852  1.6251  0.0512 -0.0974
 4093TIP3   OH233769   5.425   0.492  12.367 -0.7405 -0.4099 -0.4235
 4093TIP3    H133770   5.388   0.429  12.428  2.5000 -0.9645  1.1592
 4093TIP3    H233771   5.410   0.577  12.408 -1.0493 -0.5241 -0.2943
 4094TIP3   OH233772   1.094   2.476   4.211  0.1786  0.2387  0.1919
 4094TIP3    H133773   0.999   2.466   4.216  0.0879  0.9122 -0.0651
 4094TIP3    H233774   1.108   2.569   4.191  0.8570 -0.0024 -0.5569
 4095TIP3   OH233775   6.531   6.177  14.883  0.2161  0.4543 -0.1967
 4095TIP3    H133776   6.546   6.261  14.928 -0.1707  0.4989 -0.1391
 4095TIP3    H233777   6.483   6.201  14.804 -0.9538  0.1888  0.4066
 4096TIP3   OH233778   2.002   2.855  13.637  0.2485 -0.1137  0.5247
 4096TIP3    H133779   1.929   2.891  13.687  0.0625  3.4798 -1.9855
 4096TIP3    H233780   1.960   2.809  13.564  0.2904  2.4524 -1.2514
 4097TIP3   OH233781   5.494   2.128   4.934  0.3696 -0.0453 -0.1715
 4097TIP3    H133782   5.483   2.045   4.981  0.9653 -0.4132 -0.6660
 4097TIP3    H233783   5.580   2.160   4.962  0.2344  0.2972 -0.1450
 4098TIP3   OH233784   2.413   2.459   2.855  0.0504 -0.1669  0.1236
 4098TIP3    H133785   2.454   2.523   2.913  1.5940  0.5207 -1.6079
 4098TIP3    H233786   2.464   2.379   2.866  0.3139 -0.0505 -0.2488
 4099TIP3   OH233787   2.910   0.253   3.296 -0.2934 -0.1711  0.0464
 4099TIP3    H133788   2.873   0.340   3.284 -0.7684 -0.4908 -0.8709
 4099TIP3    H233789   2.860   0.215   3.368 -0.2714  0.2115  0.2642
 4100TIP3   OH233790   0.400   1.903   1.575 -0.3118  0.2508  0.3630
 4100TIP3    H133791   0.465   1.972   1.561 -1.3303  1.1256 -0.2270
 4100TIP3    H233792   0.334   1.918   1.507 -1.8728  0.2858  1.8078
 4101TIP3   OH233793   3.107   4.165  14.625 -0.4888 -0.0459  0.4283
 4101TIP3    H133794   3.087   4.249  14.583  1.5250 -0.2872 -1.1452
 4101TIP3    H233795   3.142   4.111  14.555  1.4877 -1.0388  2.1016
 4102TIP3   OH233796   6.039   0.997   1.550 -0.0931  0.6030 -0.5406
 4102TIP3    H133797   6.053   1.068   1.488 -0.3170  1.4792  0.3802
 4102TIP3    H233798   5.959   1.020   1.596 -1.4599 -1.4125 -1.7443
 4103TIP3   OH233799   5.065   4.992  12.753  0.7358 -0.3845 -0.3540
 4103TIP3    H133800   5.012   5.061  12.793  0.5784 -0.0959 -1.0522
 4103TIP3    H233801   5.143   4.987  12.808  0.3787 -0.2193  0.1773
 4104TIP3   OH233802   5.900   0.798  15.647 -0.0551  0.0754  0.2448
 4104TIP3    H133803   5.907   0.870  15.710 -5.8037  0.7524  0.6482
 4104TIP3    H233804   5.884   0.841  15.563  1.1397 -0.8518 -0.4977
 4105TIP3   OH233805   5.651   0.892  13.794 -0.1070  0.1132 -0.4790
 4105TIP3    H133806   5.694   0.809  13.774  2.4404  0.5814  2.2539
 4105TIP3    H233807   5.557   0.875  13.781  0.3161 -3.1955  0.0201
 4106TIP3   OH233808   3.299   5.333  13.249  0.2426 -0.4567  0.4167
 4106TIP3    H133809   3.265   5.279  13.321 -1.9172 -0.4733 -0.5395
 4106TIP3    H233810   3.346   5.271  13.193  1.1892 -0.5996  1.3521
 4107TIP3   OH233811   4.861   1.753   4.862 -0.3171  0.2635 -0.1668
 4107TIP3    H133812   4.854   1.822   4.796 -0.0602 -1.0469 -1.6363
 4107TIP3    H233813   4.932   1.781   4.920 -0.7243  1.5671 -0.2826
 4108TIP3   OH233814   5.876   1.321   6.069 -0.4592 -0.2449 -0.0890
 4108TIP3    H133815   5.855   1.279   5.986  1.7371 -0.2848 -0.7001
 4108TIP3    H233816   5.907   1.250   6.125  1.1112  0.1674 -0.3673
 4109TIP3   OH233817   2.184   4.784  16.039  0.0679  0.3911 -0.0576
 4109TIP3    H133818   2.186   4.691  16.017  0.8414  0.3866  0.0170
 4109TIP3    H233819   2.107   4.794  16.094  0.5370 -0.4020  0.7720
 4110TIP3   OH233820   5.646   4.810   2.285 -0.0902  0.3908  0.6985
 4110TIP3    H133821   5.576   4.770   2.336 -0.7486  1.2718  0.5100
 4110TIP3    H233822   5.634   4.776   2.197 -1.8864  2.4413  0.0686
 4111TIP3   OH233823   6.082   1.395  12.691 -0.1557  0.0616  0.2640
 4111TIP3    H133824   6.080   1.466  12.755  0.4870  0.8780 -0.5879
 4111TIP3    H233825   6.076   1.439  12.606 -2.3194 -1.0763 -0.2351
 4112TIP3   OH233826   3.424   4.057   4.169  0.6666  0.1040  0.0616
 4112TIP3    H133827   3.510   4.079   4.133  0.2953  2.0153  0.2431
 4112TIP3    H233828   3.366   4.125   4.136 -1.0196 -1.6804 -0.8277
 4113TIP3   OH233829   1.051   0.059  14.939 -0.0350 -0.0517 -0.0483
 4113TIP3    H133830   1.116   0.077  15.006 -0.7536  1.0004  0.3912
 4113TIP3    H233831   1.067  -0.033  14.914 -0.7533 -1.0229  2.7045
 4114TIP3   OH233832   1.049   0.442  15.335  0.9263 -0.1286  0.3248
 4114TIP3    H133833   0.960   0.409  15.334  1.0100 -0.4475 -2.2819
 4114TIP3    H233834   1.049   0.509  15.404 -1.5624  0.5065 -0.2128
 4115TIP3   OH233835   5.540   2.222  14.992 -0.1276  0.6123  0.2214
 4115TIP3    H133836   5.470   2.161  14.968  0.3269 -0.1183  0.6955
 4115TIP3    H233837   5.589   2.176  15.060  3.1395 -0.5392 -2.6263
 4116TIP3   OH233838   3.409   0.836  12.843 -0.3964  0.4366 -0.5480
 4116TIP3    H133839   3.498   0.809  12.867 -0.6546 -1.1460 -1.3070
 4116TIP3    H233840   3.365   0.756  12.818 -1.6679  1.3782 -1.4462
 4117TIP3   OH233841   3.920   5.589  14.911  0.4031  0.0863 -0.4005
 4117TIP3    H133842   3.901   5.496  14.920 -0.7622  0.3609  0.0341
 4117TIP3    H233843   3.865   5.632  14.976  1.2776  1.0520 -0.2682
 4118TIP3   OH233844   6.596   0.573  13.471  0.0091  0.4425  0.3911
 4118TIP3    H133845   6.502   0.573  13.453  0.0495  0.9791  0.1757
 4118TIP3    H233846   6.608   0.500  13.532 -0.0863 -1.5194 -1.8194
 4119TIP3   OH233847   0.658   6.376   4.332  0.2965 -0.0496  1.0129
 4119TIP3    H133848   0.740   6.359   4.285 -0.0058  1.4606 -0.1450
 4119TIP3    H233849   0.660   6.315   4.406  1.8674 -0.9191  0.3158
 4120TIP3   OH233850   2.365   2.580   1.974 -0.2748  0.9577 -0.0830
 4120TIP3    H133851   2.317   2.503   2.005 -0.8042  1.3684  0.1334
 4120TIP3    H233852   2.354   2.580   1.879 -1.2582  1.4020  0.0180
 4121TIP3   OH233853   5.496   2.150   0.694 -0.4439 -1.0939  0.5209
 4121TIP3    H133854   5.443   2.167   0.773 -1.7338  3.1285 -0.9730
 4121TIP3    H233855   5.438   2.101   0.636 -1.1662 -0.3698  0.6014
 4122TIP3   OH233856   3.684   1.446  11.316 -0.1363  0.0726 -0.5677
 4122TIP3    H133857   3.773   1.482  11.317 -0.0844 -0.0360 -1.0566
 4122TIP3    H233858   3.652   1.459  11.405  1.1604 -1.8557  0.2471
 4123TIP3   OH233859   5.199   1.829  16.403 -0.0035  0.5127  0.2218
 4123TIP3    H133860   5.118   1.780  16.405  0.7055 -0.6665  0.9734
 4123TIP3    H233861   5.268   1.763  16.406  0.9877  1.5256  2.0141
 4124TIP3   OH233862   6.673   4.593  15.386  0.2800 -0.1712  0.1231
 4124TIP3    H133863   6.666   4.612  15.479 -0.8562 -1.8083  0.4168
 4124TIP3    H233864   6.650   4.501  15.378 -0.2486  0.0760 -1.8545
 4125TIP3   OH233865   0.755   5.719   0.552  0.8540 -0.4065 -0.8199
 4125TIP3    H133866   0.695   5.713   0.626  1.6689 -1.3281 -0.2172
 4125TIP3    H233867   0.842   5.727   0.591  1.3937 -1.8235 -1.6441
 4126TIP3   OH233868   4.018   4.564  16.763 -0.1914 -0.5021  0.2385
 4126TIP3    H133869   3.972   4.488  16.728  0.8424 -1.2776  0.5038
 4126TIP3    H233870   3.958   4.600  16.828 -2.6001  1.5646 -2.8390
 4127TIP3   OH233871   2.267   0.421   0.373 -0.7637  0.7758  0.7140
 4127TIP3    H133872   2.233   0.344   0.328 -0.3793  2.4783 -2.8050
 4127TIP3    H233873   2.362   0.407   0.377 -0.9734 -0.5442  3.6354
 4128TIP3   OH233874   2.373   2.823   1.164 -0.1170  0.1507 -0.1497
 4128TIP3    H133875   2.357   2.891   1.098  0.1852  1.4454  1.0682
 4128TIP3    H233876   2.456   2.848   1.204  0.5285 -1.5489 -0.3641
 4129TIP3   OH233877   2.107   6.215   2.327 -0.1383  0.3310 -0.1074
 4129TIP3    H133878   2.163   6.143   2.357 -1.1843  0.0659  1.3097
 4129TIP3    H233879   2.053   6.177   2.258 -0.2227 -0.0561  0.1708
 4130TIP3   OH233880   0.338   1.068  15.180 -0.2469  0.5105  0.3569
 4130TIP3    H133881   0.306   1.106  15.099 -1.1123 -1.4521 -0.2762
 4130TIP3    H233882   0.264   1.074  15.241 -0.6053 -0.6223  0.0643
 4131TIP3   OH233883   0.655   2.692   0.774 -0.6674 -0.5216  0.0846
 4131TIP3    H133884   0.645   2.706   0.680  1.8777 -0.2485 -0.2093
 4131TIP3    H233885   0.715   2.618   0.782 -0.8457 -0.5441  1.4864
 4132TIP3   OH233886   5.418   0.607   3.962 -0.5337  0.4613  0.6172
 4132TIP3    H133887   5.339   0.582   4.009 -0.2447 -0.6207  0.5414
 4132TIP3    H233888   5.403   0.698   3.936 -1.7412  0.2657  0.6189
 4133TIP3   OH233889   3.293   4.546   5.555  0.0290  0.1733 -0.4280
 4133TIP3    H133890   3.241   4.563   5.634  0.6387  0.4667 -0.0793
 4133TIP3    H233891   3.249   4.596   5.486  1.0388  2.1932  0.3065
 4134TIP3   OH233892   5.386   6.289  16.348  0.6429 -0.6637  0.0712
 4134TIP3    H133893   5.462   6.235  16.323  0.5999 -1.5939  1.8327
 4134TIP3    H233894   5.316   6.259  16.290  1.2415 -0.7537 -0.6350
 4135TIP3   OH233895   3.728   1.299   4.093 -0.5892  0.1965 -0.7896
 4135TIP3    H133896   3.713   1.291   3.999  2.1638  3.4009 -1.7061
 4135TIP3    H233897   3.695   1.386   4.116  0.1768  0.0988  0.8601
 4136TIP3   OH233898   4.254   6.507  16.502  0.3817 -0.2395 -0.0449
 4136TIP3    H133899   4.181   6.502  16.563  1.4098 -0.5722  1.1913
 4136TIP3    H233900   4.240   6.590  16.455 -0.9017 -0.4145 -0.0049
 4137TIP3   OH233901   5.046   2.610  17.136 -0.0476 -0.1733 -0.0408
 4137TIP3    H133902   4.975   2.555  17.168 -0.7531  0.6478 -0.1637
 4137TIP3    H233903   5.115   2.600  17.201 -0.0668 -1.3686 -0.1784
 4138TIP3   OH233904   6.300   4.059  11.899 -0.5905  0.5677 -0.1239
 4138TIP3    H133905   6.244   4.109  11.959  0.5992 -0.9398  2.3911
 4138TIP3    H233906   6.273   3.968  11.911  1.2196 -0.0108 -0.1428
 4139TIP3   OH233907   6.447   4.121  11.654  0.2174  0.6389  0.3722
 4139TIP3    H133908   6.473   4.039  11.612  0.7381  0.7434  0.4855
 4139TIP3    H233909   6.410   4.095  11.738 -1.5997  0.3562 -0.4588
 4140TIP3   OH233910   6.354   5.961  14.335  0.8081  0.9866  0.0008
 4140TIP3    H133911   6.363   5.890  14.399  0.4247  2.2757  1.5718
 4140TIP3    H233912   6.343   5.917  14.251  1.6289 -0.7816  0.7701
 4141TIP3   OH233913   2.023   1.087  14.066  0.1337  0.0421  0.7910
 4141TIP3    H133914   2.109   1.129  14.066  0.7713 -1.1896  0.2999
 4141TIP3    H233915   2.037   1.006  14.115 -0.5410 -0.5482  0.0357
 4142TIP3   OH233916   2.316   3.035  15.926 -0.3590 -0.1866  0.2853
 4142TIP3    H133917   2.321   3.078  16.012 -1.6146  0.2014  0.1981
 4142TIP3    H233918   2.230   3.062  15.892 -0.2560 -1.0667 -0.7024
 4143TIP3   OH233919   3.241   0.058   4.216  0.2728  0.2962  0.3780
 4143TIP3    H133920   3.329   0.028   4.192 -1.0289 -2.1499 -1.8801
 4143TIP3    H233921   3.211  -0.007   4.280 -0.4359  0.1757 -0.0628
 4144TIP3   OH233922   2.045   3.892  16.695 -0.1085  0.2014  0.6021
 4144TIP3    H133923   2.119   3.953  16.702 -0.2315  0.2405  1.8102
 4144TIP3    H233924   2.030   3.882  16.601  0.6891  1.0979  0.3704
 4145TIP3   OH233925   3.335   2.228  13.245 -0.2738 -0.5808 -0.5137
 4145TIP3    H133926   3.322   2.149  13.193  2.7156 -1.5069 -0.0221
 4145TIP3    H233927   3.429   2.244  13.242 -0.4443  1.3753  1.6745
 4146TIP3   OH233928   1.633   0.601   2.920  0.2091  0.0859  0.4562
 4146TIP3    H133929   1.671   0.648   2.846 -0.2625  0.1830  0.2729
 4146TIP3    H233930   1.544   0.580   2.892  0.4643 -1.0691  0.4700
 4147TIP3   OH233931   5.667   2.443  16.153 -0.3345 -0.1647 -0.3416
 4147TIP3    H133932   5.625   2.417  16.235  1.2931  0.1364  0.6354
 4147TIP3    H233933   5.701   2.531  16.170  1.1904 -0.6181 -0.8522
 4148TIP3   OH233934   0.785   5.007   2.283  0.0022  0.1449 -0.3713
 4148TIP3    H133935   0.874   4.979   2.264  0.4067  1.9794 -1.4014
 4148TIP3    H233936   0.748   5.031   2.198 -1.3471 -0.1797  0.0915
 4149TIP3   OH233937   3.540   5.666   4.370  0.1302  0.4745 -0.2655
 4149TIP3    H133938   3.615   5.607   4.364 -0.0063  0.1016  1.2448
 4149TIP3    H233939   3.576   5.753   4.354  0.6144  0.1479 -0.9687
 4150TIP3   OH233940   1.076   1.276   4.766  0.5457 -0.6086  0.1288
 4150TIP3    H133941   1.003   1.225   4.801  0.0298  0.5838  0.8657
 4150TIP3    H233942   1.139   1.280   4.839  0.2796  0.3527  0.3187
 4151TIP3   OH233943   5.279   5.361  14.636 -0.2150 -0.1164 -0.4692
 4151TIP3    H133944   5.310   5.362  14.727  0.0621  0.8443 -0.5581
 4151TIP3    H233945   5.261   5.269  14.618 -1.6434 -0.1862  1.0295
 4152TIP3   OH233946   1.976   4.675   1.750  0.2169  0.3811 -0.0557
 4152TIP3    H133947   1.939   4.726   1.678  0.2626 -0.1165 -0.4434
 4152TIP3    H233948   1.972   4.584   1.718  0.7253  0.2113  0.3570
 4153TIP3   OH233949   0.648   2.812  16.941 -0.3945  0.3341  0.0123
 4153TIP3    H133950   0.691   2.892  16.913  0.9432 -0.2904  0.1839
 4153TIP3    H233951   0.719   2.757  16.975 -1.3571 -0.6779  0.4653
 4154TIP3   OH233952   4.510   2.689  13.024  0.1240  0.6840  0.1137
 4154TIP3    H133953   4.429   2.652  13.059  0.2300 -0.5286 -0.8687
 4154TIP3    H233954   4.483   2.770  12.981 -0.7185 -0.1488 -0.9647
 4155TIP3   OH233955   0.391   6.407  13.005 -0.4953 -0.6394 -0.0457
 4155TIP3    H133956   0.332   6.394  12.931 -1.0957 -0.7220  0.4314
 4155TIP3    H233957   0.430   6.494  12.990 -0.3430 -0.8030 -0.6284
 4156TIP3   OH233958   0.099   2.094   6.467 -0.6793  0.2818 -0.5477
 4156TIP3    H133959   0.146   2.176   6.479  1.5947 -0.9967 -0.0478
 4156TIP3    H233960   0.039   2.110   6.394 -0.6078  2.4626 -0.1782
 4157TIP3   OH233961   1.000   1.510   4.422  0.2831 -0.6504  0.0886
 4157TIP3    H133962   1.086   1.533   4.458  0.4460 -0.6169 -0.3162
 4157TIP3    H233963   0.953   1.471   4.496  0.6401 -0.6542  0.3178
 4158TIP3   OH233964   4.621   5.433  12.671  0.3497  0.1381 -0.4832
 4158TIP3    H133965   4.713   5.411  12.665  0.4936 -0.4132  2.3516
 4158TIP3    H233966   4.615   5.522  12.638  2.3229  0.9790  1.2088
 4159TIP3   OH233967   5.188   6.608   1.042  0.0670  0.4038  0.0870
 4159TIP3    H133968   5.136   6.647   0.971  1.2064  1.4406 -0.2155
 4159TIP3    H233969   5.153   6.520   1.051  0.3916 -0.0459 -2.3005
 4160TIP3   OH233970   3.367   5.708   3.413 -0.1058  0.7065 -0.0800
 4160TIP3    H133971   3.407   5.771   3.473 -1.2578  1.3288  0.0524
 4160TIP3    H233972   3.300   5.758   3.366 -0.2667 -0.1487 -0.7865
 4161TIP3   OH233973   0.087   3.810  16.660 -0.2180 -0.3731  0.4334
 4161TIP3    H133974   0.158   3.870  16.640 -0.4348  0.6619  2.5759
 4161TIP3    H233975   0.049   3.790  16.574  0.6396  1.5561 -0.4616
 4162TIP3   OH233976   5.038   5.468   4.230 -0.1840  0.0007  0.6779
 4162TIP3    H133977   4.968   5.475   4.165  0.4598  1.6036  0.1061
 4162TIP3    H233978   5.004   5.511   4.308  0.1097  0.6974  0.4298
 4163TIP3   OH233979   1.822   2.655   6.751  0.2795  0.4799  0.2518
 4163TIP3    H133980   1.791   2.605   6.826  0.1684 -0.3506 -0.3404
 4163TIP3    H233981   1.840   2.742   6.786 -2.2297  0.8836  0.7564
 4164TIP3   OH233982   0.331   3.395   2.023  0.4729 -0.2684  0.0767
 4164TIP3    H133983   0.309   3.460   1.956 -0.3184 -0.4721  0.1329
 4164TIP3    H233984   0.287   3.315   1.994  2.0381 -1.0102 -0.3857
 4165TIP3   OH233985   5.056   1.938  11.591 -0.3428  0.1918 -0.5732
 4165TIP3    H133986   5.002   1.930  11.513  0.8149 -3.6519 -1.1734
 4165TIP3    H233987   5.146   1.941  11.558  0.1920 -1.9538  0.5398
 4166TIP3   OH233988   1.507   1.274   6.490 -0.5488 -0.8952 -0.4576
 4166TIP3    H133989   1.561   1.341   6.534 -1.0229 -0.7138 -0.1381
 4166TIP3    H233990   1.426   1.320   6.468 -2.1170 -2.0426  2.4055
 4167TIP3   OH233991   4.110   3.296   3.026 -0.1814  0.3358  0.4052
 4167TIP3    H133992   4.141   3.232   2.962 -1.0303 -0.0604  0.3682
 4167TIP3    H233993   4.021   3.316   2.997 -0.2477  0.8415  0.9493
 4168TIP3   OH233994   0.258   6.501  16.864  0.7246 -0.1827 -0.2727
 4168TIP3    H133995   0.253   6.489  16.959  2.0631 -0.1035 -0.1746
 4168TIP3    H233996   0.263   6.412  16.829 -0.5435 -0.2482 -0.3487
 4169TIP3   OH233997   5.774   6.003   1.584  0.1506 -0.3233 -0.0751
 4169TIP3    H133998   5.694   6.032   1.628 -0.0157  1.2209 -1.3052
 4169TIP3    H233999   5.750   5.920   1.543 -0.4532 -0.4650  0.5435
 4170TIP3   OH234000   4.398   3.637  11.479 -0.7621 -0.4669  0.1733
 4170TIP3    H134001   4.381   3.731  11.485  1.7072  0.1020 -0.6147
 4170TIP3    H234002   4.483   3.624  11.522 -1.1527 -2.3863  0.4875
 4171TIP3   OH234003   0.809   0.405   2.106  0.3424  0.1396  0.5839
 4171TIP3    H134004   0.755   0.334   2.140 -1.0749  1.7646  2.0090
 4171TIP3    H234005   0.746   0.464   2.064  1.6539 -0.1066 -1.9403
 4172TIP3   OH234006   6.594   5.271  10.946  0.3274  0.4448 -0.2700
 4172TIP3    H134007   6.578   5.361  10.920  1.3476  0.6713 -0.1660
 4172TIP3    H234008   6.684   5.254  10.918  0.7200 -0.0046  1.1896
 4173TIP3   OH234009   1.857   6.256  16.279 -0.8172 -0.5514 -0.2552
 4173TIP3    H134010   1.812   6.287  16.200 -1.2506 -0.2529  0.1083
 4173TIP3    H234011   1.787   6.234  16.340 -0.4850 -0.9628 -0.0198
 4174TIP3   OH234012   6.399   5.901  15.155 -0.7168 -0.2550 -0.1243
 4174TIP3    H134013   6.390   5.901  15.059  0.8091 -0.0908 -0.2952
 4174TIP3    H234014   6.396   5.993  15.179 -1.9907 -0.3447  0.0990
 4175TIP3   OH234015   3.496   3.265  10.421  0.1755  0.3433  0.2782
 4175TIP3    H134016   3.565   3.297  10.363 -1.0402  2.5062 -0.1124
 4175TIP3    H234017   3.518   3.302  10.507  1.6902 -2.4226  1.2016
 4176TIP3   OH234018   1.049   4.238  13.378  0.2042 -0.9379 -0.4734
 4176TIP3    H134019   1.053   4.273  13.290  0.8513  2.4872  0.7793
 4176TIP3    H234020   1.133   4.194  13.392  0.3433 -0.9364 -1.3055
 4177TIP3   OH234021   5.392   3.624   2.187 -0.1495  0.7031 -0.5579
 4177TIP3    H134022   5.323   3.566   2.154  0.0195  0.5931 -0.7230
 4177TIP3    H234023   5.473   3.573   2.175 -0.1830  0.2795  0.9067
 4178TIP3   OH234024   0.434   6.684   3.500  0.0055  0.4827 -0.1400
 4178TIP3    H134025   0.458   6.696   3.592  0.0302 -0.3577 -0.0253
 4178TIP3    H234026   0.340   6.700   3.497  0.3990  3.1882 -0.4775
 4179TIP3   OH234027   2.901   4.893   1.608  0.3097 -0.4726 -0.2385
 4179TIP3    H134028   2.879   4.950   1.534  1.3725  1.6470  0.9627
 4179TIP3    H234029   2.996   4.881   1.602  0.4244 -0.2108  0.7892
 4180TIP3   OH234030   6.774   5.687  11.150  0.0449 -0.3600 -0.2332
 4180TIP3    H134031   6.734   5.603  11.174  0.9297 -1.5156 -2.5484
 4180TIP3    H234032   6.775   5.687  11.054  1.9751  1.3828 -0.2768
 4181TIP3   OH234033   6.412   1.128  14.076  0.3990  0.9545  0.4139
 4181TIP3    H134034   6.369   1.172  14.002  0.8852  1.2863  0.3235
 4181TIP3    H234035   6.340   1.110  14.137 -0.0578  0.3910 -0.2662
 4182TIP3   OH234036   3.872   2.573   3.829  0.5509  0.2750 -0.4624
 4182TIP3    H134037   3.948   2.611   3.784 -1.4800  0.3321 -4.2039
 4182TIP3    H234038   3.876   2.480   3.809  0.0244  0.1490 -0.0084
 4183TIP3   OH234039   2.543   5.768   4.634  0.0810  0.5862  0.0050
 4183TIP3    H134040   2.467   5.808   4.676 -0.3994 -1.0477  0.7976
 4183TIP3    H234041   2.513   5.743   4.547 -0.1461  0.3581  0.1495
 4184TIP3   OH234042   6.438   4.862  15.486  0.1573 -0.8654 -0.3930
 4184TIP3    H134043   6.410   4.771  15.489  0.0116 -0.9220 -2.1344
 4184TIP3    H234044   6.356   4.912  15.479  0.2806 -0.6883 -0.5924
 4185TIP3   OH234045   4.169   6.595   4.494 -0.1181  0.4732  0.2474
 4185TIP3    H134046   4.175   6.686   4.464  0.7076  0.2749 -0.2240
 4185TIP3    H234047   4.137   6.547   4.418 -0.6256  0.3777  0.5191
 4186TIP3   OH234048   5.230   6.605  13.759  0.1301 -0.1560  0.8351
 4186TIP3    H134049   5.324   6.589  13.750 -0.0555 -0.2788 -1.5711
 4186TIP3    H234050   5.189   6.532  13.713 -1.0394  1.2590 -0.4896
 4187TIP3   OH234051   1.877   1.477  15.651  0.9501 -0.0761  0.0879
 4187TIP3    H134052   1.935   1.460  15.577 -3.2384 -3.4592 -2.9152
 4187TIP3    H234053   1.874   1.395  15.699 -2.1834 -0.5800 -0.7363
 4188TIP3   OH234054   0.997   6.102  15.534 -0.2556  0.0842  0.8817
 4188TIP3    H134055   1.045   6.146  15.604 -0.6887 -0.5160  1.5776
 4188TIP3    H234056   0.973   6.172  15.473  1.9800  0.3175  0.1895
 4189TIP3   OH234057   4.349   0.596  15.167  0.2926 -0.2915  0.1512
 4189TIP3    H134058   4.367   0.664  15.102  0.6234 -0.4192  0.1053
 4189TIP3    H234059   4.280   0.542  15.127 -1.5820  1.2847  1.1039
 4190TIP3   OH234060   0.896   6.234  11.480  0.7214 -0.7645 -0.0083
 4190TIP3    H134061   0.916   6.143  11.455 -0.3737 -1.0123 -0.0524
 4190TIP3    H234062   0.964   6.286  11.438 -0.1481 -1.3169 -2.2490
 4191TIP3   OH234063   6.002   5.894   5.588  0.2103  0.1791  0.2772
 4191TIP3    H134064   6.013   5.984   5.619  1.5642  1.0301 -2.3848
 4191TIP3    H234065   6.085   5.851   5.609  0.6426  0.4002 -0.8821
 4192TIP3   OH234066   1.009   4.310  11.968 -0.3856  0.6920  0.0328
 4192TIP3    H134067   1.029   4.374  11.899 -0.5882  1.1212  0.3724
 4192TIP3    H234068   1.080   4.246  11.961  1.1984  2.2136  1.2332
 4193TIP3   OH234069   1.747   5.761  16.725  0.1499  0.2260  0.2242
 4193TIP3    H134070   1.825   5.781  16.777  0.8033  1.7253 -1.2465
 4193TIP3    H234071   1.683   5.729  16.789  1.7044 -0.3379  1.5665
 4194TIP3   OH234072   5.208   2.482  13.607 -0.1362  0.5543 -0.0745
 4194TIP3    H134073   5.273   2.414  13.589  0.5218  0.9153  0.8899
 4194TIP3    H234074   5.205   2.534  13.527 -1.2140 -1.0312 -1.1385
 4195TIP3   OH234075   4.180   0.971  16.843 -0.3920 -0.2124 -0.2396
 4195TIP3    H134076   4.230   0.889  16.845 -1.0642 -0.6292  0.0680
 4195TIP3    H234077   4.098   0.950  16.889 -1.0517  0.3122 -1.1364
 4196TIP3   OH234078   4.547   6.433  15.470 -0.4554  0.4179 -0.1497
 4196TIP3    H134079   4.619   6.380  15.504 -0.2930 -0.9356 -2.3600
 4196TIP3    H234080   4.469   6.400  15.514  0.0227  0.4472  0.7295
 4197TIP3   OH234081   6.688   0.689   3.878  0.4037 -0.2375 -0.1075
 4197TIP3    H134082   6.728   0.603   3.868  1.7468  0.4959 -1.5532
 4197TIP3    H234083   6.603   0.672   3.918  0.6230 -2.2238 -0.3950
 4198TIP3   OH234084   0.008   5.525  14.541 -0.0456 -0.1548 -0.0714
 4198TIP3    H134085  -0.045   5.601  14.517 -1.0524 -0.5705  0.7701
 4198TIP3    H234086  -0.042   5.481  14.609  1.3759 -0.5779  0.7481
 4199TIP3   OH234087   5.236   4.889  14.640 -0.1031  0.2769 -0.1372
 4199TIP3    H134088   5.299   4.818  14.644  0.3295  0.6383 -0.5352
 4199TIP3    H234089   5.287   4.966  14.616 -0.3651  0.9587  1.3676
 4200TIP3   OH234090   0.038   6.008   0.774 -0.2437  0.2894  0.1702
 4200TIP3    H134091   0.043   6.099   0.744 -1.1790  0.3439  0.1633
 4200TIP3    H234092  -0.006   6.013   0.859  0.4134 -0.0851  0.5368
 4201TIP3   OH234093   6.249   4.396  12.988  0.3653 -0.7044 -0.0859
 4201TIP3    H134094   6.224   4.306  12.966  0.8999 -0.9353  0.2428
 4201TIP3    H234095   6.344   4.393  12.997  0.4704  0.0542 -0.7988
 4202TIP3   OH234096   1.556   4.445   2.642  0.2469  0.1331 -0.1439
 4202TIP3    H134097   1.477   4.392   2.647 -0.1594  0.8227  1.3761
 4202TIP3    H234098   1.624   4.384   2.615 -0.2228 -1.1579  1.4644
 4203TIP3   OH234099   5.303   0.149   0.291  0.8707  0.6498 -0.4733
 4203TIP3    H134100   5.264   0.230   0.325  1.4467 -0.0250  1.9966
 4203TIP3    H234101   5.233   0.084   0.299  1.4614  0.1488  0.9631
 4204TIP3   OH234102   2.072   2.087  13.061 -0.4197  0.0055 -0.2088
 4204TIP3    H134103   2.103   2.062  13.149  2.4922 -1.3978 -1.5018
 4204TIP3    H234104   2.134   2.154  13.032 -2.8977  2.4494 -0.3084
 4205TIP3   OH234105   1.052   0.876   0.131 -0.0237 -0.6443 -0.1706
 4205TIP3    H134106   1.108   0.889   0.054 -1.7115  0.5406 -1.2766
 4205TIP3    H234107   1.029   0.783   0.128  1.3353 -1.0020 -0.0603
 4206TIP3   OH234108   6.423   4.268   0.621  0.1429 -0.1158  0.2038
 4206TIP3    H134109   6.454   4.282   0.532  3.7621 -1.4604  1.0651
 4206TIP3    H234110   6.405   4.174   0.626 -1.7445  0.2313  0.4701
 4207TIP3   OH234111   6.178   1.084  13.830 -0.4745 -0.1198  0.4626
 4207TIP3    H134112   6.227   1.003  13.815 -0.8838 -0.2869  0.0000
 4207TIP3    H234113   6.087   1.059  13.819 -0.5277  0.8365 -1.9326
 4208TIP3   OH234114   3.730   1.144   0.156  0.1138  0.0078 -0.3272
 4208TIP3    H134115   3.664   1.133   0.088  0.1860  0.7961 -0.5399
 4208TIP3    H234116   3.813   1.152   0.108  0.1990  0.2896 -0.1346
 4209TIP3   OH234117   6.117   1.051  17.320  0.4033 -0.3645 -0.3155
 4209TIP3    H134118   6.080   1.065  17.233  0.4772 -0.4374 -0.3593
 4209TIP3    H234119   6.074   1.116  17.376  1.4861  0.7690 -0.7255
 4210TIP3   OH234120   5.675   6.090  14.584 -0.7222  0.3229 -0.2873
 4210TIP3    H134121   5.646   6.054  14.500 -1.3247 -0.2636  0.1664
 4210TIP3    H234122   5.770   6.103  14.573 -0.5675 -1.0094 -0.6040
 4211TIP3   OH234123   5.213   6.498   5.548  0.0201 -0.3397 -0.3622
 4211TIP3    H134124   5.192   6.555   5.622  0.0773 -1.9155  0.9154
 4211TIP3    H234125   5.302   6.523   5.523  0.8781 -1.2635  1.5747
 4212TIP3   OH234126   3.137   5.344  12.253 -0.5210 -0.2621  0.5165
 4212TIP3    H134127   3.183   5.408  12.198 -0.1796 -1.0386 -0.1180
 4212TIP3    H234128   3.198   5.324  12.323  0.0033 -1.0624 -0.1569
 4213TIP3   OH234129   4.064   0.521  11.224  0.0317 -0.2316  1.0428
 4213TIP3    H134130   3.969   0.531  11.224 -0.0767 -1.0419  2.2161
 4213TIP3    H234131   4.088   0.518  11.131 -1.0416  0.3018  0.7349
 4214TIP3   OH234132   6.614   4.326  15.078 -0.1896 -0.3204  0.1851
 4214TIP3    H134133   6.570   4.338  14.994 -1.9538  1.5363  1.2731
 4214TIP3    H234134   6.556   4.268  15.127  0.1039 -0.2621  0.6068
 4215TIP3   OH234135   2.849   1.662  13.533  0.1610  0.4143  0.2051
 4215TIP3    H134136   2.874   1.579  13.573  0.1179  0.2430 -0.1174
 4215TIP3    H234137   2.770   1.642  13.483  0.2473  0.6097 -0.0126
 4216TIP3   OH234138   2.285   2.636   2.703  0.2745  0.9738  0.7582
 4216TIP3    H134139   2.324   2.566   2.756 -0.5087 -0.4707 -0.4983
 4216TIP3    H234140   2.223   2.679   2.762 -0.1251 -0.1960  1.2234
 4217TIP3   OH234141   0.624   2.630  15.167  0.6280 -0.1967  0.1365
 4217TIP3    H134142   0.660   2.657  15.251 -1.4088 -2.6698  1.9433
 4217TIP3    H234143   0.664   2.545  15.150 -0.4098 -0.5865 -0.4345
 4218TIP3   OH234144   2.998   4.086   1.385 -0.0411 -0.2584  0.4637
 4218TIP3    H134145   2.989   4.161   1.444  1.1368 -0.1774  0.5745
 4218TIP3    H234146   3.071   4.036   1.421 -1.0172 -1.6523  0.5679
 4219TIP3   OH234147   6.600   1.218   4.523 -0.2021 -0.6472 -0.3257
 4219TIP3    H134148   6.660   1.154   4.562  0.3652  0.8258  1.3694
 4219TIP3    H234149   6.646   1.301   4.531 -0.2714 -0.1341 -3.8547
 4220TIP3   OH234150   3.382   2.519   4.814  0.4909  0.0473  0.3706
 4220TIP3    H134151   3.312   2.520   4.748 -0.1683  2.0453  1.0375
 4220TIP3    H234152   3.441   2.449   4.785 -2.1756 -2.3360  0.2434
 4221TIP3   OH234153   6.332   1.245   3.485  0.0455  0.3886  0.1932
 4221TIP3    H134154   6.370   1.269   3.570  2.4584 -0.1826 -0.6620
 4221TIP3    H234155   6.371   1.160   3.464 -0.8359  0.3203 -1.3093
 4222TIP3   OH234156   2.669   1.692  14.887  0.4879 -0.0143 -0.6477
 4222TIP3    H134157   2.652   1.633  14.813 -0.4952  1.3352 -1.5475
 4222TIP3    H234158   2.683   1.633  14.961  1.8805 -1.4188 -1.9525
 4223TIP3   OH234159   5.896   3.686   0.592 -0.2104  0.2095 -0.0053
 4223TIP3    H134160   5.985   3.682   0.557  0.1996  2.9676  0.4848
 4223TIP3    H234161   5.839   3.667   0.517  0.7603 -1.0235 -0.4551
 4224TIP3   OH234162   2.708   1.491   3.191 -0.2308  0.4890 -0.3353
 4224TIP3    H134163   2.789   1.448   3.165 -0.3123 -0.4304  0.8898
 4224TIP3    H234164   2.704   1.569   3.135  0.5921 -0.3721 -1.6451
 4225TIP3   OH234165   6.055   3.629  12.571 -0.0127 -0.1191  0.1562
 4225TIP3    H134166   6.129   3.676  12.533 -1.6187 -0.0085 -3.2020
 4225TIP3    H234167   6.089   3.542  12.592  1.0696 -0.0951 -1.3987
 4226TIP3   OH234168   2.855   3.505  15.911 -0.1730 -0.1379  0.6192
 4226TIP3    H134169   2.819   3.525  15.997  0.3421 -0.9192  1.0320
 4226TIP3    H234170   2.801   3.432  15.878 -0.8067  0.6040 -0.0284
 4227TIP3   OH234171   4.739   6.481  16.581 -0.3648  0.2298  0.4612
 4227TIP3    H134172   4.736   6.387  16.600  0.1410  0.2246  0.5157
 4227TIP3    H234173   4.788   6.487  16.499  0.1142  0.4900  0.7633
 4228TIP3   OH234174   5.306   1.290   5.461 -0.5663 -0.2294  0.6822
 4228TIP3    H134175   5.379   1.317   5.517  0.0124 -1.4219  0.5284
 4228TIP3    H234176   5.250   1.237   5.518 -0.5315 -0.5544  0.4185
 4229TIP3   OH234177   6.385   2.652  14.200  0.8051  0.6046 -0.1294
 4229TIP3    H134178   6.391   2.612  14.113  0.5236 -0.2629  0.2429
 4229TIP3    H234179   6.467   2.627  14.243  0.2437 -0.3428  0.4170
 4230TIP3   OH234180   6.607   5.042   0.949  0.2201  0.0318 -0.2433
 4230TIP3    H134181   6.549   5.088   1.011  1.1492  0.0678  0.6095
 4230TIP3    H234182   6.693   5.082   0.962  1.3132 -2.6030  1.2589
 4231TIP3   OH234183   2.682   3.674  14.102  0.4743 -0.5301  0.3942
 4231TIP3    H134184   2.611   3.738  14.110 -0.2127 -1.3469  1.0465
 4231TIP3    H234185   2.712   3.683  14.012 -0.4458 -0.1438  0.1117
 4232TIP3   OH234186   4.000   3.435   5.190 -0.2238 -0.0637  0.1632
 4232TIP3    H134187   4.024   3.528   5.183 -0.2304 -0.1370 -1.0980
 4232TIP3    H234188   3.918   3.436   5.240 -0.0780  0.5775  0.4126
 4233TIP3   OH234189   5.943   6.042   3.569  0.0297  0.2190 -0.0447
 4233TIP3    H134190   5.909   5.953   3.575 -1.0256  0.6103 -0.0646
 4233TIP3    H234191   5.999   6.041   3.491 -0.6686 -0.2045 -0.5425
 4234TIP3   OH234192   0.802   3.549   5.788 -0.4580  0.1582 -0.1981
 4234TIP3    H134193   0.876   3.499   5.821  0.0448  0.9563 -0.0643
 4234TIP3    H234194   0.765   3.592   5.865 -1.7736 -1.1030 -0.0870
 4235TIP3   OH234195   4.714   0.141  14.199  0.6073  0.1475  0.1564
 4235TIP3    H134196   4.720   0.100  14.285  2.2527 -0.1851 -0.0745
 4235TIP3    H234197   4.660   0.080  14.147  0.1121  0.0524  0.7746
 4236TIP3   OH234198   2.303   2.373  15.385 -0.7087 -0.2330 -0.4378
 4236TIP3    H134199   2.292   2.284  15.351 -1.6732 -0.9085  1.5406
 4236TIP3    H234200   2.214   2.405  15.399 -0.3544  0.7987 -0.4367
 4237TIP3   OH234201   4.145   5.777  13.650 -0.6930 -0.0638 -0.4176
 4237TIP3    H134202   4.232   5.768  13.613 -0.7069 -0.0778 -0.4469
 4237TIP3    H234203   4.110   5.858  13.612 -1.1383 -0.6501 -1.3016
 4238TIP3   OH234204   4.112   2.723   4.248 -0.1467  0.1696 -0.4432
 4238TIP3    H134205   4.195   2.709   4.204  0.3822  2.1532 -0.1641
 4238TIP3    H234206   4.122   2.806   4.294 -1.1357 -1.1276  2.3586
 4239TIP3   OH234207   1.213   2.260   5.969 -0.0124 -0.4232  0.0330
 4239TIP3    H134208   1.164   2.343   5.972  2.0787  0.9266 -0.9421
 4239TIP3    H234209   1.231   2.240   6.061 -2.4369 -1.0419  0.4312
 4240TIP3   OH234210   5.421   4.555  12.878 -0.6697  0.0128 -0.0654
 4240TIP3    H134211   5.431   4.586  12.787  0.1711  1.7882  0.5823
 4240TIP3    H234212   5.352   4.610  12.915  0.8805  1.2616  1.1283
 4241TIP3   OH234213   0.986   6.697   1.299  0.3921  0.0375 -0.4510
 4241TIP3    H134214   0.974   6.613   1.344  0.7106  0.6816  0.8891
 4241TIP3    H234215   0.904   6.711   1.251 -0.8331  0.2962  1.6134
 4242TIP3   OH234216   4.046   0.168  10.938 -0.1400 -0.0534 -0.5449
 4242TIP3    H134217   4.138   0.145  10.951 -0.1424  1.0736  1.7920
 4242TIP3    H234218   4.018   0.110  10.867  1.7809 -1.9907  0.1481
 4243TIP3   OH234219   1.906   2.325  13.136 -0.5323  0.3644  1.0389
 4243TIP3    H134220   1.884   2.351  13.046 -1.0521  0.3337  1.1538
 4243TIP3    H234221   1.934   2.234  13.128 -2.4196 -0.2582  1.1578
 4244TIP3   OH234222   0.055   6.202   5.957 -0.3083  0.4741  0.3350
 4244TIP3    H134223   0.045   6.281   5.904 -1.5653 -0.7294 -1.3520
 4244TIP3    H234224   0.013   6.223   6.040 -2.8748  0.8495 -0.9515
 4245TIP3   OH234225   2.570   0.497  15.039 -0.1753  0.0039 -0.1091
 4245TIP3    H134226   2.497   0.552  15.010 -0.0612 -0.1118 -0.6271
 4245TIP3    H234227   2.648   0.546  15.014 -0.0619  0.4617  1.0814
 4246TIP3   OH234228   3.524   3.604  14.263 -0.0100  0.2609 -0.0305
 4246TIP3    H134229   3.543   3.582  14.355  0.0998 -0.0336 -0.1231
 4246TIP3    H234230   3.466   3.534  14.233  0.1178  0.2483 -0.2460
 4247TIP3   OH234231   2.225   4.416   3.350  0.1529 -0.4569  0.0119
 4247TIP3    H134232   2.298   4.356   3.333  0.1611 -0.1655 -1.0470
 4247TIP3    H234233   2.233   4.438   3.442  0.5672 -1.5361  0.2512
 4248TIP3   OH234234   4.829   0.853   4.141  0.0568  0.4568 -0.0291
 4248TIP3    H134235   4.838   0.929   4.199 -0.6407  0.0123  0.6780
 4248TIP3    H234236   4.739   0.859   4.108 -0.1730 -0.3534  0.4435
 4249TIP3   OH234237   4.354   0.283   5.973 -0.1549  0.2657 -0.3622
 4249TIP3    H134238   4.344   0.274   6.068  1.2361  0.4093 -0.1937
 4249TIP3    H234239   4.264   0.281   5.940 -0.5736 -2.7526  0.6777
 4250TIP3   OH234240   5.595   0.378  11.282 -0.7007 -0.5528 -0.1063
 4250TIP3    H134241   5.589   0.472  11.267 -0.6640 -0.8723 -2.4522
 4250TIP3    H234242   5.649   0.369  11.361  1.2919  1.3400 -1.1704
 4251TIP3   OH234243   3.449   6.743   1.043  0.1272 -0.5953 -0.3270
 4251TIP3    H134244   3.496   6.703   0.971 -1.1936  0.7626 -2.0313
 4251TIP3    H234245   3.401   6.671   1.084 -1.1352 -1.0307 -2.4597
 4252TIP3   OH234246   4.233   1.455   2.573  0.0156 -0.1830 -0.5141
 4252TIP3    H134247   4.286   1.480   2.649 -0.1614 -0.0047 -0.4476
 4252TIP3    H234248   4.189   1.537   2.546 -1.9618 -0.7459  0.7866
 4253TIP3   OH234249   0.152   0.278  16.305 -0.2884 -0.0301 -0.2608
 4253TIP3    H134250   0.074   0.246  16.258 -0.3948  0.3066 -0.3155
 4253TIP3    H234251   0.151   0.373  16.291  0.1709 -0.0341 -0.3133
 4254TIP3   OH234252   0.192   1.370  14.371  0.1616 -0.5346  0.1417
 4254TIP3    H134253   0.102   1.401  14.384  0.0957 -0.4220 -0.5286
 4254TIP3    H234254   0.232   1.436  14.314  0.5004 -0.8724 -0.0164
 4255TIP3   OH234255   5.799   3.971   3.519 -0.6669  0.0601  0.0353
 4255TIP3    H134256   5.873   4.025   3.493  0.2293 -0.1862  1.8639
 4255TIP3    H234257   5.814   3.953   3.612 -2.2045 -1.3117  0.0752
 4256TIP3   OH234258   2.048   2.813   2.124  0.7527  0.6571  0.3817
 4256TIP3    H134259   2.076   2.721   2.125  2.3945  1.0924  2.6182
 4256TIP3    H234260   2.124   2.860   2.089  0.8690  1.3737  1.5660
 4257TIP3   OH234261   5.281   3.878  10.481  0.3299 -0.1042  0.0998
 4257TIP3    H134262   5.351   3.885  10.416  0.7753 -0.8669  0.4912
 4257TIP3    H234263   5.323   3.903  10.564  0.3451 -1.2783  0.4611
 4258TIP3   OH234264   5.392   1.329   1.655 -0.4194 -0.1503  0.1972
 4258TIP3    H134265   5.447   1.407   1.658  0.5082 -0.8161  1.2488
 4258TIP3    H234266   5.416   1.286   1.573  2.4087 -1.6285  1.6669
 4259TIP3   OH234267   5.345   2.768  14.225  0.0964 -0.0862  0.2560
 4259TIP3    H134268   5.322   2.734  14.139  2.5291  1.7533 -1.2426
 4259TIP3    H234269   5.420   2.715  14.252  0.4567  0.5083  0.4245
 4260TIP3   OH234270   2.221   1.077   5.189  0.0977  0.5554 -0.3539
 4260TIP3    H134271   2.157   1.148   5.185 -0.6964 -0.0453  0.9549
 4260TIP3    H234272   2.270   1.094   5.269 -1.6149 -1.5353  1.2725
 4261TIP3   OH234273   3.951   3.608   2.462  0.1769  0.3417  0.2887
 4261TIP3    H134274   3.968   3.674   2.528 -0.6006 -0.3462  1.2037
 4261TIP3    H234275   3.856   3.606   2.453  0.2711  0.5680 -1.0170
 4262TIP3   OH234276   6.600   3.475  16.360  0.4983  0.1898 -0.2610
 4262TIP3    H134277   6.573   3.533  16.289 -0.1524  1.1486  0.7482
 4262TIP3    H234278   6.580   3.524  16.440  1.2156 -0.8700  0.5867
 4263TIP3   OH234279   2.467   4.670  15.281  0.3903  0.0861  0.1646
 4263TIP3    H134280   2.404   4.732  15.317 -0.6108 -0.2945 -0.8793
 4263TIP3    H234281   2.508   4.630  15.358  0.6150  1.5652  0.8483
 4264TIP3   OH234282   3.575   4.854   4.378 -0.8997  0.2818  0.3949
 4264TIP3    H134283   3.580   4.772   4.329 -0.5614 -0.1557  1.1555
 4264TIP3    H234284   3.663   4.865   4.415 -1.1660  0.5874  0.9454
 4265TIP3   OH234285   3.877   0.312   1.748 -0.2476 -1.1367 -0.5086
 4265TIP3    H134286   3.920   0.383   1.795  0.5509 -1.4633 -0.7197
 4265TIP3    H234287   3.792   0.347   1.723 -0.4909 -0.7961  0.7527
 4266TIP3   OH234288   3.469   1.422   2.401 -0.0003 -0.1182 -0.0074
 4266TIP3    H134289   3.422   1.505   2.398  0.4739  0.1851  0.8121
 4266TIP3    H234290   3.403   1.357   2.375 -1.4985  0.0337  2.9212
 4267TIP3   OH234291   4.719   3.767  16.112  0.6127  0.2294  0.0162
 4267TIP3    H134292   4.784   3.755  16.182  0.1316 -0.1391  0.4044
 4267TIP3    H234293   4.635   3.771  16.157  0.2853 -0.1034 -0.5503
 4268TIP3   OH234294   6.202   6.825  17.312 -0.0912 -0.3366  0.3720
 4268TIP3    H134295   6.235   6.838  17.223  0.1695  0.5589  0.5940
 4268TIP3    H234296   6.107   6.828  17.303 -0.0572  0.4164  0.2121
 4269TIP3   OH234297   6.513   0.767  15.930 -0.6509 -0.3824 -0.2575
 4269TIP3    H134298   6.521   0.862  15.926 -0.6735 -0.3488  0.3274
 4269TIP3    H234299   6.544   0.745  16.018 -0.9514 -0.8827 -0.2778
 4270TIP3   OH234300   2.471   4.827  16.656 -0.0394 -0.2821  0.1264
 4270TIP3    H134301   2.558   4.867  16.661 -0.2450  0.1227  0.5670
 4270TIP3    H234302   2.418   4.878  16.718 -0.0880 -1.7960  1.3705
 4271TIP3   OH234303   1.990   0.253  16.311 -0.1735  0.0380 -0.6771
 4271TIP3    H134304   2.008   0.319  16.378  2.7271  0.2899 -1.5705
 4271TIP3    H234305   2.039   0.176  16.338 -1.4040 -0.9135 -1.0118
 4272TIP3   OH234306   4.514   0.453   3.273 -0.2836  0.1446 -0.2943
 4272TIP3    H134307   4.467   0.370   3.272 -0.6628  0.3574 -0.4238
 4272TIP3    H234308   4.477   0.500   3.348 -0.4325  0.3987 -0.5252
 4273TIP3   OH234309   4.178   3.076  13.630  0.2531  0.2080  0.0402
 4273TIP3    H134310   4.085   3.094  13.615 -0.0491  1.0574  2.4425
 4273TIP3    H234311   4.181   3.039  13.718  2.1827 -0.1465 -0.1331
 4274TIP3   OH234312   0.351   1.134  11.642 -0.0380 -0.0166 -0.1947
 4274TIP3    H134313   0.265   1.154  11.605  0.3897  1.1280 -0.6317
 4274TIP3    H234314   0.410   1.135  11.566  0.4196 -0.4524  0.1486
 4275TIP3   OH234315   4.005   0.806  11.726  0.0448  0.4235 -0.0883
 4275TIP3    H134316   4.051   0.737  11.773 -0.1589 -1.3986 -2.3968
 4275TIP3    H234317   3.912   0.788  11.741 -0.0241 -0.1948 -1.1248
 4276TIP3   OH234318   5.171   3.368   5.292 -0.0666  0.5246 -0.0628
 4276TIP3    H134319   5.254   3.347   5.334  0.0557  1.5648  0.2369
 4276TIP3    H234320   5.105   3.335   5.353  0.0659 -2.1974 -1.2488
 4277TIP3   OH234321   3.029   1.929  14.882 -0.6322 -0.1315  0.0606
 4277TIP3    H134322   3.091   1.934  14.955 -0.8631  1.4987  0.1932
 4277TIP3    H234323   3.024   2.019  14.849 -0.8246 -0.7668 -1.7305
 4278TIP3   OH234324   3.460   4.147  17.134 -0.8844  0.1391 -0.1209
 4278TIP3    H134325   3.529   4.182  17.189  0.0893 -1.4577 -0.2494
 4278TIP3    H234326   3.477   4.182  17.046 -0.4920  0.1031 -0.0593
 4279TIP3   OH234327   5.480   1.461  10.361  0.1145 -0.0810 -0.2697
 4279TIP3    H134328   5.549   1.403  10.329  0.3214  0.4487 -0.8046
 4279TIP3    H234329   5.524   1.517  10.426  0.0124 -0.2354 -0.0654
 4280TIP3   OH234330   0.995   4.673  12.726  0.4524 -0.3087 -0.0958
 4280TIP3    H134331   0.989   4.684  12.631 -0.2313  1.4185  0.1205
 4280TIP3    H234332   0.904   4.676  12.756  0.7342  0.3699  0.7205
 4281TIP3   OH234333   5.630   5.033  13.978  0.1095 -0.4581 -0.2810
 4281TIP3    H134334   5.544   5.071  13.965 -0.1817 -1.2612 -0.8197
 4281TIP3    H234335   5.653   5.054  14.069  0.0891  1.1996 -0.6351
 4282TIP3   OH234336   5.557   2.507   3.894  0.0024  0.0512 -0.4881
 4282TIP3    H134337   5.628   2.511   3.829  0.1986 -0.7294 -0.3344
 4282TIP3    H234338   5.589   2.446   3.961 -0.6617 -0.0234 -0.2314
 4283TIP3   OH234339   3.502   3.970  11.868 -0.4422  1.0010  0.2523
 4283TIP3    H134340   3.486   4.047  11.814 -0.1858  0.3341 -0.7972
 4283TIP3    H234341   3.452   3.899  11.827 -0.2795  0.4834  0.9085
 4284TIP3   OH234342   2.379   5.334   0.469  0.0105 -0.0236 -0.0467
 4284TIP3    H134343   2.301   5.365   0.514  0.1778  0.9070 -0.3705
 4284TIP3    H234344   2.353   5.252   0.429 -0.1839 -0.8186  1.6177
 4285TIP3   OH234345   1.509   2.720   3.117 -0.4343 -0.2625 -0.2601
 4285TIP3    H134346   1.495   2.663   3.192 -0.0821 -1.1066 -0.8216
 4285TIP3    H234347   1.435   2.780   3.118 -0.4988 -0.3451  0.6849
 4286TIP3   OH234348   2.032   5.036  15.248 -0.3100  0.9573 -0.0833
 4286TIP3    H134349   2.024   5.019  15.154  2.0196  2.0465 -0.5501
 4286TIP3    H234350   1.958   5.093  15.268  0.0115  1.9733 -1.6099
 4287TIP3   OH234351   3.573   4.357  13.486  0.4403  0.4155 -0.1968
 4287TIP3    H134352   3.544   4.407  13.562  2.1888  0.3457  0.5675
 4287TIP3    H234353   3.660   4.326  13.510 -0.0654 -1.9372 -1.1600
 4288TIP3   OH234354   1.575   2.109  13.056  0.1902  0.3682  0.3364
 4288TIP3    H134355   1.656   2.121  13.006 -0.2638  0.6606 -0.3543
 4288TIP3    H234356   1.561   2.014  13.057  0.3494  0.3422  0.1450
 4289TIP3   OH234357   2.787   0.123   2.999 -0.6915  0.7638 -0.1658
 4289TIP3    H134358   2.882   0.112   2.996 -0.6683  1.1014 -0.9933
 4289TIP3    H234359   2.762   0.095   3.087  0.0909  0.0366 -0.1665
 4290TIP3   OH234360   4.149   5.540   6.265 -0.0946 -0.0845  0.2310
 4290TIP3    H134361   4.200   5.569   6.189  0.3522 -0.4232  0.3974
 4290TIP3    H234362   4.058   5.545   6.236  0.1118 -1.0597 -0.6454
 4291TIP3   OH234363   6.313   6.163  15.203 -0.1377 -0.3156 -0.1100
 4291TIP3    H134364   6.338   6.153  15.295 -1.3251 -1.6711  0.0996
 4291TIP3    H234365   6.301   6.258  15.192  2.0388  0.0813  0.5383
 4292TIP3   OH234366   3.252   3.994  17.187 -0.7886 -0.6252 -0.4421
 4292TIP3    H134367   3.194   4.020  17.258 -2.6012  0.0919 -2.0962
 4292TIP3    H234368   3.322   4.060  17.188 -1.7298  0.3989 -0.3908
 4293TIP3   OH234369   3.474   1.558   4.472  0.1000  0.8881  0.2626
 4293TIP3    H134370   3.508   1.471   4.453 -0.7003  0.5157  0.5077
 4293TIP3    H234371   3.380   1.552   4.455 -0.0114  1.6183  0.5790
 4294TIP3   OH234372   5.344   2.269  14.077  0.3223 -0.1487  0.0074
 4294TIP3    H134373   5.285   2.342  14.060  0.3107  0.5723  2.6545
 4294TIP3    H234374   5.430   2.309  14.087  0.1391 -0.2082  2.6276
 4295TIP3   OH234375   0.339   5.383   2.660 -0.3377 -0.0224  0.0902
 4295TIP3    H134376   0.325   5.331   2.581  0.2548  1.0221 -0.7189
 4295TIP3    H234377   0.251   5.398   2.694 -0.6016 -0.4459 -0.3874
 4296TIP3   OH234378   6.381   4.666   6.513 -0.4828  0.0104  0.0974
 4296TIP3    H134379   6.438   4.718   6.570 -1.5779  0.8432  0.4684
 4296TIP3    H234380   6.439   4.599   6.476  1.1365  1.9194 -0.9870
 4297TIP3   OH234381   1.720   4.278   2.488 -0.4298 -0.1667  0.4629
 4297TIP3    H134382   1.731   4.305   2.397 -0.0675 -1.5594  0.0789
 4297TIP3    H234383   1.649   4.214   2.486 -1.8772  1.3044  1.4924
 4298TIP3   OH234384   2.096   4.150  14.132  0.5797 -0.0508  0.2333
 4298TIP3    H134385   2.134   4.227  14.089  0.2334  1.0893  1.8869
 4298TIP3    H234386   2.003   4.171  14.141  0.1823 -1.3356 -0.6597
 4299TIP3   OH234387   5.831   5.184  10.883 -0.7699  0.0720 -0.0481
 4299TIP3    H134388   5.848   5.119  10.950 -1.5812  0.4235  0.5259
 4299TIP3    H234389   5.900   5.249  10.893 -1.5588  0.7417  1.2733
 4300TIP3   OH234390   6.170   5.359  15.005 -0.6603 -0.2203 -0.7025
 4300TIP3    H134391   6.185   5.372  14.911 -0.5988  1.2283 -0.5095
 4300TIP3    H234392   6.210   5.435  15.047  2.1435 -2.3533  0.7943
 4301TIP3   OH234393   4.507   2.501  11.650  0.3516 -0.7738  0.0908
 4301TIP3    H134394   4.451   2.429  11.679 -0.5034 -1.0061 -1.9679
 4301TIP3    H234395   4.447   2.561  11.605  1.4992 -0.2257 -0.7652
 4302TIP3   OH234396   0.362   2.476  15.569 -0.4940 -0.3043  0.1060
 4302TIP3    H134397   0.336   2.445  15.656 -2.1446 -0.2528 -0.3409
 4302TIP3    H234398   0.324   2.412  15.509  0.6332 -0.3344 -0.6020
 4303TIP3   OH234399   6.024   2.777   5.950  0.6866 -0.5172 -0.4905
 4303TIP3    H134400   6.051   2.851   5.896  0.7680 -1.9379 -2.5298
 4303TIP3    H234401   6.079   2.783   6.028 -0.6849  2.6572  0.3967
 4304TIP3   OH234402   1.292   3.402  15.132 -0.7256  0.5166  0.6459
 4304TIP3    H134403   1.269   3.327  15.077  1.2366  0.6620 -0.4228
 4304TIP3    H234404   1.247   3.476  15.091  1.5001  0.8110 -1.4534
 4305TIP3   OH234405   5.779   3.873   0.806 -0.2573  0.1184  0.2890
 4305TIP3    H134406   5.736   3.939   0.861 -2.0086  0.2593 -1.1419
 4305TIP3    H234407   5.713   3.805   0.794  0.3799 -0.3212 -0.8826
 4306TIP3   OH234408   0.380   5.839  13.251  0.1659 -0.6301 -0.0190
 4306TIP3    H134409   0.408   5.752  13.224  0.3011 -0.1893 -1.3909
 4306TIP3    H234410   0.285   5.832  13.261  0.1483 -0.8737 -0.3618
 4307TIP3   OH234411   5.506   3.113   4.665  0.2240  0.2273 -0.1261
 4307TIP3    H134412   5.498   3.208   4.662 -1.4917  0.0863 -0.9646
 4307TIP3    H234413   5.516   3.093   4.758  1.1021  1.2434  0.0181
 4308TIP3   OH234414   5.615   4.779   4.148 -0.1213 -0.7092  0.0442
 4308TIP3    H134415   5.692   4.836   4.156 -0.5409 -0.1188 -0.0836
 4308TIP3    H234416   5.560   4.802   4.223 -1.0400  0.2214 -0.8657
 4309TIP3   OH234417   4.097   5.129   0.042 -0.0818 -0.5417 -0.5388
 4309TIP3    H134418   4.065   5.054  -0.008 -0.9013 -0.1411 -0.6355
 4309TIP3    H234419   4.191   5.117   0.046 -0.2557 -1.8274 -0.1354
 4310TIP3   OH234420   0.418   3.022   6.081  0.5802 -0.2117 -0.2255
 4310TIP3    H134421   0.452   3.099   6.125 -0.4231  0.6969 -0.9762
 4310TIP3    H234422   0.457   3.025   5.993 -1.7571  1.1946 -1.3219
 4311TIP3   OH234423   6.056   5.000  15.364 -0.4185 -0.6805  0.5439
 4311TIP3    H134424   6.001   4.970  15.292  1.3932 -1.0550 -0.7535
 4311TIP3    H234425   6.060   4.925  15.424  0.2287 -1.3649 -0.3297
 4312TIP3   OH234426   4.603   2.013   2.139  0.0243 -0.2056  0.3348
 4312TIP3    H134427   4.589   2.091   2.086  1.8768 -0.8240 -1.1914
 4312TIP3    H234428   4.557   1.943   2.092  0.0069 -0.3960  0.6308
 4313TIP3   OH234429   6.131   1.428   6.128  0.4564  0.3333 -0.1565
 4313TIP3    H134430   6.039   1.413   6.149  0.7093  0.0856  0.8335
 4313TIP3    H234431   6.156   1.352   6.075 -0.1389  0.8513 -1.1948
 4314TIP3   OH234432   4.521   0.096  14.645  0.1690  0.1630  0.0709
 4314TIP3    H134433   4.519   0.008  14.683  0.7208  1.0296  2.2773
 4314TIP3    H234434   4.490   0.153  14.716  1.0578  1.8796 -0.8657
 4315TIP3   OH234435   5.184   2.477  16.167 -0.2767 -0.4129  0.2378
 4315TIP3    H134436   5.136   2.434  16.096 -0.4044  0.1761 -0.0456
 4315TIP3    H234437   5.219   2.405  16.219 -1.5860 -0.8600  0.5399
 4316TIP3   OH234438   6.015   1.934  15.064 -0.2826  0.3227  0.3101
 4316TIP3    H134439   6.019   2.029  15.056  0.5791  0.2780  0.0953
 4316TIP3    H234440   5.995   1.903  14.976  0.4493  0.2615  0.1596
 4317TIP3   OH234441   5.513   4.129  17.156 -0.2931  0.2141 -0.2572
 4317TIP3    H134442   5.545   4.171  17.236  0.7198 -0.7133 -0.1585
 4317TIP3    H234443   5.428   4.091  17.182  0.1357 -0.2870  0.4540
 4318TIP3   OH234444   2.586   1.611   4.444 -0.7255  0.3417  0.5061
 4318TIP3    H134445   2.523   1.668   4.400 -1.1418 -1.2740 -1.1675
 4318TIP3    H234446   2.571   1.525   4.405  0.9423 -0.5852  1.7595
 4319TIP3   OH234447   5.645   3.727  13.806  0.0394  0.1778  0.5024
 4319TIP3    H134448   5.626   3.721  13.899  1.6148 -0.9450  0.7973
 4319TIP3    H234449   5.647   3.821  13.788  0.6144  0.4444  1.8236
 4320TIP3   OH234450   3.687   4.743   2.192 -0.0650 -0.0639 -0.4084
 4320TIP3    H134451   3.624   4.748   2.120  1.4930  0.8626 -1.7853
 4320TIP3    H234452   3.680   4.827   2.236 -2.6067 -1.4047  2.0546
 4321TIP3   OH234453   1.188   4.679   2.944 -0.1708  0.0442 -0.2621
 4321TIP3    H134454   1.215   4.771   2.946 -0.5400  0.2440 -2.4377
 4321TIP3    H234455   1.250   4.638   2.885 -0.4421 -0.9734  0.1504
 4322TIP3   OH234456   0.642   5.822   0.799 -0.6023 -0.1852 -0.2629
 4322TIP3    H134457   0.551   5.813   0.769 -0.5639  0.3560 -0.5519
 4322TIP3    H234458   0.635   5.820   0.895 -0.8803 -0.5249 -0.2900
 4323TIP3   OH234459   1.772   2.673   0.523 -0.4832 -0.2442  0.0225
 4323TIP3    H134460   1.716   2.623   0.463 -1.9286  1.9602 -0.5799
 4323TIP3    H234461   1.737   2.762   0.520  0.4859  0.3231  2.8759
 4324TIP3   OH234462   4.528   0.131   2.210  0.2861  0.5023  0.1993
 4324TIP3    H134463   4.612   0.152   2.169  0.0692 -0.0748 -0.5528
 4324TIP3    H234464   4.462   0.164   2.148 -0.0429  0.0853  0.3231
 4325TIP3   OH234465   2.926   5.266   2.622  0.8958 -0.4577  0.0412
 4325TIP3    H134466   2.887   5.211   2.554 -0.7018  0.6283  0.0421
 4325TIP3    H234467   2.863   5.336   2.635  1.3520 -0.4208  2.3923
 4326TIP3   OH234468   3.761   6.818  14.077 -0.0279  0.0105 -0.0491
 4326TIP3    H134469   3.711   6.883  14.127  0.1379  0.7030 -0.7508
 4326TIP3    H234470   3.750   6.736  14.125  1.0659  0.8689  1.7630
 4327TIP3   OH234471   4.973   5.261  15.181 -0.0974  0.0540 -0.5372
 4327TIP3    H134472   5.058   5.294  15.153 -0.2966  0.8867 -0.2042
 4327TIP3    H234473   4.961   5.180  15.131  1.1604 -0.4139 -0.1090
 4328TIP3   OH234474   4.526   0.688   5.385 -0.3235  0.2399  0.4680
 4328TIP3    H134475   4.457   0.623   5.367  0.8585 -0.3130 -2.7636
 4328TIP3    H234476   4.487   0.772   5.360 -0.5389  0.2415  0.8015
 4329TIP3   OH234477   4.041   3.358  16.526  0.3696 -0.3977 -0.6275
 4329TIP3    H134478   3.952   3.351  16.490  0.4658 -0.2544 -0.8994
 4329TIP3    H234479   4.096   3.313  16.463  0.3077 -1.8223  0.3044
 4330TIP3   OH234480   1.368   1.034  15.146  0.2232  0.1085 -0.1288
 4330TIP3    H134481   1.363   1.031  15.050  0.4222 -0.1397 -0.1314
 4330TIP3    H234482   1.304   0.969  15.175  1.3798 -1.0711 -0.1254
 4331TIP3   OH234483   4.675   3.603   3.571  0.2552  0.5241  0.2968
 4331TIP3    H134484   4.650   3.633   3.484  2.0772 -1.0624 -0.8602
 4331TIP3    H234485   4.715   3.679   3.613 -2.0217  1.7527  0.4254
 4332TIP3   OH234486   5.960   6.669   3.473  0.3782 -0.6576  0.3396
 4332TIP3    H134487   5.922   6.581   3.464  1.2304 -1.0840  0.7142
 4332TIP3    H234488   5.971   6.700   3.384  1.4911 -1.5896  0.1188
 4333TIP3   OH234489   2.280   0.729  13.884  0.5884  0.0689 -0.2235
 4333TIP3    H134490   2.330   0.800  13.843  1.5115  0.1175  0.9363
 4333TIP3    H234491   2.236   0.685  13.811  2.5569 -0.1521 -1.3303
 4334TIP3   OH234492   3.345   3.326  16.553  0.0384  0.1598 -0.1926
 4334TIP3    H134493   3.386   3.400  16.598  2.1918 -0.2725 -1.3347
 4334TIP3    H234494   3.418   3.277  16.515 -1.3314 -2.3903  0.2264
 4335TIP3   OH234495   3.838   0.852   0.760  0.3469  0.3188 -0.7184
 4335TIP3    H134496   3.854   0.830   0.668  0.9239  4.4288 -1.7785
 4335TIP3    H234497   3.923   0.845   0.802  0.2450 -0.7400 -0.6675
 4336TIP3   OH234498   0.837   5.723  15.096 -0.2904 -0.5317 -0.2691
 4336TIP3    H134499   0.803   5.667  15.165  1.9109  1.1054  2.3447
 4336TIP3    H234500   0.928   5.696  15.085  0.0756  0.8115 -0.8008
 4337TIP3   OH234501   2.691   1.069   4.072  0.2415 -0.7684 -0.3793
 4337TIP3    H134502   2.598   1.063   4.050  0.3119 -0.1568 -0.8719
 4337TIP3    H234503   2.699   1.023   4.155 -0.8276  0.6667  0.5770
 4338TIP3   OH234504   4.434   4.768  15.108 -0.1124  0.0310  0.2375
 4338TIP3    H134505   4.442   4.786  15.015  0.0457  2.6124  0.6594
 4338TIP3    H234506   4.491   4.694  15.124  1.5922  0.9200 -1.3677
 4339TIP3   OH234507   0.286   3.826  16.386 -0.2244 -0.3883  0.6052
 4339TIP3    H134508   0.288   3.736  16.420  0.0513 -0.2737  0.9040
 4339TIP3    H234509   0.288   3.881  16.465  1.4239 -0.1027  0.4121
 4340TIP3   OH234510   4.866   6.327  14.805 -0.0268 -0.6390  0.1519
 4340TIP3    H134511   4.931   6.259  14.824  0.4509  0.3457  2.2706
 4340TIP3    H234512   4.901   6.373  14.729  1.5501 -0.4431  0.9520
 4341TIP3   OH234513   4.153   5.771   6.434 -0.3799  0.2766  0.1537
 4341TIP3    H134514   4.138   5.689   6.387  1.3793 -0.7075  1.1901
 4341TIP3    H234515   4.067   5.794   6.471 -1.4066  0.1845 -2.0332
 4342TIP3   OH234516   5.543   3.411   2.087  0.1782  0.3399  0.6947
 4342TIP3    H134517   5.632   3.381   2.106  0.0788 -1.5955 -1.3943
 4342TIP3    H234518   5.491   3.331   2.085 -0.5459  0.6857 -3.1354
 4343TIP3   OH234519   3.120   4.561  11.748  0.2337 -0.0640 -0.5107
 4343TIP3    H134520   3.155   4.472  11.740 -0.1657 -0.1826 -1.0164
 4343TIP3    H234521   3.031   4.554  11.714 -0.1975  0.2895  0.4989
 4344TIP3   OH234522   5.188   2.603  15.346 -0.1359  0.6372  0.5114
 4344TIP3    H134523   5.104   2.585  15.387 -1.4794  0.6362 -2.0037
 4344TIP3    H234524   5.252   2.558  15.400 -1.7664  0.4438  2.3731
 4345TIP3   OH234525   1.679   4.193  14.880 -0.4288 -0.8807 -0.0698
 4345TIP3    H134526   1.695   4.245  14.959  1.1319  0.6838 -1.3151
 4345TIP3    H234527   1.668   4.104  14.912  1.7314 -0.5696  1.8558
 4346TIP3   OH234528   1.204   6.191  12.041 -0.7163  0.2751  0.1811
 4346TIP3    H134529   1.238   6.169  11.954  0.1662 -1.5335  0.9233
 4346TIP3    H234530   1.142   6.261  12.025 -1.8143 -1.0952 -2.1379
 4347TIP3   OH234531   4.435   4.414   3.592  0.0196  0.4598  0.4487
 4347TIP3    H134532   4.422   4.447   3.681  1.5835 -0.3868  1.0225
 4347TIP3    H234533   4.527   4.431   3.573 -0.6071  1.9661 -1.6101
 4348TIP3   OH234534   1.445   4.862   5.161 -0.3748 -0.1931  0.8610
 4348TIP3    H134535   1.488   4.830   5.240  0.5758 -0.5349  0.2195
 4348TIP3    H234536   1.352   4.864   5.183 -0.1943 -1.0260  1.7305
 4349TIP3   OH234537   1.567   3.701   4.843  0.3468  0.1833  0.0012
 4349TIP3    H134538   1.497   3.667   4.898 -0.3671  1.7751  0.1447
 4349TIP3    H234539   1.604   3.774   4.893  0.5839  0.8035 -1.0315
 4350TIP3   OH234540   5.391   3.540   4.381  0.2401  0.6922 -0.1487
 4350TIP3    H134541   5.301   3.561   4.355 -0.3507  0.1049  1.2980
 4350TIP3    H234542   5.424   3.620   4.422  1.1899  1.6358 -2.5638
 4351TIP3   OH234543   6.535   6.258   6.024  0.1296 -0.2172 -0.0373
 4351TIP3    H134544   6.566   6.217   6.104 -1.4600  0.2300  0.8404
 4351TIP3    H234545   6.440   6.265   6.035  0.1416  2.0775 -0.9110
 4352TIP3   OH234546   5.716   6.245  16.732 -0.7358  0.1834 -0.1549
 4352TIP3    H134547   5.701   6.300  16.809 -2.5224 -1.6744  0.9379
 4352TIP3    H234548   5.708   6.304  16.657  1.2596  2.0833  1.0513
 4353TIP3   OH234549   4.733   5.797  14.025 -0.2330 -0.3975  0.3910
 4353TIP3    H134550   4.673   5.860  13.985  2.3078  2.9730  1.4051
 4353TIP3    H234551   4.755   5.836  14.110  2.1339 -2.2285  0.7149
 4354TIP3   OH234552   1.808   5.750   0.482 -0.1496  0.1655  0.3881
 4354TIP3    H134553   1.725   5.711   0.455 -1.2304  0.5252  2.8923
 4354TIP3    H234554   1.875   5.690   0.450 -1.2237  0.4163 -2.6565
 4355TIP3   OH234555   0.182   4.363  16.818  0.0116 -0.4285  0.1390
 4355TIP3    H134556   0.103   4.412  16.838 -0.6069  0.2495 -3.2324
 4355TIP3    H234557   0.152   4.287  16.769  1.3106 -1.6719  1.1809
 4356TIP3   OH234558   0.770   3.199   1.008  0.1863  0.2521 -0.2536
 4356TIP3    H134559   0.709   3.267   0.978 -0.3603 -0.6304 -1.2159
 4356TIP3    H234560   0.756   3.126   0.948  1.2874 -0.4504  0.3078
 4357TIP3   OH234561   4.460   1.936   1.239 -0.3939 -0.2836  0.6761
 4357TIP3    H134562   4.543   1.924   1.284  0.8346  0.5171 -1.2605
 4357TIP3    H234563   4.394   1.917   1.306  1.1791  3.2628  3.6051
 4358TIP3   OH234564   4.199   3.654   5.673  0.0372 -0.2944  0.4322
 4358TIP3    H134565   4.106   3.631   5.669  0.0016 -0.0444 -0.2109
 4358TIP3    H234566   4.242   3.571   5.694 -0.2351 -0.6443 -0.3375
 4359TIP3   OH234567   3.241   3.033   4.097  0.7777  0.0608  0.0858
 4359TIP3    H134568   3.149   3.058   4.102  0.6412  0.3190 -2.4173
 4359TIP3    H234569   3.246   2.949   4.141 -0.5998  0.1788  0.5052
 4360TIP3   OH234570   1.038   2.598   0.640 -0.1939  0.7713  0.3565
 4360TIP3    H134571   1.057   2.512   0.602 -3.3729  0.2964 -0.4470
 4360TIP3    H234572   1.020   2.654   0.565  0.6545  1.8746  0.9402
 4361TIP3   OH234573   6.715   3.016  14.131 -0.2553  0.1919  0.0050
 4361TIP3    H134574   6.650   3.068  14.177 -0.5518  0.2650 -0.4932
 4361TIP3    H234575   6.769   2.978  14.201 -1.0775 -0.2096  0.4399
 4362TIP3   OH234576   6.582   0.642   6.205 -0.3700  0.1675  0.3335
 4362TIP3    H134577   6.576   0.734   6.179  0.5448  0.4542  1.0854
 4362TIP3    H234578   6.520   0.597   6.148  2.5075  0.4821 -3.4341
 4363TIP3   OH234579   3.546   6.576   6.732 -0.0941 -0.2730  0.8095
 4363TIP3    H134580   3.571   6.608   6.819 -0.0935  1.1411  0.3217
 4363TIP3    H234581   3.495   6.648   6.695  0.4213 -0.6132 -0.6022
 4364TIP3   OH234582   6.202   1.803  12.441  0.2733 -0.2461 -0.3633
 4364TIP3    H134583   6.159   1.849  12.369  2.6085  0.5274 -1.3655
 4364TIP3    H234584   6.295   1.812  12.423  0.8958 -2.5579  1.2268
 4365TIP3   OH234585   6.785   6.437   5.849  0.0082 -0.0419  0.0328
 4365TIP3    H134586   6.769   6.490   5.927  0.2148 -0.1000  0.1145
 4365TIP3    H234587   6.736   6.481   5.780 -0.7034 -0.3493  0.3324
 4366TIP3   OH234588   4.891   3.319   1.385  0.3237 -0.2683  0.7473
 4366TIP3    H134589   4.920   3.358   1.467  0.0767  1.2214  0.1563
 4366TIP3    H234590   4.880   3.393   1.325 -2.4616 -0.9498  0.2518
 4367TIP3   OH234591   0.002   1.699   4.602 -0.4780 -0.0395 -0.3688
 4367TIP3    H134592   0.030   1.684   4.692  0.5192  1.0329 -0.4757
 4367TIP3    H234593   0.053   1.775   4.573 -1.5164  0.2633 -1.5052
 4368TIP3   OH234594   4.457   4.332  15.890  0.2685 -0.0189  0.4893
 4368TIP3    H134595   4.417   4.409  15.851  0.1495 -0.7070 -0.7919
 4368TIP3    H234596   4.528   4.366  15.944  0.0538  0.9983  0.1443
 4369TIP3   OH234597   2.168   3.631   2.381 -0.5536  0.2619  0.9006
 4369TIP3    H134598   2.119   3.600   2.305  0.4007  0.5075  0.1628
 4369TIP3    H234599   2.161   3.726   2.377 -0.2851  0.2847  0.9716
 4370TIP3   OH234600   6.772   0.054  14.617 -0.6822  0.3369 -0.4662
 4370TIP3    H134601   6.765  -0.018  14.555 -2.2057  0.6129 -0.6463
 4370TIP3    H234602   6.682   0.083  14.631 -0.3430  0.6251  1.4814
 4371TIP3   OH234603   1.894   1.398   5.014  0.0685  0.1487 -0.0275
 4371TIP3    H134604   1.819   1.404   4.956 -0.0146 -1.2134 -0.1073
 4371TIP3    H234605   1.874   1.458   5.086 -2.2915 -1.9045  1.2075
 4372TIP3   OH234606   5.551   5.121   0.849 -0.3771  0.0630  0.3940
 4372TIP3    H134607   5.633   5.143   0.804  1.8087 -1.6448  3.2304
 4372TIP3    H234608   5.533   5.197   0.903  0.4143 -0.2473  1.1254
 4373TIP3   OH234609   1.983   5.754  15.871 -0.3071  0.2346 -0.3611
 4373TIP3    H134610   1.960   5.784  15.783 -1.6062 -1.1906 -0.5456
 4373TIP3    H234611   2.009   5.663  15.859  0.1197  0.2089  0.6593
 4374TIP3   OH234612   3.646   2.604   3.398 -0.1118 -0.1487  0.0474
 4374TIP3    H134613   3.604   2.542   3.338  0.4691  0.8610 -1.4554
 4374TIP3    H234614   3.573   2.647   3.443 -0.5491 -2.7526  2.1493
 4375TIP3   OH234615   4.606   6.412  16.263 -0.3444 -0.0036 -0.0609
 4375TIP3    H134616   4.673   6.350  16.291  1.4026  1.5464 -0.5616
 4375TIP3    H234617   4.630   6.433  16.172 -0.1969  2.1773  0.4287
 4376TIP3   OH234618   0.698   6.337   1.294  0.1307 -0.0566  0.4784
 4376TIP3    H134619   0.761   6.396   1.336 -0.2515  0.0988  0.8422
 4376TIP3    H234620   0.749   6.288   1.230  0.3323  1.0985 -0.2599
 4377TIP3   OH234621   3.111   1.014  10.896  0.0177  0.2214 -0.7022
 4377TIP3    H134622   3.171   0.947  10.864  0.6479  0.0402  0.7836
 4377TIP3    H234623   3.169   1.086  10.923 -0.2962 -0.3890  1.7910
 4378TIP3   OH234624   5.696   6.183  10.729  0.0808  0.4740 -0.2617
 4378TIP3    H134625   5.655   6.236  10.796  0.2631  0.1745  0.0932
 4378TIP3    H234626   5.693   6.237  10.650 -3.0966 -0.3987 -0.8761
 4379TIP3   OH234627   6.206   6.319  11.856 -0.0939 -0.3437  0.1875
 4379TIP3    H134628   6.214   6.268  11.937 -1.2909 -1.4603 -0.3502
 4379TIP3    H234629   6.126   6.285  11.815  0.0689  0.7430 -1.0895
 4380TIP3   OH234630   4.023   5.856   5.917  0.1053 -0.2929  0.0677
 4380TIP3    H134631   3.976   5.938   5.904  0.5936 -0.0767 -0.3509
 4380TIP3    H234632   4.113   5.882   5.936 -0.4077 -0.5673  3.5504
 4381TIP3   OH234633   4.852   2.219   5.289  0.1241 -0.1463 -0.6308
 4381TIP3    H134634   4.766   2.259   5.300  0.2420  0.2695 -1.1990
 4381TIP3    H234635   4.904   2.285   5.244  0.7990 -0.3235 -0.1276
 4382TIP3   OH234636   1.007   0.461   3.644  0.0886  0.3296  0.0605
 4382TIP3    H134637   1.014   0.478   3.550 -0.1574 -2.3607 -0.5116
 4382TIP3    H234638   0.941   0.524   3.674 -0.2120  0.8955 -1.6710
 4383TIP3   OH234639   2.232   5.327  11.933 -0.8050 -0.0751  0.1700
 4383TIP3    H134640   2.305   5.389  11.923  0.0820 -0.8629  1.4889
 4383TIP3    H234641   2.181   5.362  12.006 -0.8330 -0.3966  0.3046
 4384TIP3   OH234642   3.586   5.739  11.655 -0.3321  0.3853  0.1950
 4384TIP3    H134643   3.591   5.802  11.583  0.1478 -1.3167 -1.3318
 4384TIP3    H234644   3.675   5.706  11.666 -0.7323 -0.7429  0.2716
 4385TIP3   OH234645   6.752   2.120  12.210  0.0345 -0.6051  0.3942
 4385TIP3    H134646   6.676   2.165  12.172  0.5824 -0.1841 -0.2231
 4385TIP3    H234647   6.809   2.103  12.135  0.6750 -0.6665  0.8953
 4386TIP3   OH234648   2.545   6.174  14.755  0.0597  0.0657 -0.0373
 4386TIP3    H134649   2.633   6.201  14.727  0.2685 -0.4758  0.0742
 4386TIP3    H234650   2.559   6.089  14.798 -0.8715 -1.4489 -2.4812
 4387TIP3   OH234651   6.312   1.680  14.183  0.1595  0.0564 -0.3115
 4387TIP3    H134652   6.373   1.648  14.116 -0.4318  1.2563 -1.4871
 4387TIP3    H234653   6.241   1.615  14.183  0.5572 -0.3881 -0.2382
 4388TIP3   OH234654   5.983   5.275  15.187 -0.0090 -0.2769 -0.5885
 4388TIP3    H134655   6.056   5.310  15.135  0.2434  0.7785  0.4442
 4388TIP3    H234656   5.921   5.347  15.194 -0.5528 -0.7602 -0.3487
 4389TIP3   OH234657   6.145   1.782   4.977 -0.0566  0.5835  0.2564
 4389TIP3    H134658   6.066   1.807   4.929  0.5842 -0.2670 -1.2898
 4389TIP3    H234659   6.120   1.704   5.026 -0.6745  1.3830  1.2787
 4390TIP3   OH234660   4.423   4.077  15.957  0.1341  0.3583 -0.5432
 4390TIP3    H134661   4.403   4.170  15.952  0.7426  0.4561 -1.3333
 4390TIP3    H234662   4.510   4.069  15.918  0.7599 -0.3311  0.9082
 4391TIP3   OH234663   3.586   0.330   5.199 -0.0839 -0.6845 -0.2613
 4391TIP3    H134664   3.501   0.287   5.192  0.2391 -1.3018 -0.4671
 4391TIP3    H234665   3.574   0.396   5.267 -0.6967 -0.8319 -0.2160
 4392TIP3   OH234666   4.226   6.637   3.656  0.0132  0.1816  0.3423
 4392TIP3    H134667   4.220   6.631   3.752 -1.1444  0.4467  0.3009
 4392TIP3    H234668   4.256   6.551   3.628  1.5398  0.4544  1.0130
 4393TIP3   OH234669   3.736   2.076   5.288  0.0767  0.2084  0.2877
 4393TIP3    H134670   3.716   2.167   5.269  0.3013  0.0397 -0.8046
 4393TIP3    H234671   3.689   2.026   5.220 -0.2762 -0.5085  1.0343
 4394TIP3   OH234672   5.500   4.408   2.758 -0.5874 -0.1024 -0.1850
 4394TIP3    H134673   5.429   4.445   2.811 -1.8135  1.5139 -2.7191
 4394TIP3    H234674   5.480   4.437   2.668  3.0656  0.0476 -1.1072
 4395TIP3   OH234675   2.166   0.473  12.028  0.2417 -0.2278  0.0258
 4395TIP3    H134676   2.261   0.484  12.022  0.1266  0.3370 -1.2733
 4395TIP3    H234677   2.138   0.460  11.937 -1.1553  1.9939  0.0419
 4396TIP3   OH234678   3.170   1.690   6.085 -0.1647  0.0627 -0.5819
 4396TIP3    H134679   3.264   1.700   6.069 -0.2418 -0.0446 -1.1212
 4396TIP3    H234680   3.152   1.746   6.160  0.1903  0.6622 -0.9390
 4397TIP3   OH234681   6.525   6.278   6.566  0.0253 -0.2486 -0.3193
 4397TIP3    H134682   6.484   6.197   6.597  0.4976 -0.0301  0.9304
 4397TIP3    H234683   6.459   6.318   6.509 -0.5028 -1.1474 -0.3460
 4398TIP3   OH234684   3.058   1.118  16.285 -0.5795 -0.3864  0.5342
 4398TIP3    H134685   3.051   1.203  16.240 -1.3097 -0.1851  1.0226
 4398TIP3    H234686   3.151   1.112  16.308 -0.6249  0.5718  1.0407
 4399TIP3   OH234687   0.705   4.200   1.393  0.2224  0.1458 -0.1711
 4399TIP3    H134688   0.637   4.215   1.458  0.8816  1.1167  0.3228
 4399TIP3    H234689   0.658   4.183   1.312 -0.6103  1.6412 -0.0301
 4400TIP3   OH234690   4.703   5.858   3.281  0.1498 -0.1997 -0.6326
 4400TIP3    H134691   4.671   5.769   3.267  1.4835 -0.7239 -0.5236
 4400TIP3    H234692   4.709   5.895   3.193 -3.4705  0.9743 -0.5250
 4401TIP3   OH234693   0.777   0.914  16.411 -0.3845  0.3578  0.1590
 4401TIP3    H134694   0.726   0.833  16.400  1.6578 -0.9287 -0.4782
 4401TIP3    H234695   0.819   0.905  16.496  1.0827 -0.0519 -0.5641
 4402TIP3   OH234696   6.007   2.134   2.093 -0.2234  0.7445 -0.5240
 4402TIP3    H134697   6.087   2.090   2.122 -1.6213 -0.8853  1.0353
 4402TIP3    H234698   5.972   2.077   2.024  0.0136  1.5457 -1.3280
 4403TIP3   OH234699   5.808   3.537  12.964  0.5416 -0.2022 -0.1228
 4403TIP3    H134700   5.856   3.470  12.915 -0.8678 -0.9857 -0.5010
 4403TIP3    H234701   5.875   3.582  13.015  1.6494 -1.3637 -0.4905
 4404TIP3   OH234702   1.931   3.102   5.659  0.4541  0.1711 -0.5629
 4404TIP3    H134703   1.896   3.187   5.631  0.4828 -0.3393 -2.2411
 4404TIP3    H234704   2.022   3.121   5.683  0.2328  0.7428 -0.1301
 4405TIP3   OH234705   2.272   1.182   4.103  0.5966 -0.0804  0.2612
 4405TIP3    H134706   2.226   1.241   4.162 -2.0118  0.9241 -2.4909
 4405TIP3    H234707   2.298   1.238   4.029  0.8025 -1.7769 -1.0162
 4406TIP3   OH234708   0.594   2.576  14.779 -0.2118 -0.4274 -0.1076
 4406TIP3    H134709   0.540   2.579  14.700 -0.5681 -1.0665  0.1028
 4406TIP3    H234710   0.618   2.483  14.788  0.8827 -0.1686 -0.1685
 4407TIP3   OH234711   5.882   1.713   2.471  0.1838 -0.1673  0.1500
 4407TIP3    H134712   5.932   1.747   2.397  0.3151 -1.9598 -0.6515
 4407TIP3    H234713   5.792   1.705   2.438 -0.7678  3.0568  1.5865
 4408TIP3   OH234714   5.923   1.771  12.593 -0.1531 -0.3093 -0.4115
 4408TIP3    H134715   5.939   1.785  12.499 -0.4920 -2.4034 -0.8207
 4408TIP3    H234716   6.007   1.792  12.634  0.5975 -1.2541 -1.4127
 4409TIP3   OH234717   4.164   5.900   0.216  0.0277 -0.4442 -0.0844
 4409TIP3    H134718   4.157   5.869   0.307  0.3176  0.9089  0.4254
 4409TIP3    H234719   4.183   5.821   0.165  2.5247 -0.8971  1.3843
 4410TIP3   OH234720   6.402   5.353   5.679  0.5089 -0.3555 -0.3841
 4410TIP3    H134721   6.466   5.410   5.637 -0.9911  1.1254 -0.7892
 4410TIP3    H234722   6.320   5.403   5.675 -0.7862 -2.3624 -0.3335
 4411TIP3   OH234723   4.650   5.718  10.568 -0.0570  0.2297 -0.1837
 4411TIP3    H134724   4.677   5.634  10.603 -0.6044 -0.6881 -1.8848
 4411TIP3    H234725   4.605   5.761  10.642 -1.4650 -1.7704  0.1946
 4412TIP3   OH234726   2.438   1.112   4.408 -0.0089  0.2240 -0.5535
 4412TIP3    H134727   2.459   1.080   4.321  1.3247  0.6851 -0.4213
 4412TIP3    H234728   2.455   1.037   4.466  0.6344  0.3922 -0.5217
 4413TIP3   OH234729   2.709   4.716   1.580  0.0646 -0.0709 -0.3559
 4413TIP3    H134730   2.617   4.741   1.582 -0.2442 -1.1856  1.6826
 4413TIP3    H234731   2.754   4.787   1.624  0.4558  1.2651 -2.7700
 4414TIP3   OH234732   2.800   1.146  11.616 -0.1582 -0.1345  0.2077
 4414TIP3    H134733   2.763   1.174  11.700 -0.2245  0.1400  0.0880
 4414TIP3    H234734   2.864   1.078  11.639  1.0072  1.0731  0.6280
 4415TIP3   OH234735   2.411   4.029   3.181  0.3617  0.4459 -0.8693
 4415TIP3    H134736   2.441   3.942   3.205 -0.3729  0.6068  0.7312
 4415TIP3    H234737   2.333   4.013   3.127 -0.7635  0.0947  0.7993
 4416TIP3   OH234738   2.527   0.445  11.044 -0.3106 -0.3675  0.3045
 4416TIP3    H134739   2.592   0.463  11.112 -0.9383  3.3425  0.1378
 4416TIP3    H234740   2.448   0.490  11.073 -1.0310  0.1401 -2.1993
 4417TIP3   OH234741   4.512   3.340  11.131  0.7853 -0.1485 -0.0757
 4417TIP3    H134742   4.471   3.288  11.061 -2.5068  4.0670 -1.7281
 4417TIP3    H234743   4.566   3.404  11.086  0.0409  1.5237  1.2573
 4418TIP3   OH234744   5.653   0.744   1.733  0.3888  0.1940 -0.4788
 4418TIP3    H134745   5.570   0.696   1.737 -1.4970  3.1604 -1.2407
 4418TIP3    H234746   5.718   0.676   1.715 -2.1669 -1.9943 -2.3869
 4419TIP3   OH234747   2.306   2.472  11.303  0.0058 -0.2769  0.1997
 4419TIP3    H134748   2.359   2.455  11.225 -1.7680  0.1762 -1.1673
 4419TIP3    H234749   2.370   2.484  11.373  1.6572 -0.8913 -1.1281
 4420TIP3   OH234750   4.674   4.019  16.410 -1.0640  0.0862 -0.2882
 4420TIP3    H134751   4.646   4.078  16.340 -0.9679  0.2501 -0.1864
 4420TIP3    H234752   4.596   3.965  16.428 -1.0411 -0.0637 -0.6284
 4421TIP3   OH234753   5.222   0.068  13.764 -0.3177 -0.7321  0.5946
 4421TIP3    H134754   5.228  -0.027  13.759  0.7153 -0.7195  1.2793
 4421TIP3    H234755   5.128   0.085  13.775 -0.6243 -1.6001 -0.4766
 4422TIP3   OH234756   6.066   6.066  14.026 -0.3879  0.0066  0.2691
 4422TIP3    H134757   6.071   6.098  13.936  0.0779  0.5708  0.4903
 4422TIP3    H234758   5.976   6.086  14.053 -0.0511  1.3176  0.4661
 4423TIP3   OH234759   4.902   2.003   4.468 -0.1172  0.2525 -0.3709
 4423TIP3    H134760   4.829   1.984   4.528 -1.2027  0.2456 -1.6358
 4423TIP3    H234761   4.880   1.954   4.388  2.2414 -1.2674 -0.1647
 4424TIP3   OH234762   0.847   0.889  13.674 -0.2873  0.3126 -0.2716
 4424TIP3    H134763   0.773   0.853  13.626 -0.3740  0.0717  0.0400
 4424TIP3    H234764   0.808   0.948  13.738 -0.2024  0.2980 -0.2060
 4425TIP3   OH234765   6.193   1.297   4.943 -0.4481 -0.9466 -0.7846
 4425TIP3    H134766   6.242   1.217   4.963 -2.4008 -2.0165 -0.0232
 4425TIP3    H234767   6.234   1.330   4.863  0.8319 -2.3387 -0.7549
 4426TIP3   OH234768   1.939   6.132  14.392  0.1513 -0.1223 -0.1356
 4426TIP3    H134769   2.003   6.135  14.463 -1.0233 -0.2625  0.9713
 4426TIP3    H234770   1.969   6.060  14.336 -0.2680 -1.7531  1.6247
 4427TIP3   OH234771   6.238   3.376  12.094 -0.0806  0.5929  0.2628
 4427TIP3    H134772   6.209   3.312  12.030 -1.5954  0.0347  1.4611
 4427TIP3    H234773   6.160   3.427  12.116  0.6873  1.6370  0.7025
 4428TIP3   OH234774   3.801   4.708  15.379  0.1445 -1.0527  0.0192
 4428TIP3    H134775   3.864   4.675  15.315  0.6892  0.7386 -0.4127
 4428TIP3    H234776   3.720   4.719  15.329  0.7717  1.0921 -0.6426
 4429TIP3   OH234777   6.666   2.701   4.732  0.7230 -0.0588  0.3771
 4429TIP3    H134778   6.603   2.712   4.661  2.4607  2.8700 -0.8871
 4429TIP3    H234779   6.622   2.642   4.794 -2.1085 -0.2860 -1.6488
 4430TIP3   OH234780   6.549   1.542  10.835 -0.0892  0.1960 -0.0675
 4430TIP3    H134781   6.552   1.636  10.847 -0.8494  0.2889 -0.5480
 4430TIP3    H234782   6.477   1.527  10.774  1.4179 -0.4948 -1.7902
 4431TIP3   OH234783   1.550   3.524   5.786 -0.0718 -0.1340 -0.3710
 4431TIP3    H134784   1.637   3.499   5.815 -1.5518 -0.8724  4.3320
 4431TIP3    H234785   1.531   3.606   5.833 -1.2709  1.1704 -2.8908
 4432TIP3   OH234786   0.906   3.285   0.696  0.1055 -0.2570  0.3142
 4432TIP3    H134787   0.880   3.360   0.750 -1.0277  0.1439 -0.7596
 4432TIP3    H234788   0.998   3.303   0.674 -0.0082  0.5672  0.4660
 4433TIP3   OH234789   4.369   4.773  12.825 -0.1955 -0.0996 -0.5056
 4433TIP3    H134790   4.449   4.721  12.815 -0.7363 -1.2196  0.5921
 4433TIP3    H234791   4.362   4.824  12.745  3.0006  2.0329  0.4232
 4434TIP3   OH234792   3.431   4.602   6.468  0.2581  0.7866 -0.0664
 4434TIP3    H134793   3.357   4.602   6.529 -0.7377  0.8389 -1.2371
 4434TIP3    H234794   3.470   4.689   6.477 -0.7833  1.3174 -0.5528
 4435TIP3   OH234795   2.551   2.036   3.652  0.0462 -0.3550 -0.5784
 4435TIP3    H134796   2.519   1.991   3.574  0.3673  0.2251 -1.0533
 4435TIP3    H234797   2.521   2.126   3.643  0.7737 -0.0881 -0.4426
 4436TIP3   OH234798   2.082   1.466   3.758 -0.4042 -0.1315  0.0949
 4436TIP3    H134799   2.037   1.389   3.724 -2.2236  1.7594 -2.0301
 4436TIP3    H234800   2.046   1.540   3.710  1.5938  2.0738  1.6922
 4437TIP3   OH234801   1.253   6.334   3.492 -0.0815 -0.2745  0.2638
 4437TIP3    H134802   1.341   6.303   3.471 -0.1495  0.3562 -1.0652
 4437TIP3    H234803   1.266   6.418   3.535 -0.0085 -0.6637  1.0153
 4438TIP3   OH234804   2.432   6.573   5.379  0.5282  0.3604 -0.3775
 4438TIP3    H134805   2.479   6.492   5.399 -0.6003 -0.1232  0.4299
 4438TIP3    H234806   2.417   6.614   5.464 -1.1965  0.0719 -0.4977
 4439TIP3   OH234807   3.863   5.350  15.900  0.1747 -0.7267  0.2261
 4439TIP3    H134808   3.787   5.309  15.858  0.4348 -0.0727 -0.9386
 4439TIP3    H234809   3.887   5.290  15.970 -0.0313 -2.1090 -0.8346
 4440TIP3   OH234810   6.701   2.414   5.992 -0.1199 -0.0716 -0.3299
 4440TIP3    H134811   6.635   2.375   6.049 -0.4212 -1.6970 -1.6956
 4440TIP3    H234812   6.671   2.504   5.977 -1.4906 -0.4760 -0.1117
 4441TIP3   OH234813   1.980   0.220   0.414 -0.2636 -0.0036 -0.1704
 4441TIP3    H134814   1.911   0.278   0.379 -0.0038  0.8817  0.7268
 4441TIP3    H234815   1.994   0.252   0.503  1.5272  0.0129 -0.4396
 4442TIP3   OH234816   1.188   1.581   5.326 -0.1297 -0.1096 -0.5235
 4442TIP3    H134817   1.280   1.561   5.347 -1.1986 -2.9071  2.3145
 4442TIP3    H234818   1.175   1.544   5.239  1.5322  0.9224 -1.2726
 4443TIP3   OH234819   1.080   0.010  11.838 -0.7308  0.6835  0.4668
 4443TIP3    H134820   1.053   0.073  11.771  1.3738  1.1628 -0.0051
 4443TIP3    H234821   1.105  -0.068  11.788 -0.4851  0.5452  0.8081
 4444TIP3   OH234822   0.746   3.313   3.998  0.2937  0.3895  0.4980
 4444TIP3    H134823   0.738   3.223   3.965 -0.6313 -0.2037  2.1881
 4444TIP3    H234824   0.664   3.355   3.973  1.1367  1.1309 -1.1862
 4445TIP3   OH234825   3.485   1.425  16.714 -1.4750  0.5618 -0.5908
 4445TIP3    H134826   3.479   1.330  16.724  1.2487  0.3214 -0.5306
 4445TIP3    H234827   3.513   1.456  16.801  0.3002  1.0562 -1.2940
 4446TIP3   OH234828   0.297   6.349  15.758  0.3167 -0.5530  0.5166
 4446TIP3    H134829   0.252   6.291  15.696 -0.1472  0.5573 -0.2253
 4446TIP3    H234830   0.231   6.414  15.781  1.4847  1.1034 -0.5841
 4447TIP3   OH234831   4.282   5.123  15.150 -0.5926 -0.2118  0.3632
 4447TIP3    H134832   4.273   5.213  15.118  3.5439 -0.4887 -2.2916
 4447TIP3    H234833   4.299   5.132  15.244 -0.9230  1.6839  0.2744
 4448TIP3   OH234834   3.883   1.451  15.152 -0.0363  0.0752  0.0189
 4448TIP3    H134835   3.895   1.356  15.144 -0.8035  0.0487 -0.9547
 4448TIP3    H234836   3.933   1.488  15.079  0.9368  0.4928  0.8658
 4449TIP3   OH234837   3.002   0.007  14.985 -0.4006 -0.2512 -0.0253
 4449TIP3    H134838   2.946   0.014  15.062  0.1372  0.9289  0.2760
 4449TIP3    H234839   2.969   0.075  14.926  0.3738  0.0997 -0.0611
 4450TIP3   OH234840   5.716   6.119  13.446  0.1670 -0.5171 -0.2004
 4450TIP3    H134841   5.657   6.183  13.486  0.6558 -0.3101  0.2075
 4450TIP3    H234842   5.666   6.081  13.374 -0.0263  0.5772 -0.6722
 4451TIP3   OH234843   4.164   3.494  10.745 -0.4624  0.1918  0.5229
 4451TIP3    H134844   4.204   3.464  10.827  2.1887 -0.6647 -0.9815
 4451TIP3    H234845   4.167   3.590  10.751 -0.6105  0.1489  1.5264
 4452TIP3   OH234846   2.787   1.059   0.472  0.1665 -0.6268  0.2002
 4452TIP3    H134847   2.771   1.153   0.464  0.7007 -0.6114 -0.8247
 4452TIP3    H234848   2.706   1.019   0.441  0.4087 -0.5036 -0.6271
 4453TIP3   OH234849   6.125   4.630   0.812 -0.0383 -0.4740 -0.0146
 4453TIP3    H134850   6.127   4.576   0.891 -0.8129 -1.2131 -0.4726
 4453TIP3    H234851   6.108   4.567   0.741  2.8968 -0.1751 -1.1024
 4454TIP3   OH234852   3.147   2.129   2.820 -0.3433 -0.5682 -0.5180
 4454TIP3    H134853   3.189   2.047   2.794  0.0555  0.0417 -1.9313
 4454TIP3    H234854   3.210   2.171   2.879 -0.3063 -1.0275 -0.2326
 4455TIP3   OH234855   1.457   4.313  15.103  0.4005  0.2067  0.1151
 4455TIP3    H134856   1.391   4.330  15.170 -0.5623  1.8357 -1.1823
 4455TIP3    H234857   1.415   4.338  15.021  1.7876 -1.0882 -1.0476
 4456TIP3   OH234858   0.867   1.099  14.454  0.2847 -0.5076 -0.2944
 4456TIP3    H134859   0.777   1.074  14.432  0.7562 -1.7875 -0.8723
 4456TIP3    H234860   0.922   1.042  14.400  1.4570 -0.1625  0.4827
 4457TIP3   OH234861   6.825   2.145   4.768  0.5041 -0.3062 -0.4561
 4457TIP3    H134862   6.779   2.124   4.687  2.2167  0.1702 -1.6019
 4457TIP3    H234863   6.776   2.218   4.806  0.4559  0.3481 -1.7489
 4458TIP3   OH234864   0.710   3.815  11.519 -0.4455  0.3013  0.3917
 4458TIP3    H134865   0.718   3.741  11.580  0.3590  0.4860  0.5176
 4458TIP3    H234866   0.723   3.893  11.573 -0.9793  0.5302  0.2013
 4459TIP3   OH234867   1.392   0.633   3.491  0.8031 -0.2696 -0.1042
 4459TIP3    H134868   1.436   0.582   3.423 -1.4698  0.4088 -2.2093
 4459TIP3    H234869   1.463   0.663   3.549  2.9323 -0.2564 -2.5690
 4460TIP3   OH234870   2.437   5.428  17.117  0.3981  0.0613 -0.1643
 4460TIP3    H134871   2.415   5.459  17.029 -0.3584 -0.1308 -0.0478
 4460TIP3    H234872   2.429   5.506  17.172  0.2487  0.0455 -0.1635
 4461TIP3   OH234873   2.056   5.348  13.739  0.2559  0.4114 -0.2159
 4461TIP3    H134874   2.114   5.360  13.664 -0.8363 -1.0400 -1.3557
 4461TIP3    H234875   2.097   5.277  13.789  0.4958  0.7446  0.0624
 4462TIP3   OH234876   4.448   6.675  14.707 -0.2208 -0.5874  0.1822
 4462TIP3    H134877   4.365   6.637  14.738 -0.4955 -0.0952  0.0673
 4462TIP3    H234878   4.515   6.615  14.740 -0.5712 -0.6109  0.8813
 4463TIP3   OH234879   0.691   0.748  16.080  0.5444 -0.6941  0.6904
 4463TIP3    H134880   0.663   0.828  16.036  1.3927 -0.7036  0.1152
 4463TIP3    H234881   0.610   0.697  16.092  0.4233 -1.2951 -2.0873
 4464TIP3   OH234882   1.556   4.019  15.873 -0.4400 -0.1675 -0.6707
 4464TIP3    H134883   1.628   4.073  15.907 -0.3256 -0.9231  0.3531
 4464TIP3    H234884   1.517   3.980  15.951 -1.5900 -0.2482 -1.2623
 4465TIP3   OH234885   0.752   3.849   4.368 -0.2663  0.4892 -0.5755
 4465TIP3    H134886   0.817   3.824   4.433  0.0565  1.4744 -0.5006
 4465TIP3    H234887   0.784   3.811   4.286  0.3718  0.8981 -0.5253
 4466TIP3   OH234888   1.842   6.028  13.407  0.5589  0.0833 -0.1783
 4466TIP3    H134889   1.879   6.036  13.318  0.2897  0.6747 -0.2471
 4466TIP3    H234890   1.915   6.049  13.465  0.5516  0.4404 -0.2907
 4467TIP3   OH234891   4.398   4.436  11.110 -0.0560 -0.4651  0.6654
 4467TIP3    H134892   4.350   4.410  11.031  1.7278 -0.8921 -0.3405
 4467TIP3    H234893   4.393   4.532  11.110 -0.5860 -0.4892  0.3693
 4468TIP3   OH234894   1.951   0.186   2.529  0.4007  0.0025  0.4397
 4468TIP3    H134895   2.010   0.216   2.598 -0.6010  1.4370  0.7140
 4468TIP3    H234896   1.925   0.265   2.483  0.0295 -0.7961 -0.7701
 4469TIP3   OH234897   6.655   4.909  12.142 -0.2739 -0.2194 -0.3341
 4469TIP3    H134898   6.606   4.931  12.063 -0.7900  0.3955  0.1434
 4469TIP3    H234899   6.651   4.988  12.195 -0.4347 -0.8164  0.5630
 4470TIP3   OH234900   3.061   0.785  12.779  0.5367 -0.1832  0.0178
 4470TIP3    H134901   3.145   0.751  12.808  0.3353 -0.2342  0.5532
 4470TIP3    H234902   3.028   0.835  12.854 -0.2677 -0.8150  0.1011
 4471TIP3   OH234903   5.993   2.714  14.814  0.2569  0.1984 -0.5236
 4471TIP3    H134904   5.940   2.732  14.736 -0.5823  0.1640  0.0271
 4471TIP3    H234905   5.929   2.699  14.884  0.9745 -1.0670 -0.1048
 4472TIP3   OH234906   1.406   4.411  14.847  0.2047 -0.1269 -0.3772
 4472TIP3    H134907   1.384   4.502  14.823  0.1121 -0.0089  0.1487
 4472TIP3    H234908   1.448   4.376  14.769 -0.0323  0.2762 -0.6957
 4473TIP3   OH234909   4.368   1.405  16.357  0.0699 -0.4630 -0.8422
 4473TIP3    H134910   4.328   1.344  16.296 -1.0930  0.7494 -1.3380
 4473TIP3    H234911   4.377   1.486  16.307 -0.9942  0.5892  0.6016
 4474TIP3   OH234912   1.417   3.204   0.451  0.3756  0.2183 -0.0510
 4474TIP3    H134913   1.401   3.164   0.536  0.2362 -1.6437 -0.8861
 4474TIP3    H234914   1.429   3.297   0.469 -1.6799  0.2038  1.7361
 4475TIP3   OH234915   0.955   1.773  15.718  0.3867  0.4580 -0.0277
 4475TIP3    H134916   0.952   1.838  15.788 -0.5372  0.5504 -0.1476
 4475TIP3    H234917   0.936   1.822  15.638  3.3376  0.7411 -0.6866
 4476TIP3   OH234918   0.592   3.139  13.619  0.6402 -0.7697  1.1585
 4476TIP3    H134919   0.638   3.156  13.536 -1.0129  0.6000  0.4617
 4476TIP3    H234920   0.639   3.191  13.684  0.6894 -0.1523  0.6402
 4477TIP3   OH234921   4.022   3.854  15.737  0.3746  0.0842  0.2856
 4477TIP3    H134922   4.103   3.874  15.784  0.0902 -1.2135  1.3790
 4477TIP3    H234923   3.957   3.842  15.806 -0.2577 -0.9950 -0.4667
 4478TIP3   OH234924   3.265   0.162   6.773 -0.2217  0.0598 -0.0392
 4478TIP3    H134925   3.327   0.220   6.818 -1.6703  2.0186 -0.4014
 4478TIP3    H234926   3.215   0.120   6.843  0.9815 -0.9678  0.2344
 4479TIP3   OH234927   1.335   6.351  12.509  0.3658 -0.2512  0.0158
 4479TIP3    H134928   1.276   6.323  12.439 -3.8980  1.2590  2.5834
 4479TIP3    H234929   1.387   6.421  12.469  0.3034 -1.4417 -2.3396
 4480TIP3   OH234930   0.841   4.861   5.736 -0.2203 -0.2606  0.3447
 4480TIP3    H134931   0.791   4.863   5.655  0.5315 -0.0096 -0.1207
 4480TIP3    H234932   0.931   4.842   5.709  0.0780  0.0417  1.0923
 4481TIP3   OH234933   3.541   2.655  12.893  0.3490  0.4433 -0.3114
 4481TIP3    H134934   3.536   2.714  12.969 -1.5965  0.2392 -0.2329
 4481TIP3    H234935   3.453   2.621  12.883  1.2542 -1.9843 -0.7789
 4482TIP3   OH234936   3.221   2.615  16.401  0.2880 -0.7787  0.3004
 4482TIP3    H134937   3.213   2.521  16.417 -0.6391 -0.5310  1.4110
 4482TIP3    H234938   3.181   2.656  16.477  0.3590  0.5244 -0.3346
 4483TIP3   OH234939   5.211   4.196   5.363 -0.0880 -1.0039 -0.2278
 4483TIP3    H134940   5.154   4.266   5.333  0.2821 -1.6745 -2.6928
 4483TIP3    H234941   5.162   4.153   5.434 -1.9031 -0.5353 -1.1483
 4484TIP3   OH234942   4.943   5.566   5.688  0.0555 -0.0373  0.2208
 4484TIP3    H134943   4.945   5.502   5.759  1.1074 -0.2947 -0.0156
 4484TIP3    H234944   5.034   5.571   5.658 -0.4476 -0.3432 -1.4523
 4485TIP3   OH234945   0.649   6.307  13.793 -0.7512 -0.3536  0.5125
 4485TIP3    H134946   0.636   6.396  13.826 -0.1346 -0.3388  0.7271
 4485TIP3    H234947   0.567   6.286  13.748 -1.0317  0.1904  0.7609
 4486TIP3   OH234948   2.432   3.180   5.658  0.0008  0.3086 -0.4125
 4486TIP3    H134949   2.418   3.095   5.698  0.6273  0.1536 -0.5051
 4486TIP3    H234950   2.427   3.164   5.564  1.1711  0.1604 -0.4652
 4487TIP3   OH234951   4.173   4.136  13.508  0.1323 -0.2322  1.0536
 4487TIP3    H134952   4.265   4.117  13.489  0.5582  0.4259  2.3070
 4487TIP3    H234953   4.146   4.196  13.439  0.7801 -0.0858  0.9180
 4488TIP3   OH234954   1.799   3.191   5.310 -0.4556 -0.2297 -0.1811
 4488TIP3    H134955   1.816   3.138   5.233  0.4569  1.2833 -1.0765
 4488TIP3    H234956   1.719   3.155   5.348  0.7695 -3.0024 -0.0201
 4489TIP3   OH234957   3.100   4.765  17.296  0.2887  0.0926  0.0773
 4489TIP3    H134958   3.033   4.800  17.237 -0.4731 -2.7999 -0.9770
 4489TIP3    H234959   3.052   4.733  17.372  0.7962  0.3105  0.4963
 4490TIP3   OH234960   4.729   0.409   0.822  0.1975 -0.2704  0.3539
 4490TIP3    H134961   4.801   0.382   0.879 -1.1324 -1.0840  1.7361
 4490TIP3    H234962   4.704   0.495   0.856 -0.5185 -0.7032  0.9537
 4491TIP3   OH234963   0.445   0.679   5.212  0.3475 -0.1334  0.0879
 4491TIP3    H134964   0.441   0.723   5.297  0.3939  1.5355 -0.7401
 4491TIP3    H234965   0.510   0.729   5.162  0.0877 -0.8977 -1.0464
 4492TIP3   OH234966   5.932   4.903   5.993 -0.3507 -0.3986 -0.0098
 4492TIP3    H134967   5.925   4.997   5.976 -1.6408 -0.2616  1.0724
 4492TIP3    H234968   5.971   4.897   6.080  1.0677 -0.9286 -0.6555
 4493TIP3   OH234969   3.159   3.647   3.205 -0.3364  0.5908  0.1969
 4493TIP3    H134970   3.113   3.716   3.254 -1.4574  0.1451 -0.2157
 4493TIP3    H234971   3.224   3.614   3.267 -0.9585  0.8383  1.0057
 4494TIP3   OH234972   1.690   0.574  17.192  0.6164  0.1221 -0.3882
 4494TIP3    H134973   1.777   0.581  17.231  0.4753  0.0433 -0.0540
 4494TIP3    H234974   1.686   0.645  17.129  0.1620  1.4509  1.0642
 4495TIP3   OH234975   4.071   6.045  15.953 -0.0654  0.1478  0.1347
 4495TIP3    H134976   4.101   6.129  15.986 -0.4372  0.3622 -0.0664
 4495TIP3    H234977   4.082   6.052  15.858 -0.5982  0.1741  0.0707
 4496TIP3   OH234978   6.531   2.714  16.788  0.0407  0.0928  0.1314
 4496TIP3    H134979   6.513   2.660  16.711 -0.3890 -1.4697  1.2721
 4496TIP3    H234980   6.563   2.652  16.854 -1.5313  1.0278  1.8650
 4497TIP3   OH234981   4.949   2.691   5.072 -0.4106  0.0528 -0.2666
 4497TIP3    H134982   4.923   2.658   4.986 -0.1420 -1.9407  0.3633
 4497TIP3    H234983   5.045   2.690   5.071 -0.3723  1.4610 -0.4322
 4498TIP3   OH234984   0.682   3.941  11.221  0.2097 -0.6034  0.0676
 4498TIP3    H134985   0.721   3.860  11.252 -0.2650 -0.4674  1.0694
 4498TIP3    H234986   0.737   3.968  11.148 -0.1992 -2.3335 -0.9316
 4499TIP3   OH234987   2.278   3.522   0.517 -0.4391  0.0789  0.0162
 4499TIP3    H134988   2.216   3.561   0.456  0.2796  0.4725 -0.4653
 4499TIP3    H234989   2.331   3.595   0.549  0.4985 -0.4003 -0.4110
 4500TIP3   OH234990   0.402   2.784   0.864 -0.0357  0.1324 -0.4661
 4500TIP3    H134991   0.348   2.820   0.794 -1.2087  0.5231  0.5976
 4500TIP3    H234992   0.471   2.736   0.819 -0.3202  0.9986 -1.8888
 4501TIP3   OH234993   4.278   5.537   1.604 -0.0055 -0.9952 -0.9395
 4501TIP3    H134994   4.355   5.482   1.588  0.9928 -0.2029  0.8037
 4501TIP3    H234995   4.207   5.476   1.620  1.3415 -1.9067  2.2224
 4502TIP3   OH234996   3.997   0.379   6.304  0.2993 -0.4566  0.4585
 4502TIP3    H134997   3.940   0.312   6.342  1.3614 -1.3150  0.5914
 4502TIP3    H234998   4.081   0.366   6.347  1.3377 -0.9711 -1.6071
 4503TIP3   OH234999   1.727   3.427  16.693  0.9026  0.4461  1.2367
 4503TIP3    H135000   1.798   3.417  16.630  0.0093 -0.2266  0.3130
 4503TIP3    H235001   1.771   3.433  16.778  2.0509 -0.1194  0.6997
 4504TIP3   OH235002   0.065   0.307  16.576 -0.4347 -0.0623 -0.1177
 4504TIP3    H135003   0.013   0.269  16.505 -0.2689  0.6299 -0.6073
 4504TIP3    H235004   0.138   0.350  16.533 -1.8049  2.8152  0.2355
 4505TIP3   OH235005   4.209   5.713   4.759  0.0550 -0.0738 -0.0987
 4505TIP3    H135006   4.143   5.781   4.764 -2.5344 -2.4474  0.7719
 4505TIP3    H235007   4.169   5.638   4.803  3.2717 -1.7559  0.2643
 4506TIP3   OH235008   1.252   0.724   4.738 -0.0386 -0.0758  0.1445
 4506TIP3    H135009   1.237   0.651   4.798 -3.1848  0.2537 -0.1121
 4506TIP3    H235010   1.174   0.728   4.684  1.3369  1.6446 -1.8905
 4507TIP3   OH235011   5.251   6.799   4.009 -0.0178 -0.0439  0.4486
 4507TIP3    H135012   5.181   6.737   3.988 -0.3821  0.5068 -0.0001
 4507TIP3    H235013   5.332   6.749   3.997 -0.2591 -0.1465 -0.9412
 4508TIP3   OH235014   6.667   3.070   6.063 -0.0169  0.0372  0.1556
 4508TIP3    H135015   6.659   3.052   5.969 -1.2581  0.9653  0.0525
 4508TIP3    H235016   6.756   3.044   6.085 -0.1232 -1.4205 -0.9923
 4509TIP3   OH235017   0.818   0.180  12.965  0.1207  0.3306 -0.5916
 4509TIP3    H135018   0.909   0.158  12.984  0.4278  2.5125  0.8508
 4509TIP3    H235019   0.808   0.160  12.872  2.0165 -0.1163 -0.7524
 4510TIP3   OH235020   5.093   2.872   5.709 -0.5980 -0.5657 -0.2250
 4510TIP3    H135021   5.008   2.876   5.754 -0.5438  0.3271 -0.1875
 4510TIP3    H235022   5.157   2.868   5.779 -0.6032 -1.4910 -0.2540
 4511TIP3   OH235023   2.644   6.277   2.030 -0.4459 -0.1833 -0.3475
 4511TIP3    H135024   2.590   6.202   2.055  0.0270 -1.0747 -1.8702
 4511TIP3    H235025   2.672   6.314   2.114 -0.0645 -2.1812  0.4919
 4512TIP3   OH235026   6.000   1.480   2.181 -0.1726 -0.4516  0.1221
 4512TIP3    H135027   6.050   1.458   2.102 -0.2053  1.5505 -0.5047
 4512TIP3    H235028   5.969   1.569   2.166 -1.4111 -0.5475  1.7976
 4513TIP3   OH235029   1.622   3.244   2.608  0.5810  0.9397  0.4883
 4513TIP3    H135030   1.707   3.266   2.645  2.3640 -3.3854 -0.4633
 4513TIP3    H235031   1.635   3.251   2.513  0.0252 -0.1559  0.3213
 4514TIP3   OH235032   6.449   4.955   4.285  0.1471  0.6798 -0.1314
 4514TIP3    H135033   6.541   4.965   4.261  0.2248  0.4407  0.0611
 4514TIP3    H235034   6.416   4.888   4.224  0.7086 -1.0037  1.3230
 4515TIP3   OH235035   2.330   3.345   2.264 -0.1271  0.7665 -0.2829
 4515TIP3    H135036   2.355   3.254   2.253  0.2604  0.9887 -1.3495
 4515TIP3    H235037   2.287   3.348   2.350  4.7903  0.6411  2.5538
 4516TIP3   OH235038   5.314   2.836   3.749 -0.0618  0.4121 -0.8203
 4516TIP3    H135039   5.272   2.755   3.720  2.2604 -0.6554 -1.4385
 4516TIP3    H235040   5.361   2.811   3.829 -0.2543  1.4756 -0.3550
 4517TIP3   OH235041   3.261   5.291   3.528 -0.1236  0.7212 -0.1549
 4517TIP3    H135042   3.291   5.369   3.575 -1.1544  0.5208  0.8726
 4517TIP3    H235043   3.264   5.317   3.436 -0.1270  1.8593  0.1471
 4518TIP3   OH235044   1.298   4.698  14.787  0.1169 -0.2975  0.5676
 4518TIP3    H135045   1.280   4.737  14.702 -0.3869 -0.3356  0.6555
 4518TIP3    H235046   1.214   4.699  14.833  0.6677  1.1479  1.6534
 4519TIP3   OH235047   4.726   5.467  16.320 -0.0506  0.3482  0.3900
 4519TIP3    H135048   4.712   5.557  16.290 -0.9754 -0.2206 -1.0117
 4519TIP3    H235049   4.641   5.439  16.354  0.8958  0.8672  3.5004
 4520TIP3   OH235050   1.562   2.499  16.519 -0.4561 -0.1339 -0.4468
 4520TIP3    H135051   1.638   2.499  16.576  2.2721  1.1845 -3.7723
 4520TIP3    H235052   1.534   2.590  16.516 -0.1290 -0.0575 -1.6642
 4521TIP3   OH235053   6.818   4.488   3.696 -0.1359 -0.0093  0.1502
 4521TIP3    H135054   6.807   4.582   3.685  0.3971 -0.0662 -1.0187
 4521TIP3    H235055   6.857   4.478   3.783 -0.6886  0.8006  0.5024
 4522TIP3   OH235056   3.207   1.496   2.292 -0.6809  0.2612 -0.1367
 4522TIP3    H135057   3.209   1.403   2.268  0.7205  0.7011 -1.9332
 4522TIP3    H235058   3.114   1.514   2.307 -1.1974 -1.0671 -1.3917
 4523TIP3   OH235059   4.515   3.709   2.305  0.1929 -0.4343  0.1507
 4523TIP3    H135060   4.450   3.646   2.336  1.8310 -1.3294  1.9880
 4523TIP3    H235061   4.468   3.761   2.240 -2.5742 -0.5769  1.8402
 4524TIP3   OH235062   4.403   0.057  12.197  0.0527  0.3569  0.2206
 4524TIP3    H135063   4.370   0.127  12.254 -2.3468 -1.9738  1.9184
 4524TIP3    H235064   4.485   0.029  12.238 -0.0981  0.6978  0.7603
 4525TIP3   OH235065   3.858   0.821   2.332 -0.2182  0.0002 -0.3631
 4525TIP3    H135066   3.886   0.730   2.341 -0.7224 -0.1096  0.1947
 4525TIP3    H235067   3.938   0.869   2.309  0.0204 -0.6017 -0.8034
 4526TIP3   OH235068   6.795   4.054  16.905  0.4143  0.0218  0.8247
 4526TIP3    H135069   6.810   4.080  16.814 -0.5543  3.1458  1.4163
 4526TIP3    H235070   6.866   4.095  16.954 -1.7197  2.7421  1.9354
 4527TIP3   OH235071   6.802   3.025   3.252 -0.3843 -0.6339 -0.8374
 4527TIP3    H135072   6.879   3.080   3.269 -1.8433  1.1239  0.5534
 4527TIP3    H235073   6.836   2.950   3.204  1.9669  0.7621 -1.5109
 4528TIP3   OH235074   0.689   3.440   6.400 -0.2591  0.0996 -0.0203
 4528TIP3    H135075   0.654   3.529   6.398  1.8981  1.0660  1.8695
 4528TIP3    H235076   0.686   3.415   6.492  1.3249 -0.8505 -0.1921
 4529TIP3   OH235077   4.123   1.364   0.123  0.3603  0.4580  0.6313
 4529TIP3    H135078   4.166   1.379   0.207  0.3289  0.3499  0.6667
 4529TIP3    H235079   4.034   1.398   0.136  0.4394  0.6979  0.5524
 4530TIP3   OH235080   6.266   0.877  15.741 -0.3727 -0.4302 -0.0185
 4530TIP3    H135081   6.358   0.854  15.726 -0.4484 -1.4493  0.9208
 4530TIP3    H235082   6.216   0.807  15.698 -0.6414 -1.3293  1.6806
 4531TIP3   OH235083   6.560   5.489  12.349  0.0313  0.3167  0.4277
 4531TIP3    H135084   6.506   5.535  12.413  0.5597  1.4402  0.0924
 4531TIP3    H235085   6.523   5.514  12.265  0.9115  0.9111  0.2060
 4532TIP3   OH235086   5.699   0.878   3.268  0.6202 -0.4159  0.0735
 4532TIP3    H135087   5.634   0.824   3.313  1.0975  0.6627  2.1888
 4532TIP3    H235088   5.659   0.900   3.185 -2.9354  2.2939  2.2391
 4533TIP3   OH235089   2.317   0.470   5.847  0.2717  0.3328 -0.0001
 4533TIP3    H135090   2.232   0.513   5.835  0.1243 -0.7375 -4.5903
 4533TIP3    H235091   2.295   0.378   5.858  0.7823  0.0803 -1.0124
 4534TIP3   OH235092   3.225   0.612   6.677 -0.0867  0.0293  0.6408
 4534TIP3    H135093   3.233   0.599   6.583  2.1549 -0.1611  0.7958
 4534TIP3    H235094   3.131   0.606   6.695 -0.5142 -0.3655 -1.4946
 4535TIP3   OH235095   1.855   4.741  13.455 -0.3678 -0.6256  0.2604
 4535TIP3    H135096   1.863   4.646  13.465  0.6626 -0.6452 -0.5189
 4535TIP3    H235097   1.930   4.765  13.401 -0.1608  0.7526  1.1159
 4536TIP3   OH235098   1.293   5.871  13.325 -0.1641  0.2098 -0.3761
 4536TIP3    H135099   1.217   5.915  13.362 -0.5250 -0.2693 -0.5413
 4536TIP3    H235100   1.295   5.899  13.233  0.5037  1.0901 -0.1001
 4537TIP3   OH235101   3.384   2.378   5.397 -0.1918  0.0429 -0.0135
 4537TIP3    H135102   3.382   2.296   5.446 -1.8695 -0.6574 -1.1744
 4537TIP3    H235103   3.455   2.365   5.333  1.1951  0.5045  1.3509
 4538TIP3   OH235104   3.849   6.770   6.354 -0.0622 -0.0005  0.0889
 4538TIP3    H135105   3.833   6.828   6.428  1.0455  0.5094 -0.0565
 4538TIP3    H235106   3.817   6.684   6.384 -1.6808  0.6414  0.3167
 4539TIP3   OH235107   4.114   3.961   4.020  0.2286  0.2728  0.0096
 4539TIP3    H135108   4.104   4.016   4.097  1.2473  0.8294 -0.2378
 4539TIP3    H235109   4.054   4.000   3.955 -1.6037 -0.9561  0.8760
 4540TIP3   OH235110   6.299   3.655  12.421  0.1671 -0.2604 -0.3434
 4540TIP3    H135111   6.352   3.623  12.348 -1.1428 -2.1475 -0.5324
 4540TIP3    H235112   6.247   3.726  12.383  1.0567  0.2476 -0.6546
 4541TIP3   OH235113   0.839   1.964  11.923  0.5313 -0.0885 -0.1683
 4541TIP3    H135114   0.776   2.033  11.905  0.1507 -0.6859 -1.1635
 4541TIP3    H235115   0.806   1.921  12.002 -0.0784 -0.1248 -0.4413
 4542TIP3   OH235116   5.143   3.397   2.894  0.0651  0.2881 -0.0734
 4542TIP3    H135117   5.201   3.414   2.968  0.3428 -1.1785  0.0803
 4542TIP3    H235118   5.067   3.354   2.932 -0.6007  1.1392 -0.4280
 4543TIP3   OH235119   3.501   5.354  17.107 -0.6886 -0.3752 -0.1755
 4543TIP3    H135120   3.495   5.431  17.050  0.5900  0.0737  0.2522
 4543TIP3    H235121   3.506   5.280  17.047 -0.3703  0.0107 -0.6358
 4544TIP3   OH235122   5.919   5.775  13.865  0.0039  0.1119 -0.0971
 4544TIP3    H135123   5.918   5.868  13.840 -0.7866 -0.0690 -0.7629
 4544TIP3    H235124   5.834   5.742  13.839  1.4644 -1.6663 -3.1404
 4545TIP3   OH235125   5.198   0.424  14.402 -0.1629  0.3545  0.1676
 4545TIP3    H135126   5.125   0.363  14.393 -0.3682  0.5673  0.3987
 4545TIP3    H235127   5.173   0.500  14.350  0.5715 -0.1839 -1.0345
 4546TIP3   OH235128   3.667   4.432   3.721 -0.4935 -0.0935  0.1375
 4546TIP3    H135129   3.695   4.344   3.697  0.7549 -0.1715  1.7411
 4546TIP3    H235130   3.705   4.488   3.653  0.9344 -0.5472  0.5144
 4547TIP3   OH235131   4.496   2.867   1.769  0.0981  0.1431  0.1718
 4547TIP3    H135132   4.560   2.927   1.732 -0.5841  0.9394  0.2585
 4547TIP3    H235133   4.412   2.895   1.733 -0.5681  0.8242  2.0949
 4548TIP3   OH235134   5.785   3.238  16.219  0.1378 -0.5993  0.5799
 4548TIP3    H135135   5.762   3.159  16.169  1.4996 -1.3164  1.0351
 4548TIP3    H235136   5.878   3.250  16.202 -0.1372  1.2047  0.1531
 4549TIP3   OH235137   3.017   3.377   0.598  0.3373  0.1337 -0.0972
 4549TIP3    H135138   3.102   3.340   0.622 -0.0255  0.5590  2.0528
 4549TIP3    H235139   3.007   3.453   0.655 -1.8472 -0.4087  0.3285
 4550TIP3   OH235140   1.544   4.501  13.974  0.3029  0.3005 -0.5738
 4550TIP3    H135141   1.490   4.579  13.965 -1.4458 -0.1902  3.4797
 4550TIP3    H235142   1.488   4.429  13.946  0.2822  0.1551 -0.1727
 4551TIP3   OH235143   2.276   1.455   2.082 -0.7284  0.1093  0.1560
 4551TIP3    H135144   2.298   1.432   2.173 -1.2358 -2.3656 -0.2535
 4551TIP3    H235145   2.311   1.382   2.031 -1.0873  1.1029 -1.5733
 4552TIP3   OH235146   0.823   1.330  12.150  0.3799  0.5095 -0.0025
 4552TIP3    H135147   0.783   1.409  12.113  1.2902  0.1212 -1.9129
 4552TIP3    H235148   0.845   1.276  12.074 -0.0295 -1.5134  1.2453
 4553TIP3   OH235149   3.643   0.004   2.859  0.4030  0.0525 -0.1830
 4553TIP3    H135150   3.685   0.027   2.776  0.5030 -1.0373 -0.4485
 4553TIP3    H235151   3.689   0.056   2.924  1.7601 -0.6432 -0.5519
 4554TIP3   OH235152   1.588   1.635   5.008  0.6900 -0.2251  0.8904
 4554TIP3    H135153   1.620   1.568   4.948  1.0307 -0.5059  1.3720
 4554TIP3    H235154   1.666   1.687   5.028  0.4185  0.3452  0.4856
 4555TIP3   OH235155   5.929   2.392   4.663  0.2020  1.1139 -0.2374
 4555TIP3    H135156   5.954   2.345   4.743  1.5610 -0.2975 -1.4202
 4555TIP3    H235157   5.882   2.327   4.611  0.3660  1.6567 -1.0722
 4556TIP3   OH235158   2.890   4.053  10.949 -0.5525  0.0104  0.3523
 4556TIP3    H135159   2.810   4.060  10.897 -0.9351 -0.5826  0.8444
 4556TIP3    H235160   2.933   4.138  10.938 -0.0557 -0.4686 -1.8115
 4557TIP3   OH235161   1.990   1.717   3.637 -0.0098 -0.6104 -0.3716
 4557TIP3    H135162   1.917   1.763   3.678 -0.4312 -0.9530 -0.7357
 4557TIP3    H235163   1.971   1.720   3.544  0.4718 -0.6492 -0.4715
 4558TIP3   OH235164   6.590   4.515   3.533  0.0052 -0.2042 -0.2112
 4558TIP3    H135165   6.616   4.599   3.569 -0.6890 -0.2159  0.3321
 4558TIP3    H235166   6.630   4.450   3.591  1.7374 -0.2993 -1.4448
 4559TIP3   OH235167   3.576   2.092   4.118  0.1156 -0.4457 -0.3151
 4559TIP3    H135168   3.632   2.161   4.082 -0.9828 -0.6256 -2.5448
 4559TIP3    H235169   3.630   2.050   4.185  1.6171  1.1286 -0.4599
 4560TIP3   OH235170   6.102   2.470  15.080  0.3994 -0.1635  0.3172
 4560TIP3    H135171   6.141   2.512  15.004 -1.4754 -0.6858 -1.0091
 4560TIP3    H235172   6.063   2.542  15.131 -0.3730 -0.0166 -0.4674
 4561TIP3   OH235173   6.236   4.944   3.760 -0.1848 -1.1191  0.0462
 4561TIP3    H135174   6.252   4.941   3.665  0.3777 -0.2795  0.0993
 4561TIP3    H235175   6.231   4.852   3.786 -3.3438 -1.4445 -1.2576
 4562TIP3   OH235176   6.717   2.151   2.665  0.1377 -0.1180  0.6774
 4562TIP3    H135177   6.760   2.102   2.736  0.0981 -0.5140  0.4281
 4562TIP3    H235178   6.631   2.112   2.658  0.8962 -1.5782 -1.0729
 4563TIP3   OH235179   3.531   4.783   1.949  0.4032  0.2515 -0.4126
 4563TIP3    H135180   3.563   4.752   1.865  0.3512  1.1923 -0.7913
 4563TIP3    H235181   3.507   4.874   1.934 -0.8684  0.0557  0.2898
 4564TIP3   OH235182   3.028   4.070   4.385 -0.1498 -0.2571 -0.3824
 4564TIP3    H135183   3.004   4.055   4.477  0.3984  0.5407 -0.0948
 4564TIP3    H235184   3.073   3.990   4.358  0.8255 -0.0200  0.4553
 4565TIP3   OH235185   2.555   5.454   3.007 -0.3043  0.3674 -0.2401
 4565TIP3    H135186   2.580   5.391   3.074 -1.0789  1.3988  1.0800
 4565TIP3    H235187   2.634   5.506   2.993 -0.2416  0.3920  0.1732
 4566TIP3   OH235188   2.534   1.337   1.166  0.1819  0.0426 -0.0978
 4566TIP3    H135189   2.506   1.373   1.251  0.0014 -0.7258  0.1722
 4566TIP3    H235190   2.557   1.414   1.114  0.4738  0.5093  0.7129
 4567TIP3   OH235191   1.063   4.343  13.142 -0.4792  0.3140  0.1389
 4567TIP3    H135192   1.107   4.331  13.057 -0.1524  1.0897  0.1919
 4567TIP3    H235193   0.970   4.355  13.119 -1.2574 -4.0274  0.1647
 4568TIP3   OH235194   3.800   0.428  11.224  0.1271  0.0677  0.0920
 4568TIP3    H135195   3.831   0.354  11.277  0.1896  0.4937  0.6652
 4568TIP3    H235196   3.740   0.389  11.161 -0.1338 -0.4258  0.6321
 4569TIP3   OH235197   6.130   3.293   3.702  0.4097  0.2894 -0.4830
 4569TIP3    H135198   6.039   3.319   3.686  0.5279  1.4971  0.6112
 4569TIP3    H235199   6.125   3.223   3.767  0.2589  0.0882 -0.7085
 4570TIP3   OH235200   1.562   3.819  15.264 -0.0617  0.0425 -0.1120
 4570TIP3    H135201   1.540   3.786  15.352 -0.2402  0.6393  0.0779
 4570TIP3    H235202   1.540   3.747  15.205  0.9801 -0.7289  0.4127
 4571TIP3   OH235203   1.775   4.181  12.524 -0.7537 -0.0203 -0.2282
 4571TIP3    H135204   1.865   4.205  12.503  0.3221 -2.4456  1.1283
 4571TIP3    H235205   1.728   4.184  12.441  1.0350 -0.4573 -1.2945
 4572TIP3   OH235206   0.453   0.865  11.339  0.2586 -0.0723  0.0788
 4572TIP3    H135207   0.409   0.947  11.360  2.0348  1.2111 -0.9504
 4572TIP3    H235208   0.543   0.878  11.368  0.4596 -1.9093  0.4235
 4573TIP3   OH235209   2.020   2.433  13.815 -0.1379  0.1448 -0.0499
 4573TIP3    H135210   2.042   2.355  13.763  2.2800  0.2014  0.7443
 4573TIP3    H235211   1.969   2.399  13.889 -3.2553  0.0162 -2.0703
 4574TIP3   OH235212   6.039   1.279   6.448 -0.0871  0.1198 -0.1804
 4574TIP3    H135213   5.996   1.363   6.432  0.0867  0.0134 -1.3421
 4574TIP3    H235214   6.008   1.223   6.376  1.2697 -0.2349 -0.5164
 4575TIP3   OH235215   4.146   6.355  11.801 -0.4493  0.3820  0.2034
 4575TIP3    H135216   4.064   6.390  11.836  0.4364  2.4657  0.3548
 4575TIP3    H235217   4.204   6.431  11.795  1.7053 -1.1147  0.7004
 4576TIP3   OH235218   5.526   4.808  16.692 -0.0983  0.1230 -0.4733
 4576TIP3    H135219   5.494   4.854  16.770 -0.4153  2.5897 -1.9655
 4576TIP3    H235220   5.511   4.715  16.711 -3.1639  0.8232  1.0614
 4577TIP3   OH235221   0.109   1.149   0.117  0.2117 -0.8197  0.0415
 4577TIP3    H135222   0.156   1.146   0.033 -1.8676 -0.7659 -1.2097
 4577TIP3    H235223   0.132   1.068   0.161  3.2366  0.2168  0.5663
 4578TIP3   OH235224   1.536   3.167   4.223  0.1098  0.0269 -0.5453
 4578TIP3    H135225   1.596   3.094   4.239  1.6322  1.0582 -1.2887
 4578TIP3    H235226   1.483   3.138   4.149 -0.4938 -0.9916  0.2610
 4579TIP3   OH235227   3.719   1.010  11.390  0.0023 -0.2016 -0.1381
 4579TIP3    H135228   3.778   0.945  11.351 -0.3011  0.0246 -0.9768
 4579TIP3    H235229   3.736   1.091  11.341  0.4849  0.4127  0.9883
 4580TIP3   OH235230   2.564   3.482   2.214  0.1229  0.2514  0.0104
 4580TIP3    H135231   2.568   3.504   2.307 -1.2118  0.3340  0.0675
 4580TIP3    H235232   2.483   3.432   2.205 -0.2173  0.9875 -1.2541
 4581TIP3   OH235233   5.099   4.512  11.665  0.0902  0.3734 -0.1383
 4581TIP3    H135234   5.183   4.466  11.667 -0.5027 -0.8582 -1.2913
 4581TIP3    H235235   5.087   4.535  11.573 -0.5951  0.9900  0.0998
 4582TIP3   OH235236   0.312   2.240  16.999  0.0599  0.4451  0.5305
 4582TIP3    H135237   0.259   2.255  16.921  0.1490 -2.3217 -0.1676
 4582TIP3    H235238   0.261   2.178  17.052  0.7621  0.9591  1.8581
 4583TIP3   OH235239   5.007   4.004  10.641 -0.4165 -0.6290  0.1414
 4583TIP3    H135240   5.060   3.965  10.572 -0.4331  0.2601 -0.3911
 4583TIP3    H235241   4.965   4.079  10.600 -2.6482 -1.6857  0.3552
 4584TIP3   OH235242   3.725   0.555   0.784  0.4392  0.9226  0.5404
 4584TIP3    H135243   3.673   0.635   0.774 -0.5441  0.1769 -0.5340
 4584TIP3    H235244   3.790   0.560   0.714 -1.4500 -0.5340 -1.4543
 4585TIP3   OH235245   0.596   2.530  13.547 -1.1338 -1.0661 -0.4539
 4585TIP3    H135246   0.531   2.600  13.536  0.2915  0.5502  0.8319
 4585TIP3    H235247   0.671   2.558  13.494  1.6870  1.4952  4.2048
 4586TIP3   OH235248   1.491   0.068   5.260 -0.4594 -0.7164 -0.0197
 4586TIP3    H135249   1.530   0.144   5.218  0.7363 -1.1088  0.3598
 4586TIP3    H235250   1.557   0.036   5.321 -0.9609 -2.0156 -0.1119
 4587TIP3   OH235251   0.412   4.150  13.847 -0.2005  0.1668  0.1235
 4587TIP3    H135252   0.359   4.071  13.839  1.1829 -0.6696 -1.2434
 4587TIP3    H235253   0.494   4.120  13.885  0.2663  0.9796 -0.2271
 4588TIP3   OH235254   5.261   4.172  13.411 -0.3096 -0.2349  0.5956
 4588TIP3    H135255   5.186   4.117  13.434  0.4258 -1.2896  0.5806
 4588TIP3    H235256   5.312   4.118  13.351  0.1388  0.7147  0.1091
 4589TIP3   OH235257   2.059   1.273   1.020  0.4711 -0.1297 -0.5269
 4589TIP3    H135258   1.967   1.290   0.999  0.0711 -0.3545  0.9651
 4589TIP3    H235259   2.065   1.281   1.115  1.7730 -1.1760 -0.4796
 4590TIP3   OH235260   3.706   3.791  16.994  0.2922 -0.0992  0.4705
 4590TIP3    H135261   3.686   3.792  16.901 -0.1328 -0.5789  0.5509
 4590TIP3    H235262   3.722   3.698  17.014 -1.7700 -0.3263  1.3160
 4591TIP3   OH235263   3.682   3.794   1.808 -0.2965  0.0932  0.5650
 4591TIP3    H135264   3.631   3.854   1.863  0.0390  0.8962  0.0197
 4591TIP3    H235265   3.769   3.793   1.848 -0.1607  0.3694  0.2741
 4592TIP3   OH235266   3.701   1.724   1.412 -0.7610 -0.0237 -0.6643
 4592TIP3    H135267   3.653   1.642   1.402  0.4411 -1.2413  2.2999
 4592TIP3    H235268   3.672   1.759   1.496  1.3383  0.7002 -0.1698
 4593TIP3   OH235269   0.737   2.537  13.804 -0.2566  0.7339  0.4627
 4593TIP3    H135270   0.697   2.533  13.716  0.6522  0.7399  0.0395
 4593TIP3    H235271   0.752   2.630  13.818  1.3180  0.6149 -0.1923
 4594TIP3   OH235272   1.023   1.553   5.990 -0.0576  0.1105 -0.0926
 4594TIP3    H135273   0.937   1.594   6.000 -0.3514  0.2106 -2.4513
 4594TIP3    H235274   1.077   1.620   5.950  1.4853  0.3730  2.2294
 4595TIP3   OH235275   6.734   5.584  14.034  0.1135 -0.4539  0.9340
 4595TIP3    H135276   6.665   5.592  13.968  1.5408 -1.0491 -0.7429
 4595TIP3    H235277   6.797   5.523  13.994  2.1940  0.9935  1.8243
 4596TIP3   OH235278   2.359   1.833  14.432  0.2398 -0.0210 -0.2078
 4596TIP3    H135279   2.312   1.822  14.515  1.9436  0.6918  0.8959
 4596TIP3    H235280   2.372   1.927  14.424  2.0268 -0.2247 -0.1336
 4597TIP3   OH235281   1.165   5.730   1.735  0.1303  0.6974 -0.2677
 4597TIP3    H135282   1.159   5.694   1.824  0.4235 -0.7278 -0.8021
 4597TIP3    H235283   1.149   5.655   1.678 -0.3935  1.6657 -1.4259
 4598TIP3   OH235284   5.870   6.527   6.152 -0.1872 -0.4165  0.2883
 4598TIP3    H135285   5.921   6.456   6.114  1.6666  0.4993  0.9321
 4598TIP3    H235286   5.925   6.604   6.141 -0.2824  0.1833  3.2673
 4599TIP3   OH235287   4.824   1.454  11.393  0.3496  0.4341 -0.0214
 4599TIP3    H135288   4.823   1.367  11.354  2.3019 -0.2042  1.1894
 4599TIP3    H235289   4.907   1.458  11.440  0.6322  3.2233 -0.5898
 4600TIP3   OH235290   6.696   1.640   0.187 -0.2681  0.3582 -0.6519
 4600TIP3    H135291   6.739   1.555   0.197 -0.6574  0.2762  0.4199
 4600TIP3    H235292   6.633   1.627   0.116  0.1229 -0.0525 -0.9326
 4601TIP3   OH235293   3.066   1.509   4.463  0.1339  0.3250 -0.5097
 4601TIP3    H135294   3.075   1.514   4.558 -0.9742  0.1080 -0.3814
 4601TIP3    H235295   3.099   1.593   4.431 -1.6284  1.3426  0.2502
 4602TIP3   OH235296   3.124   4.170  14.301 -0.8429  0.0904 -0.6515
 4602TIP3    H135297   3.159   4.088  14.334 -2.1922  0.1479  1.0712
 4602TIP3    H235298   3.193   4.204  14.244  2.6657  0.9335  3.5378
 4603TIP3   OH235299   0.013   2.721  11.634  0.0489 -0.5884 -0.6445
 4603TIP3    H135300   0.090   2.668  11.613  0.6956  0.6481 -1.5129
 4603TIP3    H235301  -0.052   2.697  11.568 -0.4301 -1.7870  0.2137
 4604TIP3   OH235302   5.603   6.476  12.370 -0.0737  0.0945  0.1251
 4604TIP3    H135303   5.509   6.486  12.353 -0.2281  1.0108  1.4037
 4604TIP3    H235304   5.611   6.388  12.406 -0.2315 -0.5053 -1.2292
 4605TIP3   OH235305   1.685   6.405  11.674  0.6224  0.2570 -0.2768
 4605TIP3    H135306   1.776   6.413  11.702  0.0514  0.2784  1.6848
 4605TIP3    H235307   1.646   6.341  11.733 -0.8548  0.8816 -0.5106
 4606TIP3   OH235308   3.463   1.449   2.953  0.2318  0.2732  0.0416
 4606TIP3    H135309   3.482   1.542   2.965 -0.2582  0.3313  0.3932
 4606TIP3    H235310   3.485   1.432   2.862 -0.1339  0.8425 -0.1557
 4607TIP3   OH235311   6.597   1.669   5.085  0.3644 -0.2223  0.3334
 4607TIP3    H135312   6.678   1.644   5.041 -0.6365 -2.4090 -0.3737
 4607TIP3    H235313   6.579   1.758   5.054  2.9027  0.6932  1.2023
 4608TIP3   OH235314   4.467   5.014   2.176 -0.3096  0.0238  0.2569
 4608TIP3    H135315   4.471   4.956   2.100 -1.5966 -0.3743  0.4719
 4608TIP3    H235316   4.551   5.061   2.175 -1.1282  1.7226 -2.7363
 4609TIP3   OH235317   1.980   5.187   5.674 -0.3938  0.3672 -0.2093
 4609TIP3    H135318   2.048   5.237   5.630 -0.8428 -0.7776 -2.3266
 4609TIP3    H235319   1.986   5.214   5.766  0.7177  2.7078 -0.8962
 4610TIP3   OH235320   3.675   4.362  10.827 -0.3132 -0.3780 -0.2219
 4610TIP3    H135321   3.648   4.276  10.861  0.8055 -0.9254 -0.6583
 4610TIP3    H235322   3.682   4.417  10.905 -1.9289 -0.4113 -0.0326
 4611TIP3   OH235323   5.698   6.346  14.452  0.3454 -0.0064 -0.3068
 4611TIP3    H135324   5.779   6.296  14.441  0.4116  0.0069  0.0772
 4611TIP3    H235325   5.664   6.317  14.537 -0.0010  0.0604 -0.4218
 4612TIP3   OH235326   6.184   3.313   4.791 -0.4019 -0.1407  0.1746
 4612TIP3    H135327   6.278   3.320   4.773 -0.7744  1.1853 -1.4318
 4612TIP3    H235328   6.176   3.234   4.844  1.8198  0.6503  1.8690
 4613TIP3   OH235329   3.173   2.748  15.841  0.3611 -0.2120  0.0269
 4613TIP3    H135330   3.152   2.674  15.785  1.4383 -0.3917 -0.1528
 4613TIP3    H235331   3.170   2.713  15.930  0.3597 -0.3343 -0.0217
 4614TIP3   OH235332   4.935   4.894  16.262  0.3835 -0.3353  0.0890
 4614TIP3    H135333   4.928   4.908  16.167  0.2226  1.2692  0.3098
 4614TIP3    H235334   5.024   4.922  16.283  0.1113  0.1711  0.5530
 4615TIP3   OH235335   6.308   1.218  12.458 -0.0090 -0.2612  0.1957
 4615TIP3    H135336   6.394   1.185  12.483 -0.3283 -1.2130  0.0916
 4615TIP3    H235337   6.249   1.143  12.471 -1.1646  0.8932  2.0627
 4616TIP3   OH235338   3.568   4.296  12.417 -0.1525 -0.0474  0.0097
 4616TIP3    H135339   3.486   4.256  12.389 -0.3711 -0.7764  1.5601
 4616TIP3    H235340   3.547   4.339  12.500  0.4963  1.8511 -0.7584
 4617TIP3   OH235341   2.595   6.114  13.533  0.0132  0.1111 -0.4171
 4617TIP3    H135342   2.620   6.182  13.596  0.9339 -0.8123  0.2311
 4617TIP3    H235343   2.672   6.101  13.480 -0.3348 -0.0695 -0.8821
 4618TIP3   OH235344   4.120   4.876  17.297  0.2716  0.1448  0.1702
 4618TIP3    H135345   4.136   4.908  17.208  1.0190  2.1308  0.9399
 4618TIP3    H235346   4.179   4.802  17.307  1.8547  1.2705 -0.3097
 4619TIP3   OH235347   4.907   6.118   3.255 -0.4548  0.3295 -0.0145
 4619TIP3    H135348   5.000   6.126   3.233 -0.2896 -1.1856  0.0244
 4619TIP3    H235349   4.870   6.066   3.183 -1.1005  0.2313  0.3822
 4620TIP3   OH235350   5.516   3.033   2.522 -0.0518  0.0582  0.3717
 4620TIP3    H135351   5.599   3.052   2.480  0.0607 -0.0732  0.5309
 4620TIP3    H235352   5.529   2.949   2.565 -0.8016 -0.8059 -1.0097
 4621TIP3   OH235353   2.640   4.725  14.413  0.9538 -0.0394 -0.2220
 4621TIP3    H135354   2.680   4.666  14.350 -0.6550 -1.6077  0.1538
 4621TIP3    H235355   2.680   4.701  14.497  1.1701  0.2478 -0.2394
 4622TIP3   OH235356   1.676   2.259   3.752 -0.0333  0.3061  0.2218
 4622TIP3    H135357   1.598   2.218   3.790 -0.4582 -0.2369 -1.1666
 4622TIP3    H235358   1.663   2.353   3.765 -0.4275  0.1629  0.9002
 4623TIP3   OH235359   0.275   5.710   1.537  0.2276 -0.0310  0.2056
 4623TIP3    H135360   0.206   5.739   1.477  1.3449 -1.2537 -1.7751
 4623TIP3    H235361   0.230   5.654   1.600 -0.5405 -1.5056 -1.5528
 4624TIP3   OH235362   3.895   0.045  17.139 -0.6089 -0.4848 -0.9833
 4624TIP3    H135363   3.953   0.112  17.102 -2.0617  1.9726  0.8943
 4624TIP3    H235364   3.931   0.027  17.225 -1.1631 -0.9136 -0.8388
 4625TIP3   OH235365   1.206   2.257   3.689  0.2995  0.4662 -0.0594
 4625TIP3    H135366   1.112   2.272   3.689 -0.2146 -2.2096  0.3296
 4625TIP3    H235367   1.222   2.210   3.771  2.1906  1.8465  0.4315
 4626TIP3   OH235368   4.546   4.311  11.345 -0.0147 -0.0565  0.3378
 4626TIP3    H135369   4.544   4.313  11.250 -1.0232  0.6940  0.3664
 4626TIP3    H235370   4.631   4.349  11.368  1.1108 -2.0579 -0.2701
 4627TIP3   OH235371   2.499   2.231   2.970 -0.3067  0.2621  0.3463
 4627TIP3    H135372   2.436   2.162   2.992 -0.6568  0.5896  0.3894
 4627TIP3    H235373   2.583   2.186   2.962 -0.4415 -0.0912  0.8760
 4628TIP3   OH235374   1.110   1.085  13.980 -0.9790 -0.2007  0.3704
 4628TIP3    H135375   1.181   1.143  14.006  0.4297 -1.3162 -0.8277
 4628TIP3    H235376   1.066   1.131  13.909 -0.0888 -0.4198 -0.3405
 4629TIP3   OH235377   6.182   2.024  17.207 -0.7090 -0.7848 -0.3887
 4629TIP3    H135378   6.231   2.005  17.288 -0.8647  2.2903  0.5401
 4629TIP3    H235379   6.249   2.025  17.139 -0.2674 -1.4677  0.0119
 4630TIP3   OH235380   3.072   0.543   4.704  0.3393  0.2516 -0.3670
 4630TIP3    H135381   3.006   0.595   4.658  0.6322 -0.9017 -2.1721
 4630TIP3    H235382   3.120   0.607   4.756 -0.8392  1.4178 -0.6424
 4631TIP3   OH235383   5.090   6.430   4.195  0.1871 -0.1930  0.3979
 4631TIP3    H135384   5.126   6.373   4.127  2.2570 -0.3944  1.5551
 4631TIP3    H235385   5.166   6.481   4.226 -0.9701  0.8954  1.5756
 4632TIP3   OH235386   2.033   6.565   3.174  0.5418 -0.5044 -0.0664
 4632TIP3    H135387   1.985   6.616   3.240 -2.3731  0.4763 -2.6855
 4632TIP3    H235388   2.086   6.629   3.128 -1.3001 -0.1409 -1.8150
 4633TIP3   OH235389   1.036   2.630   1.086 -0.1018  0.9983 -0.1134
 4633TIP3    H135390   0.960   2.582   1.118  0.4866 -0.5896 -0.9851
 4633TIP3    H235391   1.001   2.715   1.057 -1.5776  0.2105 -0.7179
 4634TIP3   OH235392   3.215   1.389  14.399 -0.4184  0.3563  0.7938
 4634TIP3    H135393   3.200   1.294  14.402  1.5409 -0.0983 -1.5065
 4634TIP3    H235394   3.134   1.425  14.364 -1.0442 -0.4775  1.3421
 4635TIP3   OH235395   6.648   1.213  10.765  0.0441 -0.2669 -0.4665
 4635TIP3    H135396   6.678   1.249  10.848 -0.6497  1.5727 -0.9579
 4635TIP3    H235397   6.552   1.214  10.771 -0.1017  1.7873 -1.9627
 4636TIP3   OH235398   5.325   4.861   3.289  0.1456  0.3512  0.4334
 4636TIP3    H135399   5.239   4.821   3.292 -0.6553  1.8237 -1.1804
 4636TIP3    H235400   5.378   4.801   3.235 -0.8119  1.0032 -1.2979
 4637TIP3   OH235401   2.460   6.071  12.504  0.7523 -0.0604 -0.2568
 4637TIP3    H135402   2.492   6.129  12.435  0.9071  0.6166  0.3739
 4637TIP3    H235403   2.454   6.127  12.582 -1.5841 -0.2302 -0.2482
 4638TIP3   OH235404   5.772   4.854   4.680  0.2314  0.4800  1.1298
 4638TIP3    H135405   5.775   4.928   4.741  1.7749  2.2459 -0.9101
 4638TIP3    H235406   5.748   4.894   4.596  1.2952 -1.2958 -0.0768
 4639TIP3   OH235407   6.004   6.388   3.824  0.0995 -0.1084  0.0437
 4639TIP3    H135408   6.083   6.443   3.820 -0.3002  0.6322  1.6114
 4639TIP3    H235409   5.951   6.417   3.750  0.9422 -0.0715 -0.5650
 4640TIP3   OH235410   5.767   5.322   1.728  0.4214 -0.2896  0.1675
 4640TIP3    H135411   5.710   5.270   1.784  0.6085 -1.2566 -0.5267
 4640TIP3    H235412   5.853   5.281   1.736  0.1052 -1.5736 -2.1734
 4641TIP3   OH235413   3.013   5.612  15.998 -0.0841 -0.2466  0.7238
 4641TIP3    H135414   3.021   5.518  16.017 -0.1774 -0.6152 -0.9174
 4641TIP3    H235415   2.922   5.624  15.972  0.5749 -0.3163 -1.9041
 4642TIP3   OH235416   4.566   5.977  16.714 -0.0461 -0.1371 -0.0338
 4642TIP3    H135417   4.490   5.988  16.771 -1.0707  0.0801 -1.3915
 4642TIP3    H235418   4.539   5.911  16.650  0.8977 -0.0542 -0.5479
 4643TIP3   OH235419   1.966   4.636  16.396 -0.1494  0.4541 -0.0149
 4643TIP3    H135420   2.016   4.579  16.454  0.0293  0.7000  0.0748
 4643TIP3    H235421   1.926   4.577  16.332 -1.8615 -0.0605  1.4347
 4644TIP3   OH235422   3.957   1.483  14.140 -0.7158  0.2576 -0.0770
 4644TIP3    H135423   4.004   1.525  14.212 -0.2358  1.0173 -0.8163
 4644TIP3    H235424   3.960   1.389  14.161 -0.7430  0.4804  0.9733
 4645TIP3   OH235425   2.248   6.641  11.406 -0.5488  0.6766  0.3559
 4645TIP3    H135426   2.191   6.711  11.372 -0.6811 -0.5210 -2.1323
 4645TIP3    H235427   2.188   6.583  11.453 -1.0666  0.5126 -0.4685
 4646TIP3   OH235428   3.948   6.538   4.840  0.1589 -0.6862 -0.4476
 4646TIP3    H135429   3.998   6.582   4.770 -1.5950 -0.8961 -1.8985
 4646TIP3    H235430   3.968   6.589   4.918 -0.8316  2.0491 -1.8263
 4647TIP3   OH235431   1.907   4.396  16.283 -0.3636  0.0853  0.0078
 4647TIP3    H135432   1.968   4.334  16.322 -0.1130 -0.0846 -0.6416
 4647TIP3    H235433   1.821   4.359  16.301 -0.2255 -0.3377 -0.1864
 4648TIP3   OH235434   0.780   3.516  11.620  0.4537 -0.3076 -0.2914
 4648TIP3    H135435   0.788   3.433  11.666 -1.9668 -0.3403  0.1998
 4648TIP3    H235436   0.759   3.492  11.530  1.4272 -0.2153 -0.5535
 4649TIP3   OH235437   2.719   1.341   4.153  0.0046  0.2523 -0.1534
 4649TIP3    H135438   2.790   1.281   4.177  0.7725  1.0243 -0.4097
 4649TIP3    H235439   2.692   1.312   4.065 -1.3028 -1.2007  0.6759
 4650TIP3   OH235440   3.593   6.032  12.231 -0.0728  0.5122  0.2520
 4650TIP3    H135441   3.516   6.082  12.204 -0.6056  0.4695  1.5935
 4650TIP3    H235442   3.636   6.087  12.296  0.8383  0.3802 -0.2373
 4651TIP3   OH235443   2.989   6.744  16.230  0.0757  0.4156  0.1488
 4651TIP3    H135444   2.916   6.684  16.220 -0.5260  1.2848 -0.9514
 4651TIP3    H235445   2.983   6.776  16.320 -0.6781  0.1916  0.1798
 4652TIP3   OH235446   3.078   5.400   2.051  0.2592 -0.1521 -0.1982
 4652TIP3    H135447   3.081   5.490   2.019 -1.8451  0.0298 -0.0424
 4652TIP3    H235448   3.028   5.406   2.133  1.0930 -1.3205  0.4272
 4653TIP3   OH235449   5.572   1.142  13.570  0.1387 -0.2391  0.1968
 4653TIP3    H135450   5.507   1.212  13.574 -0.1060 -0.2552 -2.1390
 4653TIP3    H235451   5.648   1.181  13.526  0.7739 -0.8909  0.6926
 4654TIP3   OH235452   5.633   0.924  16.316  0.3650  0.5375  0.3486
 4654TIP3    H135453   5.615   0.999  16.373 -0.5971  1.7393 -1.4422
 4654TIP3    H235454   5.565   0.927  16.249  0.5536 -1.7228 -0.0345
 4655TIP3   OH235455   4.359   4.958  16.273  0.0085  0.1310 -0.4483
 4655TIP3    H135456   4.297   5.028  16.251  1.3195  0.8320 -2.1451
 4655TIP3    H235457   4.435   5.003  16.310 -0.2098 -0.6739  1.0711
 4656TIP3   OH235458   4.880   5.604   1.235 -0.1152 -0.2843  0.8054
 4656TIP3    H135459   4.814   5.658   1.279  1.0506  1.4371  0.5570
 4656TIP3    H235460   4.856   5.607   1.143 -0.8683 -1.4439  0.9374
 4657TIP3   OH235461   1.839   0.414   6.078 -0.2408  0.4704  0.2430
 4657TIP3    H135462   1.923   0.457   6.061 -1.1486  1.9611 -0.8024
 4657TIP3    H235463   1.775   0.471   6.035 -1.9529  0.2394  2.3439
 4658TIP3   OH235464   2.688   2.127   2.519  0.5393  0.5638 -0.3231
 4658TIP3    H135465   2.718   2.038   2.502 -0.4182  0.2457 -0.4290
 4658TIP3    H235466   2.765   2.172   2.554  0.8644 -0.4924  0.3941
 4659TIP3   OH235467   2.032   3.477   6.153 -0.2852  0.1057  0.2608
 4659TIP3    H135468   2.054   3.468   6.060 -0.7066  1.8179 -0.0393
 4659TIP3    H235469   2.015   3.571   6.164 -2.3666 -0.3609  1.5841
 4660TIP3   OH235470   4.181   2.672   3.894  0.1773 -0.5004 -0.4959
 4660TIP3    H135471   4.177   2.762   3.925  1.6815 -0.4263 -0.4447
 4660TIP3    H235472   4.190   2.679   3.799 -0.1813 -0.6158 -0.5406
 4661TIP3   OH235473   6.444   5.588   3.086  0.3163 -0.8007 -0.9303
 4661TIP3    H135474   6.435   5.662   3.026 -0.7797 -1.0804 -1.1197
 4661TIP3    H235475   6.375   5.600   3.151  2.1280  0.0669  0.9438
 4662TIP3   OH235476   2.450   0.984   4.164 -0.0072 -0.5580 -0.1971
 4662TIP3    H135477   2.461   0.930   4.086 -0.8433 -1.3412  0.2114
 4662TIP3    H235478   2.381   1.046   4.141 -0.0784 -0.6266 -0.1697
 4663TIP3   OH235479   6.568   0.778   5.888  0.2559  0.3456  0.2134
 4663TIP3    H135480   6.542   0.798   5.978  0.9942  1.7850  0.1342
 4663TIP3    H235481   6.596   0.862   5.852  1.0675 -0.4200 -1.0032
 4664TIP3   OH235482   3.627   5.119   4.666 -0.2820 -0.4895 -0.7555
 4664TIP3    H135483   3.643   5.211   4.687  0.6034 -0.4725 -1.4288
 4664TIP3    H235484   3.570   5.121   4.589 -0.8069 -0.5200 -0.3749
 4665TIP3   OH235485   2.895   3.977  13.583  0.4243  0.6939  0.0240
 4665TIP3    H135486   2.908   3.912  13.652 -1.8001  0.9770  0.7835
 4665TIP3    H235487   2.972   4.034  13.590  1.8584 -1.1340  0.0749
 4666TIP3   OH235488   1.736   4.591  15.327 -0.0845  0.0946  0.6709
 4666TIP3    H135489   1.830   4.603  15.325  0.3941 -2.6247 -2.1067
 4666TIP3    H235490   1.722   4.517  15.385 -0.4289  0.1062  0.6066
 4667TIP3   OH235491   5.643   5.310  15.676 -0.6951 -0.5373  0.3181
 4667TIP3    H135492   5.557   5.349  15.695 -1.9001 -2.6161 -0.4970
 4667TIP3    H235493   5.622   5.222  15.643  1.6731 -0.4844 -1.5836
 4668TIP3   OH235494   5.737   2.318  16.948 -0.6053  0.0445  0.1220
 4668TIP3    H135495   5.727   2.261  17.024  0.2685  0.7439  0.7852
 4668TIP3    H235496   5.761   2.403  16.985  1.9675 -0.1106 -0.9788
 4669TIP3   OH235497   5.564   5.371   6.399 -0.2785 -0.2638  0.0245
 4669TIP3    H135498   5.555   5.419   6.481  0.4275 -0.8782  0.4793
 4669TIP3    H235499   5.516   5.290   6.414 -0.2913 -0.3008 -0.2234
 4670TIP3   OH235500   5.704   6.562  14.790 -0.4167 -0.8058 -0.3061
 4670TIP3    H135501   5.724   6.554  14.697  0.5559 -0.7441 -0.1110
 4670TIP3    H235502   5.647   6.638  14.796 -0.1041 -0.5282 -0.7948
 4671TIP3   OH235503   4.250   6.819  11.565 -0.5222  0.6077  0.0152
 4671TIP3    H135504   4.169   6.859  11.534 -1.2833  0.4156  1.6339
 4671TIP3    H235505   4.234   6.725  11.557 -0.3362  0.5739  0.0382
 4672TIP3   OH235506   6.094   5.985   0.678  0.3341  0.0491  0.2168
 4672TIP3    H135507   6.020   5.932   0.708  0.7326 -0.7549 -0.1934
 4672TIP3    H235508   6.125   5.940   0.600  1.4782  0.1721  0.5876
 4673TIP3   OH235509   4.755   1.622   4.194 -0.1328 -0.4931 -0.1555
 4673TIP3    H135510   4.716   1.591   4.113 -0.8107 -0.4133  0.1303
 4673TIP3    H235511   4.719   1.564   4.262  0.4701 -0.5965  0.0841
 4674TIP3   OH235512   1.805   6.391  10.721  0.0404 -0.4901 -0.0569
 4674TIP3    H135513   1.728   6.359  10.768 -0.3546 -1.1561 -1.1086
 4674TIP3    H235514   1.862   6.314  10.713  0.2767 -0.2916 -0.3007
 4675TIP3   OH235515   0.372   0.176   1.831  0.0760 -0.5205 -0.2199
 4675TIP3    H135516   0.447   0.154   1.886  0.0420  1.9486  0.9478
 4675TIP3    H235517   0.409   0.183   1.743  1.0116 -0.4324  0.1659
 4676TIP3   OH235518   6.802   2.178   2.246  0.5066 -0.7137  0.3629
 4676TIP3    H135519   6.834   2.171   2.157 -0.8561 -0.7021 -0.1585
 4676TIP3    H235520   6.750   2.258   2.247 -1.4144 -1.8948  0.4850
 4677TIP3   OH235521   5.593   4.398  14.400  0.2091 -0.5496  0.3611
 4677TIP3    H135522   5.596   4.306  14.428  0.5220 -0.2452  1.3773
 4677TIP3    H235523   5.545   4.443  14.469 -1.5040 -0.2101 -0.9798
 4678TIP3   OH235524   5.855   5.623   3.007  0.2602 -0.0685  0.3422
 4678TIP3    H135525   5.835   5.532   2.984  2.0817 -0.6113  0.6856
 4678TIP3    H235526   5.918   5.615   3.079 -2.2013  1.5165  2.8881
 4679TIP3   OH235527   5.121   0.392  13.586 -0.6137  0.0812 -0.1383
 4679TIP3    H135528   5.167   0.408  13.669 -0.4154  0.9845 -0.4076
 4679TIP3    H235529   5.083   0.477  13.563  0.7824  0.3094 -1.8351
 4680TIP3   OH235530   3.128   5.642  12.528 -0.5616 -0.1851 -0.2328
 4680TIP3    H135531   3.136   5.708  12.596 -0.1289 -0.8193  0.3455
 4680TIP3    H235532   3.041   5.656  12.491 -0.7089  0.3193  0.2859
 4681TIP3   OH235533   3.841   4.738   5.868 -0.0806 -0.0178  0.0786
 4681TIP3    H135534   3.909   4.671   5.880 -0.4231 -0.7855 -1.8566
 4681TIP3    H235535   3.877   4.797   5.803 -1.7389 -1.2301 -2.0659
 4682TIP3   OH235536   1.794   5.703   1.821 -0.1770 -0.6225 -0.1015
 4682TIP3    H135537   1.778   5.613   1.850 -1.0275 -0.0644  1.2406
 4682TIP3    H235538   1.723   5.754   1.860  1.3148  0.9282  0.6953
 4683TIP3   OH235539   1.842   0.198  11.368  0.2855  0.0470 -0.0362
 4683TIP3    H135540   1.811   0.185  11.458  0.8744 -0.2107  0.1382
 4683TIP3    H235541   1.897   0.277  11.374 -0.9877  1.0078 -0.5120
 4684TIP3   OH235542   2.776   2.971   6.099 -1.1905 -0.0032 -0.6058
 4684TIP3    H135543   2.856   2.948   6.148 -1.7084 -0.8429 -0.1242
 4684TIP3    H235544   2.801   3.048   6.048 -0.5015  0.6719  0.6851
 4685TIP3   OH235545   6.794   1.900  13.920  0.2968 -0.0130  0.6544
 4685TIP3    H135546   6.827   1.986  13.946 -1.6517  0.5618  1.4159
 4685TIP3    H235547   6.847   1.838  13.970  0.8012  0.8221  1.1835
 4686TIP3   OH235548   3.257   4.977   1.749  0.0656 -0.0508  0.0834
 4686TIP3    H135549   3.216   5.041   1.807 -1.2679 -0.0948 -0.7628
 4686TIP3    H235550   3.253   4.894   1.797  0.3595  0.1934  0.5363
 4687TIP3   OH235551   5.298   3.533   1.744 -0.6933 -0.4207  0.1243
 4687TIP3    H135552   5.386   3.564   1.767 -0.8098  0.7236 -0.8430
 4687TIP3    H235553   5.306   3.438   1.743  0.7561 -0.3301 -0.6521
 4688TIP3   OH235554   3.913   3.663  15.542  0.3029 -0.2212 -0.3539
 4688TIP3    H135555   3.849   3.731  15.517 -0.7370 -1.2187 -0.4694
 4688TIP3    H235556   3.964   3.703  15.612  0.6143  1.1766 -1.3276
 4689TIP3   OH235557   0.380   0.200  16.069 -0.3837 -0.1842  0.0760
 4689TIP3    H135558   0.333   0.269  16.117  0.3209  0.4442 -0.1234
 4689TIP3    H235559   0.446   0.170  16.132 -0.8610 -0.8709  0.2550
 4690TIP3   OH235560   6.607   1.824   5.731  0.0640 -0.0787 -0.2028
 4690TIP3    H135561   6.661   1.884   5.680  1.4353 -0.5010  0.7199
 4690TIP3    H235562   6.655   1.811   5.813 -0.2194 -2.3684 -0.3305
 4691TIP3   OH235563   2.510   5.084  12.024 -0.9212  0.2661  0.3927
 4691TIP3    H135564   2.560   5.155  11.985 -0.9661 -0.4690 -1.0720
 4691TIP3    H235565   2.497   5.111  12.115  1.5697  0.7697  0.6686
 4692TIP3   OH235566   0.186   2.034   0.926  0.3810 -0.2983 -0.3377
 4692TIP3    H135567   0.159   2.075   0.844 -3.0963 -2.3051 -0.4062
 4692TIP3    H235568   0.144   2.085   0.994  0.2728 -0.7195 -0.0829
 4693TIP3   OH235569   6.654   5.046   4.000  0.4975 -0.5797  0.1115
 4693TIP3    H135570   6.636   4.972   3.942 -2.4697 -0.1484  0.2981
 4693TIP3    H235571   6.696   5.111   3.944 -1.9690 -0.3176 -1.5764
 4694TIP3   OH235572   3.595   6.739  14.966 -0.4309  0.1092 -0.3691
 4694TIP3    H135573   3.669   6.753  15.026 -0.5405 -1.8152  0.2830
 4694TIP3    H235574   3.587   6.644  14.960 -1.3883  0.2710 -2.2877
 4695TIP3   OH235575   0.968   5.503   0.062 -0.4319 -0.5552 -0.0334
 4695TIP3    H135576   1.063   5.510   0.049 -0.6729  0.3828 -1.4173
 4695TIP3    H235577   0.941   5.592   0.086 -1.4563  0.1925 -3.4237
 4696TIP3   OH235578   3.008   1.407   1.580  0.9498  0.0703  0.5302
 4696TIP3    H135579   2.957   1.423   1.659 -0.5383 -2.1264  0.1206
 4696TIP3    H235580   3.079   1.350   1.608 -0.5221 -2.1028  0.1258
 4697TIP3   OH235581   2.894   6.288  17.088 -0.8243  0.3703  0.2140
 4697TIP3    H135582   2.886   6.383  17.094  2.1717  0.6590  0.9292
 4697TIP3    H235583   2.842   6.254  17.161  1.8681  1.8023  3.0208
 4698TIP3   OH235584   4.620   1.429  12.678  0.1192 -0.5343 -0.3783
 4698TIP3    H135585   4.620   1.340  12.712  0.3301 -0.4476 -0.1416
 4698TIP3    H235586   4.712   1.445  12.655  0.3332  0.0698  0.7982
 4699TIP3   OH235587   4.666   3.014   3.386 -0.0675 -0.2093 -0.2169
 4699TIP3    H135588   4.734   2.986   3.325  0.6256 -1.3065  1.0114
 4699TIP3    H235589   4.619   2.934   3.409 -0.4617  0.2147  0.5012
 4700TIP3   OH235590   4.643   1.063   5.745 -0.6957  0.1620  0.1270
 4700TIP3    H135591   4.691   0.990   5.786  3.6223  2.7441  0.2068
 4700TIP3    H235592   4.588   1.097   5.816  0.2512 -0.6083  1.2798
 4701TIP3   OH235593   1.122   0.954  15.712  0.3432 -0.3433  0.5030
 4701TIP3    H135594   1.157   0.912  15.634  0.4070  0.5525  0.0392
 4701TIP3    H235595   1.140   1.047  15.700  0.3653 -0.1864  1.5928
 4702TIP3   OH235596   6.545   2.913  14.543 -0.2060  0.5095 -0.6881
 4702TIP3    H135597   6.484   2.878  14.479 -0.4654 -0.0651 -0.1282
 4702TIP3    H235598   6.491   2.935  14.619  0.2461  0.1706 -0.2587
 4703TIP3   OH235599   2.105   0.979  13.151  0.0343  0.4628  0.1739
 4703TIP3    H135600   2.053   0.955  13.074 -0.9926 -0.2218  1.0399
 4703TIP3    H235601   2.168   0.908  13.159 -0.5094  0.0050  0.5184
 4704TIP3   OH235602   5.262   0.693   5.414 -0.2824 -0.4332  0.1330
 4704TIP3    H135603   5.282   0.718   5.504  0.2610  1.1292 -0.3728
 4704TIP3    H235604   5.348   0.675   5.375 -0.4770 -0.6901 -0.1844
 4705TIP3   OH235605   4.380   0.231  14.094  0.2021 -0.3649 -0.1066
 4705TIP3    H135606   4.424   0.316  14.097  0.5849 -0.5628  0.0481
 4705TIP3    H235607   4.298   0.248  14.047  1.2870 -0.3506 -2.1480
 4706TIP3   OH235608   4.315   3.419   5.746 -0.2214  0.0882  0.0048
 4706TIP3    H135609   4.360   3.374   5.675 -0.1284  0.1271  0.0398
 4706TIP3    H235610   4.282   3.349   5.802 -1.0484  0.0192 -0.5377
 4707TIP3   OH235611   4.934   3.084  11.941 -0.0568 -0.2790 -0.3625
 4707TIP3    H135612   4.870   3.152  11.963 -0.0618 -0.2123 -0.5861
 4707TIP3    H235613   4.916   3.013  12.003 -1.7627 -1.1640 -1.7864
 4708TIP3   OH235614   6.123   4.981   1.157  0.9555 -0.3721  0.7663
 4708TIP3    H135615   6.135   4.979   1.062  1.7882 -0.3503  0.8656
 4708TIP3    H235616   6.064   5.055   1.172 -2.0151 -2.4033 -0.0032
 4709TIP3   OH235617   6.226   5.116   2.082 -0.2656  0.0046  1.0771
 4709TIP3    H135618   6.144   5.067   2.074  0.6918 -2.4762  4.4251
 4709TIP3    H235619   6.286   5.071   2.023 -0.6324  0.2266  0.5266
 4710TIP3   OH235620   3.891   0.430   4.799  0.0820 -0.2699  0.1486
 4710TIP3    H135621   3.975   0.388   4.817  0.2872  0.4145  0.8380
 4710TIP3    H235622   3.870   0.404   4.709  1.7629  0.7607 -0.5766
 4711TIP3   OH235623   4.249   1.808   6.256  0.3951 -0.2457  0.0366
 4711TIP3    H135624   4.158   1.838   6.258  0.4964  0.0530  0.2220
 4711TIP3    H235625   4.301   1.888   6.265  0.6949 -0.3152 -0.9527
 4712TIP3   OH235626   1.074   0.598   1.308  0.4317  0.1912 -0.2888
 4712TIP3    H135627   1.093   0.645   1.389  0.2896  0.4764 -0.4220
 4712TIP3    H235628   1.065   0.666   1.242 -2.1590  0.2031 -0.0429
 4713TIP3   OH235629   1.045   1.250   1.800 -0.2175  0.3375  0.2824
 4713TIP3    H135630   1.049   1.167   1.751  0.8908  0.0342  0.8436
 4713TIP3    H235631   1.112   1.240   1.868  0.0168  1.7586  0.2760
 4714TIP3   OH235632   2.710   0.680  13.677 -0.0557  0.2095 -0.0936
 4714TIP3    H135633   2.677   0.715  13.595 -1.2477  0.7508  0.5917
 4714TIP3    H235634   2.798   0.718  13.686 -0.4704  1.2622 -0.4374
 4715TIP3   OH235635   5.982   3.559   1.938  0.2213 -0.5463 -0.6570
 4715TIP3    H135636   6.021   3.505   1.869  0.3965  0.3044 -1.2412
 4715TIP3    H235637   6.011   3.519   2.019  2.3363  0.0375 -1.0567
 4716TIP3   OH235638   0.855   0.344   0.657 -0.3582 -0.2200  0.0687
 4716TIP3    H135639   0.827   0.256   0.633 -1.0948  0.1074 -0.3237
 4716TIP3    H235640   0.786   0.401   0.623 -1.1974  0.3273  2.4751
 4717TIP3   OH235641   3.394   5.923  15.050  0.6349  0.1666  0.0833
 4717TIP3    H135642   3.307   5.902  15.083  1.8036 -0.9622  2.6983
 4717TIP3    H235643   3.424   5.844  15.006 -0.3044  1.1644 -2.5347
 4718TIP3   OH235644   4.378   6.437  12.856 -0.4703  0.2112 -0.5535
 4718TIP3    H135645   4.404   6.355  12.898 -1.2759 -0.3217 -1.0728
 4718TIP3    H235646   4.369   6.499  12.929  0.5906 -0.0254 -0.1998
 4719TIP3   OH235647   3.519   2.524   0.187  0.2161  0.2103  0.3174
 4719TIP3    H135648   3.611   2.500   0.197  0.7391  1.8547 -0.2781
 4719TIP3    H235649   3.485   2.531   0.276  0.1952 -1.9551  0.5373
 4720TIP3   OH235650   5.420   6.213   6.413  0.0322 -0.1207 -0.0865
 4720TIP3    H135651   5.448   6.304   6.399  0.8215 -0.1732  1.0250
 4720TIP3    H235652   5.407   6.179   6.324 -0.2449  1.0595 -0.5265
 4721TIP3   OH235653   2.132   1.702   6.156  0.5252  0.2991  0.2359
 4721TIP3    H135654   2.180   1.726   6.236  1.1823  0.0143 -0.0633
 4721TIP3    H235655   2.096   1.616   6.176 -0.4642  0.7998  0.7122
 4722TIP3   OH235656   5.871   6.489   2.367 -0.0661  0.1222 -0.0608
 4722TIP3    H135657   5.889   6.443   2.450 -1.6208  0.2614  0.3849
 4722TIP3    H235658   5.878   6.420   2.300 -2.4406 -0.8701  0.6088
 4723TIP3   OH235659   2.013   1.783  14.097  0.2907 -0.0822 -0.2943
 4723TIP3    H135660   2.030   1.729  14.175 -1.2492  0.4344  0.4268
 4723TIP3    H235661   1.937   1.742  14.056 -0.1451  0.8368 -0.4088
 4724TIP3   OH235662   0.507   2.168   5.705 -0.9426 -0.8465 -0.4455
 4724TIP3    H135663   0.414   2.190   5.713 -0.6141  0.1132  1.0373
 4724TIP3    H235664   0.539   2.167   5.795  0.6789 -0.3068 -0.9833
 4725TIP3   OH235665   4.922   3.817  16.569  0.1637  0.2602 -0.4336
 4725TIP3    H135666   4.871   3.867  16.633 -1.5451 -3.1748  1.0960
 4725TIP3    H235667   5.013   3.832  16.595 -0.4597 -1.1438  3.0804
 4726TIP3   OH235668   6.746   0.063  16.657 -0.2065  0.2961 -0.2315
 4726TIP3    H135669   6.661   0.099  16.681 -0.2189  0.4569 -0.5047
 4726TIP3    H235670   6.743   0.058  16.561  0.4834  1.2894 -0.3131
 4727TIP3   OH235671   3.939   2.771  12.338 -0.1071  0.1785  0.3620
 4727TIP3    H135672   4.012   2.767  12.275 -1.2277  0.4237 -1.0093
 4727TIP3    H235673   3.882   2.840  12.304 -0.4165  0.8106  2.0692
 4728TIP3   OH235674   2.231   1.940   3.455  0.1664 -0.2735  0.0493
 4728TIP3    H135675   2.323   1.912   3.453 -0.2474 -1.6741 -0.4527
 4728TIP3    H235676   2.181   1.858   3.457 -1.1123  0.4367 -1.3499
 4729TIP3   OH235677   1.835   4.171   3.327  0.2217  0.0338 -0.1819
 4729TIP3    H135678   1.913   4.194   3.377  1.1257 -1.7027 -0.7075
 4729TIP3    H235679   1.864   4.103   3.267 -1.8948 -1.2890  0.1919
 4730TIP3   OH235680   6.552   6.417  15.821 -0.1646 -0.0120 -0.1890
 4730TIP3    H135681   6.550   6.357  15.747 -0.0202 -2.5060  1.7259
 4730TIP3    H235682   6.461   6.422  15.851 -0.1135  0.4056 -0.0954
 4731TIP3   OH235683   5.722   3.646   6.046 -0.1502 -0.2877 -0.7152
 4731TIP3    H135684   5.813   3.671   6.028 -0.5152  0.9574 -0.9578
 4731TIP3    H235685   5.725   3.601   6.130  0.8832 -1.5547 -1.4013
 4732TIP3   OH235686   1.571   6.229   6.614  0.4663 -0.3135 -0.3895
 4732TIP3    H135687   1.638   6.176   6.572  2.1187 -0.2840  2.0841
 4732TIP3    H235688   1.498   6.169   6.629  0.9381 -0.9846 -0.7720
 4733TIP3   OH235689   1.204   0.562   2.625 -0.4845  0.5448 -0.0978
 4733TIP3    H135690   1.248   0.609   2.554  0.5077  3.1767  2.1172
 4733TIP3    H235691   1.163   0.487   2.581  0.5643  1.6794 -3.3317
 4734TIP3   OH235692   4.935   3.453   6.017 -0.0040 -0.4179 -0.1404
 4734TIP3    H135693   4.975   3.367   6.007 -0.3407 -0.6325  0.2998
 4734TIP3    H235694   4.840   3.436   6.016 -0.0801 -0.2455  1.4090
 4735TIP3   OH235695   1.118   0.755   2.302  0.1009 -0.2247  0.1536
 4735TIP3    H135696   1.089   0.697   2.232  1.0152 -0.3414 -0.1430
 4735TIP3    H235697   1.202   0.719   2.330  1.1165  1.4196 -0.6274
 4736TIP3   OH235698   0.943   1.534   0.376 -0.6706  0.2120 -0.1895
 4736TIP3    H135699   1.013   1.548   0.312 -0.4044  1.1467  0.2796
 4736TIP3    H235700   0.895   1.458   0.343  0.9116 -0.8224 -0.2212
 4737TIP3   OH235701   4.338   4.943   3.695  0.0353  0.1597 -0.5569
 4737TIP3    H135702   4.263   4.890   3.724 -0.6685  1.0416 -0.7342
 4737TIP3    H235703   4.317   5.031   3.725  1.1029  0.3802 -0.4484
 4738TIP3   OH235704   0.280   0.502  16.095 -0.4834 -0.0302  0.3923
 4738TIP3    H135705   0.191   0.498  16.060 -0.0881  0.4348 -0.7001
 4738TIP3    H235706   0.337   0.495  16.018  0.4516 -1.1516  1.1438
 4739TIP3   OH235707   4.919   0.084  12.990  0.1978 -0.5160  0.6698
 4739TIP3    H135708   4.958  -0.001  13.010  1.1551 -0.0346  0.8941
 4739TIP3    H235709   4.825   0.065  12.979  0.4193 -1.6160  0.5535
 4740TIP3   OH235710   2.167   3.511   1.636  0.2741  0.1682 -0.2024
 4740TIP3    H135711   2.257   3.543   1.626 -0.0580  1.1937 -0.0084
 4740TIP3    H235712   2.137   3.495   1.547  0.9432 -1.0530 -0.2295
 4741TIP3   OH235713   4.355   6.501  13.117  0.1739  0.2343 -0.2184
 4741TIP3    H135714   4.336   6.419  13.163  3.6664 -0.4392  0.3603
 4741TIP3    H235715   4.270   6.532  13.086 -1.4937 -2.7457  0.9487
 4742TIP3   OH235716   2.612   5.255   3.801 -0.6779  0.3309  0.0736
 4742TIP3    H135717   2.654   5.275   3.717 -0.6280  1.5939  0.3701
 4742TIP3    H235718   2.624   5.161   3.812  0.4124  0.3486 -0.7452
 4743TIP3   OH235719   4.249   2.221  12.517 -0.0953  0.2738  0.1611
 4743TIP3    H135720   4.228   2.242  12.426 -1.0355 -1.8338 -0.1829
 4743TIP3    H235721   4.234   2.303  12.565 -2.1234  0.7943 -1.2144
 4744TIP3   OH235722   5.899   5.142  17.322  0.4642 -0.0452 -0.3674
 4744TIP3    H135723   5.844   5.216  17.347  0.5235  0.1347 -0.7616
 4744TIP3    H235724   5.918   5.156  17.229  2.5404  0.8082  0.1091
 4745TIP3   OH235725   4.424   5.653  12.797  0.1375  0.0132  0.6497
 4745TIP3    H135726   4.470   5.593  12.738 -0.7762  1.0191 -1.1701
 4745TIP3    H235727   4.361   5.597  12.843  0.4237 -0.6825  0.2181
 4746TIP3   OH235728   4.774   2.997  16.915 -0.3166  0.2812  0.0619
 4746TIP3    H135729   4.708   2.928  16.923 -0.4250  0.4682  0.8262
 4746TIP3    H235730   4.836   2.979  16.986 -0.0638  0.6659 -0.0609
 4747TIP3   OH235731   3.218   3.818   0.612  0.0773 -0.5041 -0.4436
 4747TIP3    H135732   3.246   3.879   0.544 -1.0603 -1.1572 -1.5372
 4747TIP3    H235733   3.213   3.871   0.691  3.1108 -0.0697 -0.4094
 4748TIP3   OH235734   3.551   4.662   5.765  0.4573 -0.2981 -0.5303
 4748TIP3    H135735   3.487   4.733   5.756 -0.4931 -0.6669  2.3938
 4748TIP3    H235736   3.635   4.706   5.776 -0.0002  0.3771  0.3559
 4749TIP3   OH235737   3.362   5.592   2.968  0.1096  0.1634  0.3830
 4749TIP3    H135738   3.385   5.678   2.933  1.0491 -1.0409 -2.2464
 4749TIP3    H235739   3.408   5.588   3.053  3.3513  0.8668 -1.1636
 4750TIP3   OH235740   5.832   0.923  16.135  0.5373 -0.0355 -0.0294
 4750TIP3    H135741   5.907   0.947  16.190  0.0563  0.3376  0.4788
 4750TIP3    H235742   5.765   0.895  16.198 -0.5790  1.8888 -0.2994
 4751TIP3   OH235743   4.469   0.564   4.466  0.2212  0.2210 -0.2248
 4751TIP3    H135744   4.487   0.612   4.547  0.2224  0.0263 -0.1084
 4751TIP3    H235745   4.548   0.512   4.450  0.8545  1.4435 -1.2084
 4752TIP3   OH235746   3.994   6.522  16.618 -0.5178 -0.1616 -0.0760
 4752TIP3    H135747   3.956   6.473  16.545 -1.8377  0.8501 -0.0909
 4752TIP3    H235748   3.929   6.517  16.687  0.1898 -0.0628  0.6177
 4753TIP3   OH235749   5.875   3.238  13.691  0.3504 -0.1183  0.5630
 4753TIP3    H135750   5.889   3.332  13.680 -1.9469  0.1726 -0.4715
 4753TIP3    H235751   5.837   3.229  13.778 -1.0187  0.1563  0.0172
 4754TIP3   OH235752   5.494   1.935  11.134  0.8706  0.4049  0.5483
 4754TIP3    H135753   5.449   2.011  11.170 -2.4598 -0.3665 -1.5161
 4754TIP3    H235754   5.532   1.965  11.052 -0.7851 -0.1413 -0.4662
 4755TIP3   OH235755   1.542   6.774  11.755 -0.3777 -0.1057 -0.0993
 4755TIP3    H135756   1.600   6.796  11.828 -0.3034  0.4427 -0.3135
 4755TIP3    H235757   1.454   6.784  11.790 -0.3509 -0.9268  0.2238
 4756TIP3   OH235758   4.983   2.298  15.582 -1.0360 -0.0059 -0.2345
 4756TIP3    H135759   4.909   2.357  15.576 -0.9924  0.2667  1.3268
 4756TIP3    H235760   5.059   2.356  15.591 -1.0368 -0.2399  1.7279
 4757TIP3   OH235761   0.357   2.817   1.419  0.1290  0.2998  0.0876
 4757TIP3    H135762   0.408   2.823   1.500  2.3419 -0.2579 -1.1813
 4757TIP3    H235763   0.342   2.908   1.393  1.9948  0.5159 -0.3692
 4758TIP3   OH235764   0.397   3.734   5.006  0.1731 -0.3131  0.2979
 4758TIP3    H135765   0.412   3.827   4.991 -1.5981  0.3627  2.2141
 4758TIP3    H235766   0.474   3.705   5.054  0.7801  0.1273 -0.3880
 4759TIP3   OH235767   0.027   0.551  16.318 -0.3886  0.0512  0.4580
 4759TIP3    H135768   0.033   0.582  16.227 -0.5468 -1.3305 -0.0400
 4759TIP3    H235769   0.080   0.613  16.368  1.3373 -0.3005 -0.8575
 4760TIP3   OH235770   0.238   4.290  13.661 -0.3232 -0.4044 -0.0432
 4760TIP3    H135771   0.297   4.262  13.731 -1.3099  1.8633  1.8106
 4760TIP3    H235772   0.164   4.330  13.706 -2.4153 -1.4611 -2.3523
 4761TIP3   OH235773   0.847   2.152  15.113 -0.3998 -0.2197  0.3402
 4761TIP3    H135774   0.939   2.127  15.120 -0.4917 -0.1934  2.0544
 4761TIP3    H235775   0.800   2.070  15.098  0.0498  0.0018 -3.3951
 4762TIP3   OH235776   4.472   0.980   2.544  0.2228 -0.1176  0.4931
 4762TIP3    H135777   4.551   0.987   2.491 -0.9532 -1.0400 -1.4846
 4762TIP3    H235778   4.417   1.052   2.515 -0.9487 -1.3696 -0.5395
 4763TIP3   OH235779   6.020   6.192  11.087  0.0004 -0.2428 -0.1928
 4763TIP3    H135780   6.081   6.226  11.153  0.2440  0.7832 -0.9243
 4763TIP3    H235781   5.934   6.199  11.128  0.1158  0.6629 -0.0913
 4764TIP3   OH235782   4.166   3.212  16.747 -0.0323 -0.2524  0.5064
 4764TIP3    H135783   4.119   3.242  16.669 -1.0946 -1.3187  0.7129
 4764TIP3    H235784   4.183   3.291  16.797 -0.9561  0.2326  0.0728
 4765TIP3   OH235785   3.357   6.452   3.368  0.6055  0.3837  0.0338
 4765TIP3    H135786   3.399   6.524   3.415  1.2059  0.8913 -1.2182
 4765TIP3    H235787   3.429   6.398   3.337  0.5030  1.5993 -2.6768
 4766TIP3   OH235788   2.945   2.225  17.273 -0.1454 -0.3966 -0.0090
 4766TIP3    H135789   2.900   2.235  17.189  0.5518 -0.4397 -0.3964
 4766TIP3    H235790   3.008   2.297  17.275 -0.5488 -0.0647  0.7299
 4767TIP3   OH235791   4.959   4.835  13.443  0.1762 -0.2375  0.4101
 4767TIP3    H135792   4.879   4.884  13.458  0.6553  0.5275  0.5377
 4767TIP3    H235793   4.930   4.749  13.413 -0.6745  0.3953 -0.6535
 4768TIP3   OH235794   4.459   5.198  16.818  0.2954  0.3333 -0.1090
 4768TIP3    H135795   4.371   5.189  16.855  1.3631 -2.7883  2.0357
 4768TIP3    H235796   4.459   5.139  16.743  0.4749  0.6580 -0.3670
 4769TIP3   OH235797   2.468   4.208   0.754 -0.1229 -0.2849  0.3122
 4769TIP3    H135798   2.498   4.276   0.695 -0.9378 -1.5941 -1.7312
 4769TIP3    H235799   2.547   4.160   0.778  0.3037  0.6874  0.8594
 4770TIP3   OH235800   4.899   1.833  16.309  0.4035  0.1423  0.0159
 4770TIP3    H135801   4.932   1.768  16.371  1.6319 -0.0565 -0.8071
 4770TIP3    H235802   4.805   1.835  16.324  0.3627 -1.6980  0.1814
 4771TIP3   OH235803   1.149   0.061   5.173 -1.1671  0.0091 -0.7032
 4771TIP3    H135804   1.059   0.035   5.194 -0.9856  1.0336  1.6904
 4771TIP3    H235805   1.203  -0.010   5.207 -0.9550  0.9698  1.1342
 4772TIP3   OH235806   3.296   1.339   0.364  0.2910  0.4019 -0.1731
 4772TIP3    H135807   3.248   1.361   0.284 -1.7290 -2.5950  0.0490
 4772TIP3    H235808   3.382   1.312   0.334 -0.9322 -2.2479 -1.6921
 4773TIP3   OH235809   4.472   5.244  12.507 -0.4337 -0.0750 -0.2218
 4773TIP3    H135810   4.507   5.305  12.441 -0.0038  0.6411  0.6386
 4773TIP3    H235811   4.499   5.282  12.591 -1.2623 -0.7830  0.3832
 4774TIP3   OH235812   1.573   1.772   0.196 -0.3196  0.3594  0.3413
 4774TIP3    H135813   1.516   1.810   0.128 -1.8181  2.6443  2.6764
 4774TIP3    H235814   1.541   1.683   0.207  2.5890 -1.6978 -4.5861
 4775TIP3   OH235815   2.527   0.358   0.381  0.1830 -0.2135 -0.3575
 4775TIP3    H135816   2.570   0.315   0.455 -1.4479  0.5756  1.1444
 4775TIP3    H235817   2.571   0.442   0.372 -0.6793  0.4041  0.8806
 4776TIP3   OH235818   2.313   6.684   1.043  0.2992  0.3149 -0.4473
 4776TIP3    H135819   2.304   6.776   1.017 -0.1439  0.9929  1.9102
 4776TIP3    H235820   2.407   6.669   1.049  0.3790  0.5197 -1.1351
 4777TIP3   OH235821   1.997   5.158   2.906 -0.3414  0.4113 -0.2153
 4777TIP3    H135822   2.067   5.212   2.944  2.4814 -2.6222 -0.6965
 4777TIP3    H235823   2.035   5.071   2.899 -3.4154 -0.9116 -2.8160
 4778TIP3   OH235824   6.792   5.204  15.825  0.5396 -0.0749 -0.1627
 4778TIP3    H135825   6.843   5.278  15.857 -0.1858 -0.9962  3.5918
 4778TIP3    H235826   6.701   5.236  15.825  0.4616 -0.2675 -0.9425
 4779TIP3   OH235827   5.353   5.676  10.917  0.3687 -0.4204 -0.2428
 4779TIP3    H135828   5.443   5.648  10.898  0.3079 -0.8474  0.1108
 4779TIP3    H235829   5.298   5.603  10.890  0.0053  0.3669 -1.7692
 4780TIP3   OH235830   0.681   3.234   4.280 -0.3885 -0.1443  0.0515
 4780TIP3    H135831   0.739   3.304   4.250  1.2512 -0.6573  1.7920
 4780TIP3    H235832   0.704   3.158   4.226 -1.3558  0.3087 -1.0477
 4781TIP3   OH235833   4.965   3.363   0.218 -0.2283  0.0433  0.2656
 4781TIP3    H135834   4.978   3.377   0.124 -0.7919 -0.4798  0.1042
 4781TIP3    H235835   5.021   3.428   0.260  0.8205 -0.4060 -0.4144
 4782TIP3   OH235836   6.033   1.214   1.927 -0.1433  0.1024  0.8485
 4782TIP3    H135837   6.095   1.177   1.991 -0.5043  1.5042  2.0817
 4782TIP3    H235838   5.951   1.167   1.944 -0.6655  1.4959  2.5702
 4783TIP3   OH235839   0.486   6.458   3.313 -0.3805 -0.2296 -0.9905
 4783TIP3    H135840   0.467   6.535   3.368  1.0227 -0.8689  0.4853
 4783TIP3    H235841   0.431   6.389   3.349  0.7567 -0.7275 -0.1110
 4784TIP3   OH235842   3.788   3.590  13.727  0.2359  0.1254  0.4303
 4784TIP3    H135843   3.823   3.653  13.790  0.6355 -1.0835  1.4670
 4784TIP3    H235844   3.822   3.618  13.642 -0.4799  1.9073  0.6984
 4785TIP3   OH235845   5.579   6.788   3.005  0.0529 -0.0231 -0.0449
 4785TIP3    H135846   5.574   6.739   2.923  1.8576 -0.8287  0.2683
 4785TIP3    H235847   5.609   6.875   2.980  1.3916 -0.5021 -0.2115
 4786TIP3   OH235848   1.451   1.633  15.991  0.3879  0.2258  0.3171
 4786TIP3    H135849   1.477   1.596  16.076  0.4978  0.9001  0.5814
 4786TIP3    H235850   1.504   1.586  15.927 -0.3479 -0.9349  0.5319
 4787TIP3   OH235851   3.759   0.614   3.747 -0.5571  0.0617  0.6078
 4787TIP3    H135852   3.738   0.661   3.828  1.2571  1.2902  0.4139
 4787TIP3    H235853   3.825   0.549   3.773 -0.1110  0.3287  0.1515
 4788TIP3   OH235854   1.816   1.911   3.492 -0.0466  0.1580  0.5121
 4788TIP3    H135855   1.858   1.940   3.573 -2.0054 -1.2592  2.1567
 4788TIP3    H235856   1.723   1.921   3.509 -0.5668 -1.7030 -0.9297
 4789TIP3   OH235857   6.779   1.141  12.340  0.1121 -0.6039  0.0235
 4789TIP3    H135858   6.785   1.071  12.276 -0.3754 -1.9697  1.4282
 4789TIP3    H235859   6.866   1.145  12.380 -0.0573 -0.8646  0.4164
 4790TIP3   OH235860   1.058   1.295   3.797 -1.0339 -0.1719  0.1166
 4790TIP3    H135861   0.963   1.309   3.799 -0.8762  0.9378  1.2164
 4790TIP3    H235862   1.092   1.354   3.864  0.3874 -1.0154  0.1717
 4791TIP3   OH235863   6.001   0.095  14.746 -0.5718  0.2873  0.3725
 4791TIP3    H135864   6.055   0.171  14.767 -0.0280 -0.1999  0.7673
 4791TIP3    H235865   6.051   0.049  14.679 -1.6178  1.0685 -0.9978
 4792TIP3   OH235866   1.610   5.169   4.089  0.1715 -0.3758  0.1976
 4792TIP3    H135867   1.533   5.113   4.092  0.6664 -1.1466 -0.9519
 4792TIP3    H235868   1.578   5.256   4.114 -0.8260 -0.9282  0.8643
 4793TIP3   OH235869   1.771   1.245   1.393 -0.4165 -0.2473  0.5247
 4793TIP3    H135870   1.753   1.153   1.413  0.2117  0.0400  2.6772
 4793TIP3    H235871   1.862   1.258   1.422 -0.6593  1.1637  0.6962
 4794TIP3   OH235872   2.762   5.983  10.618 -0.0207  0.3546 -0.1982
 4794TIP3    H135873   2.741   5.911  10.678 -0.9368 -0.5806 -1.5902
 4794TIP3    H235874   2.853   5.968  10.593  0.8077  1.4943  1.9015
 4795TIP3   OH235875   1.738   1.519   1.449 -0.1045 -0.2789  0.1992
 4795TIP3    H135876   1.742   1.424   1.433 -1.0308 -0.3563  0.4063
 4795TIP3    H235877   1.655   1.546   1.410 -0.8691  0.0824  2.0198
 4796TIP3   OH235878   0.659   2.196   3.419  0.3381  0.3790  0.4472
 4796TIP3    H135879   0.569   2.221   3.436  0.3165  1.0137 -0.5341
 4796TIP3    H235880   0.698   2.273   3.378  0.9664 -0.3366 -0.3230
 4797TIP3   OH235881   1.754   2.710   3.289 -0.1026  0.3015  0.0583
 4797TIP3    H135882   1.710   2.628   3.267 -0.1586  0.2414  0.3979
 4797TIP3    H235883   1.738   2.722   3.382  0.8534  0.1238  0.2528
 4798TIP3   OH235884   0.030   1.742   4.890 -0.1321  0.1343 -0.6796
 4798TIP3    H135885   0.097   1.805   4.918 -0.8307  1.3752 -1.7246
 4798TIP3    H235886  -0.042   1.796   4.858 -1.3080 -1.1952 -0.3526
 4799TIP3   OH235887   3.182   5.529   0.647 -0.3138  0.1213 -0.3858
 4799TIP3    H135888   3.186   5.461   0.714 -1.4480 -0.2378 -0.6601
 4799TIP3    H235889   3.097   5.572   0.661  1.3114  3.0779  1.2775
 4800TIP3   OH235890   3.219   2.033  15.672 -0.3295  0.1719 -0.2913
 4800TIP3    H135891   3.207   2.048  15.766 -0.9028 -1.5927 -0.0401
 4800TIP3    H235892   3.271   2.107  15.642  1.4214 -0.1267  1.7854
 4801TIP3   OH235893   2.596   3.112   6.228 -0.5990  0.3920 -0.3705
 4801TIP3    H135894   2.637   3.029   6.203 -1.1162  0.1977 -0.6129
 4801TIP3    H235895   2.617   3.123   6.320  0.3264  0.5014 -0.5931
 4802TIP3   OH235896   5.985   6.474   5.740 -0.4090  0.4981 -0.1499
 4802TIP3    H135897   6.043   6.432   5.804  0.4471 -0.0704 -1.2679
 4802TIP3    H235898   5.992   6.568   5.760  0.6299  0.4109 -0.0274
 4803TIP3   OH235899   5.140   3.523  12.981  0.2094  0.0294 -0.2577
 4803TIP3    H135900   5.200   3.546  12.910  0.5176 -1.9676 -0.7195
 4803TIP3    H235901   5.184   3.451  13.027 -0.9100 -0.0817  0.6892
 4804TIP3   OH235902   6.661   3.715  12.300  0.0280 -0.0800 -0.0911
 4804TIP3    H135903   6.608   3.786  12.263 -0.4479 -0.3668  0.0323
 4804TIP3    H235904   6.751   3.740  12.281 -0.2256 -0.9809 -2.8163
 4805TIP3   OH235905   2.951   6.181   6.123 -0.4901  0.1394 -0.0489
 4805TIP3    H135906   2.978   6.272   6.111 -0.5828  0.1105 -0.4959
 4805TIP3    H235907   2.919   6.154   6.037  0.5782 -0.6727 -0.2095
 4806TIP3   OH235908   5.684   5.774  16.921 -0.3892  0.1747  0.0931
 4806TIP3    H135909   5.707   5.854  16.872  1.0459 -0.3590 -0.1650
 4806TIP3    H235910   5.721   5.703  16.868  0.4873 -0.4803  1.5220
 4807TIP3   OH235911   2.246   0.602   3.042  0.2673  0.4344  0.3516
 4807TIP3    H135912   2.279   0.516   3.070  0.6512  0.8295  1.1610
 4807TIP3    H235913   2.238   0.595   2.947 -0.2581 -0.6808  0.4683
 4808TIP3   OH235914   0.294   4.475  12.302 -0.2080  0.3610 -0.7251
 4808TIP3    H135915   0.286   4.571  12.301 -1.9267  0.2626 -0.3561
 4808TIP3    H235916   0.316   4.453  12.392 -2.8933  0.2864  0.0005
 4809TIP3   OH235917   0.451   1.863   2.566 -0.5708  0.3197 -0.2012
 4809TIP3    H135918   0.535   1.817   2.571 -0.4324  0.6320  0.4271
 4809TIP3    H235919   0.431   1.887   2.657 -0.0831  2.4912 -0.6134
 4810TIP3   OH235920   0.688   6.733   0.357 -0.1001  0.3828 -0.1193
 4810TIP3    H135921   0.681   6.641   0.382 -1.2898  0.1578 -1.1553
 4810TIP3    H235922   0.695   6.731   0.261 -2.1710  1.3970 -0.3564
 4811TIP3   OH235923   2.181   1.373   2.586 -0.2166 -0.1710 -0.3575
 4811TIP3    H135924   2.099   1.334   2.615 -0.4473 -0.8569 -1.8243
 4811TIP3    H235925   2.246   1.341   2.648 -1.0665  0.6032  0.9972
 4812TIP3   OH235926   3.884   2.206  15.700  0.7433 -0.5307 -0.4070
 4812TIP3    H135927   3.794   2.182  15.679  1.0685 -2.2788  0.0674
 4812TIP3    H235928   3.890   2.299  15.676 -1.2331 -0.3180 -0.2419
 4813TIP3   OH235929   0.331   6.512  11.831 -0.6392 -0.1892 -0.1511
 4813TIP3    H135930   0.293   6.524  11.918 -1.4398  0.2483 -0.5484
 4813TIP3    H235931   0.322   6.598  11.789  0.5273 -0.1516 -0.3759
 4814TIP3   OH235932   2.454   2.308  12.453  0.0452  0.1557 -0.4451
 4814TIP3    H135933   2.490   2.316  12.541 -2.0865  0.0966  0.5004
 4814TIP3    H235934   2.420   2.219  12.449 -2.2922  0.9740 -0.2819
 4815TIP3   OH235935   4.938   2.841   3.948 -0.3501  0.1873  0.5797
 4815TIP3    H135936   4.904   2.836   4.037  0.1975  1.5152  0.8881
 4815TIP3    H235937   4.927   2.933   3.922  0.2115 -0.0051 -0.4247
 4816TIP3   OH235938   6.473   6.210   4.732 -0.3685 -0.2338 -0.0244
 4816TIP3    H135939   6.485   6.131   4.785  0.3837 -0.6252 -0.7398
 4816TIP3    H235940   6.385   6.202   4.697 -1.2031  0.4450  1.7909
 4817TIP3   OH235941   1.874   0.291  12.783  0.6362 -0.0256 -0.5135
 4817TIP3    H135942   1.838   0.379  12.770 -0.2897 -0.2918  0.1495
 4817TIP3    H235943   1.928   0.276  12.706  1.5229  1.4670 -0.2334
 4818TIP3   OH235944   1.581   6.045  13.438 -0.4780  0.0720  0.1329
 4818TIP3    H135945   1.675   6.038  13.422 -0.6862 -1.1311 -0.7471
 4818TIP3    H235946   1.551   6.114  13.379 -0.3633 -0.5662 -0.6897
 4819TIP3   OH235947   4.399   2.184  16.114  0.3634 -0.2826  0.1575
 4819TIP3    H135948   4.323   2.240  16.095  0.9359  0.3218 -0.4678
 4819TIP3    H235949   4.362   2.100  16.139 -0.5126 -0.2525 -0.9555
 4820TIP3   OH235950   1.641   5.226   2.984  0.3305  0.3704  0.1002
 4820TIP3    H135951   1.685   5.152   3.026 -1.0929 -0.7643 -0.3288
 4820TIP3    H235952   1.678   5.229   2.896  1.1983  0.9037  0.4675
 4821TIP3   OH235953   2.037   3.238   2.241  0.4988  0.5832  0.0747
 4821TIP3    H135954   2.124   3.212   2.211  0.0913  0.2883 -0.9159
 4821TIP3    H235955   2.013   3.172   2.306  1.0739  0.7575  0.4705
 4822TIP3   OH235956   5.476   2.201   5.483 -0.4286 -0.4785 -0.1661
 4822TIP3    H135957   5.516   2.198   5.396 -0.1878  0.1283 -0.0781
 4822TIP3    H235958   5.433   2.286   5.486  0.0984 -0.2327  0.5497
 4823TIP3   OH235959   0.592   2.208   3.740  0.2528 -0.2222  0.5176
 4823TIP3    H135960   0.504   2.244   3.745 -0.3200 -1.1521 -1.6309
 4823TIP3    H235961   0.625   2.236   3.654  1.9201 -0.1727  1.1398
 4824TIP3   OH235962   2.248   2.979   0.576 -0.5500  0.1584 -0.2082
 4824TIP3    H135963   2.214   3.068   0.588  2.6246  1.8348 -2.2842
 4824TIP3    H235964   2.232   2.960   0.483 -0.1441 -0.9821 -0.0583
 4825TIP3   OH235965   6.015   5.127  13.940 -0.5024 -0.1192 -0.3190
 4825TIP3    H135966   5.954   5.180  13.992 -0.0627  0.0352  0.0500
 4825TIP3    H235967   6.014   5.168  13.853  0.8463  1.3845  0.2996
 4826TIP3   OH235968   1.989   1.375  15.017  0.9706 -0.2337 -0.1752
 4826TIP3    H135969   2.019   1.439  15.081 -0.7673  1.8803 -1.3576
 4826TIP3    H235970   2.066   1.358  14.961  2.3757 -1.7596  2.0283
 4827TIP3   OH235971   2.323   6.337  16.607 -0.2720  0.3113  0.4187
 4827TIP3    H135972   2.239   6.316  16.646  0.4351 -1.7004  0.9814
 4827TIP3    H235973   2.334   6.272  16.537  0.3166  1.2605 -0.4018
 4828TIP3   OH235974   6.145   1.126  14.544 -0.2471  0.4751  0.2629
 4828TIP3    H135975   6.132   1.034  14.521 -0.3632  0.1387  1.6087
 4828TIP3    H235976   6.156   1.126  14.639 -1.5782  1.9896  0.4622
 4829TIP3   OH235977   4.865   1.733   2.586  0.0654  0.4313 -0.1996
 4829TIP3    H135978   4.787   1.751   2.533  0.2606  1.1793 -0.2359
 4829TIP3    H235979   4.930   1.795   2.554  0.6217 -0.0672 -0.0381
 4830TIP3   OH235980   0.983   4.901   2.718 -0.9959  0.4291 -0.2227
 4830TIP3    H135981   0.955   4.987   2.685 -4.3005 -0.1172  0.7766
 4830TIP3    H235982   0.951   4.899   2.808  0.7539 -1.1459  0.4076
 4831TIP3   OH235983   5.039   5.904  13.397 -0.4382 -0.4197  0.1527
 4831TIP3    H135984   4.982   5.891  13.321  0.3789 -0.6762 -0.4346
 4831TIP3    H235985   5.005   5.844  13.463 -0.2019 -1.3794 -0.5654
 4832TIP3   OH235986   4.897   0.474  17.080 -0.1680  0.1321  0.1933
 4832TIP3    H135987   4.982   0.507  17.109  0.4743 -1.6545  0.5173
 4832TIP3    H235988   4.868   0.536  17.013  1.0531  1.1559  0.5829
 4833TIP3   OH235989   3.042   3.620   5.131 -0.5342  0.0063  0.6388
 4833TIP3    H135990   3.009   3.663   5.210 -1.5387 -1.0365  0.8235
 4833TIP3    H235991   2.965   3.610   5.075 -0.4965 -2.0543  0.8640
 4834TIP3   OH235992   3.053   4.562  12.519 -0.1710  0.4430 -0.2266
 4834TIP3    H135993   3.146   4.538  12.515 -0.4517 -0.6210 -0.8410
 4834TIP3    H235994   3.007   4.478  12.527 -1.1855  0.7905 -1.9070
 4835TIP3   OH235995   1.161   5.273  13.841  0.2454  0.2594  0.0882
 4835TIP3    H135996   1.252   5.296  13.825  0.7374  0.7711  3.0970
 4835TIP3    H235997   1.112   5.353  13.824  0.3872  0.0948 -1.1428
 4836TIP3   OH235998   1.846   5.316  11.749 -0.6408 -0.1126  0.1607
 4836TIP3    H135999   1.834   5.234  11.701 -2.8355 -0.4425  1.1724
 4836TIP3    H236000   1.936   5.342  11.730  0.0186 -2.6088 -0.3848
 4837TIP3   OH236001   3.534   1.180   5.194 -0.1727 -0.2338 -0.5120
 4837TIP3    H136002   3.593   1.194   5.119 -1.5491  0.0383 -1.5853
 4837TIP3    H236003   3.584   1.124   5.253 -0.1865 -3.2550 -3.0908
 4838TIP3   OH236004   6.792   1.002   3.971  0.1473 -0.1177 -0.0251
 4838TIP3    H136005   6.797   0.972   4.062 -1.1684  0.4979  0.2821
 4838TIP3    H236006   6.847   0.941   3.922  0.7020 -0.5882  1.1478
 4839TIP3   OH236007   1.999   2.948   4.366  0.1807  0.0382  0.4941
 4839TIP3    H136008   2.028   2.888   4.298 -0.1200  0.7607 -0.2978
 4839TIP3    H236009   2.078   2.969   4.416  0.0601 -2.0411  1.6574
 4840TIP3   OH236010   3.658   5.022   1.532  0.1989  0.3875 -0.3858
 4840TIP3    H136011   3.620   5.109   1.521  1.2397  0.9063 -0.0537
 4840TIP3    H236012   3.753   5.037   1.523  0.4951 -0.4815  1.0100
 4841TIP3   OH236013   1.903   3.449   4.605  0.2817  0.0451 -0.5733
 4841TIP3    H136014   1.933   3.361   4.630 -0.4883 -0.0429  0.0704
 4841TIP3    H236015   1.877   3.490   4.687  0.7330  0.9265 -0.8549
 4842TIP3   OH236016   0.719   3.545  16.455  0.6451 -0.1305  0.1079
 4842TIP3    H136017   0.810   3.538  16.481  0.8396 -1.0792 -0.7490
 4842TIP3    H236018   0.712   3.490  16.377 -0.9479 -1.1617  0.9086
 4843TIP3   OH236019   6.796   3.896   3.464  0.0406  0.0721  0.1946
 4843TIP3    H136020   6.813   3.886   3.370  0.6091 -0.4616  0.3460
 4843TIP3    H236021   6.882   3.915   3.501 -0.0011 -0.7580  0.7380
 4844TIP3   OH236022   1.750   2.712  11.973  0.1801  0.0699  0.0104
 4844TIP3    H136023   1.676   2.656  11.949  1.1477 -0.5892 -1.6062
 4844TIP3    H236024   1.721   2.801  11.951 -0.9591  0.1303  1.5736
 4845TIP3   OH236025   2.013   1.442  11.532  0.0941 -0.2473  0.1926
 4845TIP3    H136026   1.945   1.451  11.600  0.8499  1.3867  0.7890
 4845TIP3    H236027   2.075   1.511  11.552  0.2138  0.4612 -2.3457
 4846TIP3   OH236028   3.973   1.558   0.267 -0.8819  0.2249 -0.4347
 4846TIP3    H136029   3.992   1.479   0.319 -0.3641 -0.7330 -1.9894
 4846TIP3    H236030   3.916   1.610   0.322 -1.5652 -1.4304  0.5068
 4847TIP3   OH236031   2.955   6.443  12.817 -0.3506  0.2027 -0.0006
 4847TIP3    H136032   2.939   6.351  12.837  1.7594 -0.0133  0.8870
 4847TIP3    H236033   2.919   6.490  12.892 -1.1906  0.0963 -0.3285
 4848TIP3   OH236034   3.982   6.455  12.212  0.7388  0.0486 -0.3853
 4848TIP3    H136035   3.931   6.536  12.220  0.3917 -0.1181 -0.8674
 4848TIP3    H236036   4.071   6.480  12.236  0.1263 -0.0510  2.3145
 4849TIP3   OH236037   0.432   6.371   0.796  0.4915  0.3394 -0.6781
 4849TIP3    H136038   0.390   6.321   0.726 -1.4998  0.2159  0.5341
 4849TIP3    H236039   0.392   6.458   0.791  0.1883  0.2759  0.3916
 4850TIP3   OH236040   4.391   2.635  17.122 -0.4401  0.1190  0.5018
 4850TIP3    H136041   4.312   2.676  17.086 -2.9946 -3.2398  1.7697
 4850TIP3    H236042   4.398   2.669  17.211  0.3175  1.2936  0.0208
 4851TIP3   OH236043   3.316   2.832   2.549 -0.6665  0.2148 -0.1955
 4851TIP3    H136044   3.278   2.814   2.636  2.1575 -0.4875  1.0039
 4851TIP3    H236045   3.292   2.754   2.497 -0.1553 -0.6226  0.7840
 4852TIP3   OH236046   6.446   6.689  14.427  0.3042 -0.0097 -0.2325
 4852TIP3    H136047   6.413   6.778  14.409  2.9777  0.8374 -1.5526
 4852TIP3    H236048   6.379   6.631  14.391 -1.1918  1.4800  0.0444
 4853TIP3   OH236049   1.068   3.380  13.606  0.3363 -0.0537 -0.2047
 4853TIP3    H136050   0.976   3.402  13.588 -0.1751 -0.5398  1.5078
 4853TIP3    H236051   1.062   3.305  13.666  1.8412  0.2137  0.3205
 4854TIP3   OH236052   0.649   5.260  14.872 -0.1290 -0.7182  0.0725
 4854TIP3    H136053   0.626   5.344  14.832 -0.8774 -0.4284  1.0719
 4854TIP3    H236054   0.745   5.258  14.872 -0.1161 -0.0991 -0.4284
 4855TIP3   OH236055   6.431   3.104   1.577  0.2160  0.1757  0.4679
 4855TIP3    H136056   6.368   3.058   1.521  0.0728 -1.0295  1.5574
 4855TIP3    H236057   6.388   3.187   1.598 -1.2037 -0.7695  1.4684
 4856TIP3   OH236058   2.925   5.417   1.474 -0.2726 -0.4102  0.1376
 4856TIP3    H136059   2.856   5.355   1.452 -0.6920  0.1351 -0.1317
 4856TIP3    H236060   2.935   5.409   1.569 -1.4717  0.2450  0.3496
 4857TIP3   OH236061   4.704   1.146   4.301  0.4966  0.3197  0.2120
 4857TIP3    H136062   4.712   1.233   4.338  0.8416 -0.5827  2.3832
 4857TIP3    H236063   4.652   1.158   4.221  3.1438  2.9251 -1.3059
 4858TIP3   OH236064   0.523   5.916   5.878  0.2966 -0.5879  0.2924
 4858TIP3    H136065   0.462   5.870   5.936  0.2550 -1.6668 -0.5579
 4858TIP3    H236066   0.513   6.008   5.900 -0.5681 -0.8775  1.1791
 4859TIP3   OH236067   1.218   6.797  16.614 -0.0480  0.2417 -0.2132
 4859TIP3    H136068   1.124   6.793  16.596  0.3122 -0.0153 -2.2480
 4859TIP3    H236069   1.256   6.839  16.537  1.4285  1.2940  1.0120
 4860TIP3   OH236070   4.765   6.555  13.253  0.0035  0.6657  0.5599
 4860TIP3    H136071   4.807   6.485  13.303  0.0980  0.2361 -0.1097
 4860TIP3    H236072   4.705   6.597  13.315 -0.9653 -0.7828  0.6372
 4861TIP3   OH236073   6.591   0.198   4.130  0.3932 -0.4399  0.0130
 4861TIP3    H136074   6.574   0.279   4.176  0.5886 -0.2721 -0.2069
 4861TIP3    H236075   6.527   0.136   4.165  0.7347 -0.3962  0.7115
 4862TIP3   OH236076   3.279   0.343   1.444  0.0886  0.0682  0.4016
 4862TIP3    H136077   3.365   0.319   1.481 -0.1538 -1.3480  0.1203
 4862TIP3    H236078   3.250   0.263   1.399 -0.5245  1.1144 -1.1531
 4863TIP3   OH236079   2.834   0.163  12.667 -0.4099  0.1137 -0.1056
 4863TIP3    H136080   2.920   0.129  12.642  0.2300  1.2100  0.5241
 4863TIP3    H236081   2.853   0.234  12.728 -1.8171 -0.5198  1.1478
 4864TIP3   OH236082   6.746   5.891  13.738  0.0513  0.3365  0.3868
 4864TIP3    H136083   6.725   5.860  13.650  1.6830  1.2415 -0.3752
 4864TIP3    H236084   6.689   5.966  13.751 -0.2011  0.1963  0.1150
 4865TIP3   OH236085   4.133   4.908   4.528 -0.8267 -0.2921 -0.3175
 4865TIP3    H136086   4.195   4.835   4.515 -2.6368 -1.7674 -1.1697
 4865TIP3    H236087   4.127   4.918   4.623 -1.8835 -2.5265 -0.0883
 4866TIP3   OH236088   6.560   0.971   1.219  0.0094 -0.5066 -0.0133
 4866TIP3    H136089   6.555   0.931   1.306 -1.3543  2.2013  1.2846
 4866TIP3    H236090   6.553   0.898   1.158 -0.0312 -2.4039  2.1410
 4867TIP3   OH236091   6.162   0.651   5.433  0.3132  0.3176  0.0051
 4867TIP3    H136092   6.257   0.643   5.443  0.1921 -0.9201  0.2977
 4867TIP3    H236093   6.143   0.609   5.350  0.1800  1.9842 -0.8451
 4868TIP3   OH236094   4.405   6.622  12.568 -0.1012 -0.1533  0.1125
 4868TIP3    H136095   4.472   6.623  12.636 -0.3106  0.7413  0.3086
 4868TIP3    H236096   4.449   6.583  12.492 -0.2658 -2.5357  1.1484
 4869TIP3   OH236097   4.611   2.350  16.175  0.0447  0.4481  0.0164
 4869TIP3    H136098   4.536   2.291  16.165 -0.0415  0.7898 -1.6384
 4869TIP3    H236099   4.580   2.419  16.234 -1.1868  0.9364 -1.1663
 4870TIP3   OH236100   4.678   0.781  14.472  0.1283  0.6673  0.2616
 4870TIP3    H136101   4.664   0.852  14.536 -0.0376  0.9194 -0.0490
 4870TIP3    H236102   4.734   0.719  14.518 -0.0534  0.8050  0.6847
 4871TIP3   OH236103   2.370   6.726  13.966 -0.0154 -0.0486  0.0665
 4871TIP3    H136104   2.370   6.635  13.938 -2.0556 -0.7718  2.0898
 4871TIP3    H236105   2.391   6.776  13.887 -0.2775 -2.1665 -1.4241
 4872TIP3   OH236106   4.433   4.267  10.432  0.3707  0.1605 -0.1018
 4872TIP3    H136107   4.495   4.243  10.363  0.5784 -1.1228  0.4869
 4872TIP3    H236108   4.489   4.299  10.503  0.1326  1.8667 -0.6437
 4873TIP3   OH236109   4.122   0.702  17.180  0.4668 -0.0729 -0.5484
 4873TIP3    H136110   4.131   0.622  17.233 -0.6961 -0.3250 -0.6938
 4873TIP3    H236111   4.053   0.752  17.224  1.5838  1.1545 -0.1185
 4874TIP3   OH236112   0.646   5.778  11.626 -0.3783  0.2532  0.2882
 4874TIP3    H136113   0.568   5.793  11.679 -0.8399  0.3745 -0.4006
 4874TIP3    H236114   0.611   5.765  11.537  0.2645 -1.3331  0.2446
 4875TIP3   OH236115   4.365   5.628  13.898 -0.1845 -0.3256 -0.7799
 4875TIP3    H136116   4.341   5.544  13.857 -1.4413 -0.1628 -0.4256
 4875TIP3    H236117   4.343   5.616  13.990  1.0820 -0.1181 -0.4346
 4876TIP3   OH236118   6.435   5.561   1.548 -0.0438 -0.1404  0.3094
 4876TIP3    H136119   6.494   5.624   1.588  0.4686 -0.5970  0.2895
 4876TIP3    H236120   6.373   5.539   1.617 -1.7012  2.1342 -0.3604
 4877TIP3   OH236121   3.128   3.666  16.496  0.4403 -0.2303 -0.3975
 4877TIP3    H136122   3.210   3.660  16.545 -0.0482  1.1972  0.6779
 4877TIP3    H236123   3.095   3.576  16.494  0.8421 -0.4649  1.3381
 4878TIP3   OH236124   4.815   1.150  11.749 -0.0802 -0.2325 -0.2128
 4878TIP3    H136125   4.886   1.143  11.685 -0.3822  0.2516 -0.6082
 4878TIP3    H236126   4.834   1.082  11.814  3.2468  2.6090  2.1955
 4879TIP3   OH236127   0.403   0.940   4.128  0.5978 -0.2733 -0.0674
 4879TIP3    H136128   0.349   0.890   4.067 -3.4223  0.7488  2.2374
 4879TIP3    H236129   0.415   0.882   4.203  0.0479  0.5186  0.6591
 4880TIP3   OH236130   6.518   6.586   2.222  0.3567 -0.0235 -0.2919
 4880TIP3    H136131   6.544   6.551   2.137 -0.9884 -0.3201 -0.6156
 4880TIP3    H236132   6.598   6.624   2.258  1.1277 -0.5885 -1.3422
 4881TIP3   OH236133   0.768   2.758   4.160 -1.0660  0.0138 -0.1979
 4881TIP3    H136134   0.744   2.758   4.252  0.8290  0.6067  0.3312
 4881TIP3    H236135   0.774   2.665   4.137  0.3369 -0.1897  0.8368
 4882TIP3   OH236136   1.868   1.724   5.029  0.5083 -0.0486 -0.2961
 4882TIP3    H136137   1.909   1.663   4.968  0.8709  0.3465 -0.4504
 4882TIP3    H236138   1.890   1.690   5.116 -0.8439 -1.1746 -0.3689
 4883TIP3   OH236139   2.728   2.868   6.963 -0.1062  0.0399  0.3981
 4883TIP3    H136140   2.802   2.917   6.928  1.7855 -1.7521  1.6258
 4883TIP3    H236141   2.686   2.829   6.887  0.2202  1.0893 -0.3261
 4884TIP3   OH236142   3.679   3.144  12.497  0.0911 -0.1246 -0.7592
 4884TIP3    H136143   3.698   3.082  12.427 -0.4120 -0.0341 -0.9766
 4884TIP3    H236144   3.613   3.100  12.551 -1.1076  0.6514 -1.5372
 4885TIP3   OH236145   4.222   0.731   2.977 -0.2111 -0.0360  0.5752
 4885TIP3    H136146   4.277   0.654   2.995  1.3623  0.6444 -1.0476
 4885TIP3    H236147   4.284   0.804   2.972 -1.3880  0.9322 -0.3789
 4886TIP3   OH236148   1.793   1.242   1.081  0.6939 -0.2035  0.2354
 4886TIP3    H136149   1.803   1.278   1.169  3.2031  1.0873 -0.4613
 4886TIP3    H236150   1.806   1.148   1.092 -1.2997 -0.3761  1.4911
 4887TIP3   OH236151   6.575   0.410   5.570  0.4031 -0.0205  0.0469
 4887TIP3    H136152   6.612   0.346   5.509 -0.7961 -2.8924  2.0869
 4887TIP3    H236153   6.650   0.440   5.621  0.8325 -0.9647 -0.0029
 4888TIP3   OH236154   0.069   2.516   6.251 -0.0373  0.0073  0.2153
 4888TIP3    H136155   0.100   2.519   6.342 -0.5345  0.3320  0.3823
 4888TIP3    H236156   0.004   2.586   6.246 -0.0336 -0.0274 -0.3869
 4889TIP3   OH236157   1.978   6.183  10.763  0.1340  0.3338  0.1112
 4889TIP3    H136158   1.982   6.100  10.715  0.5418  0.6293 -0.3748
 4889TIP3    H236159   2.067   6.217  10.760  0.1909  0.3291  1.1523
 4890TIP3   OH236160   0.223   6.669   5.269 -0.4769  0.2371  0.6139
 4890TIP3    H136161   0.158   6.599   5.258 -0.7713  0.8575 -2.6821
 4890TIP3    H236162   0.173   6.750   5.255  0.7445  0.7990 -0.6871
 4891TIP3   OH236163   1.347   2.080   2.077  0.0522  0.2754  0.5766
 4891TIP3    H136164   1.392   1.997   2.064 -0.7418  0.1617 -1.7807
 4891TIP3    H236165   1.335   2.116   1.989 -1.5668  1.8491  1.3669
 4892TIP3   OH236166   2.972   1.364  16.720  0.4749  0.4330 -0.3791
 4892TIP3    H136167   3.057   1.396  16.688 -0.1923  1.4434 -1.1776
 4892TIP3    H236168   2.984   1.354  16.814  1.2340  1.3815 -0.3586
 4893TIP3   OH236169   4.109   6.561   1.958  0.6419  0.0077 -0.6180
 4893TIP3    H136170   4.066   6.647   1.962 -0.1913 -0.3293 -1.7148
 4893TIP3    H236171   4.040   6.499   1.983  1.9796 -0.2115  3.0476
 4894TIP3   OH236172   0.121   0.752  15.936  0.1573 -1.4593 -0.0676
 4894TIP3    H136173   0.164   0.709  15.861  0.1200 -2.2208  0.3319
 4894TIP3    H236174   0.053   0.807  15.897  0.6675 -1.2201 -0.6374
 4895TIP3   OH236175   2.800   0.874   4.741  0.8954  0.6674  0.0091
 4895TIP3    H136176   2.708   0.857   4.762  0.1436  3.1850 -0.9186
 4895TIP3    H236177   2.833   0.926   4.814  0.5246  2.6909 -1.1691
 4896TIP3   OH236178   5.448   3.038   2.960 -0.1773 -0.9087 -0.3327
 4896TIP3    H136179   5.456   3.068   3.051 -1.6774 -1.3481 -0.0269
 4896TIP3    H236180   5.532   2.995   2.942  0.0368 -1.0836  0.9563
 4897TIP3   OH236181   4.577   3.016  13.341  0.0296 -0.2286  0.6665
 4897TIP3    H136182   4.527   3.044  13.418 -1.7531 -0.5252 -0.3331
 4897TIP3    H236183   4.528   2.941  13.307  0.7807 -0.1001 -0.7673
 4898TIP3   OH236184   4.584   5.189  13.605  0.2618 -0.1412  0.2503
 4898TIP3    H136185   4.521   5.254  13.635  0.4597  0.1559  0.0294
 4898TIP3    H236186   4.626   5.229  13.529  2.0960  0.4693  1.5388
 4899TIP3   OH236187   3.634   3.330   2.718 -0.1019  0.3139 -0.7740
 4899TIP3    H136188   3.636   3.424   2.705 -1.0400  0.3238 -0.9254
 4899TIP3    H236189   3.638   3.293   2.630  1.6781  0.1643 -0.6513
 4900TIP3   OH236190   6.563   2.853   1.624 -0.2404  0.4616  0.0175
 4900TIP3    H136191   6.657   2.861   1.605  0.0628  0.8342  1.5523
 4900TIP3    H236192   6.528   2.940   1.607 -0.2555  0.3992 -0.2746
 4901TIP3   OH236193   1.980   1.014   3.374  0.5183  0.2042  0.7754
 4901TIP3    H136194   1.905   1.070   3.395  0.7491  0.0728  2.0653
 4901TIP3    H236195   1.941   0.935   3.337  0.0730  0.4818  0.6472
 4902TIP3   OH236196   0.630   2.131   1.922  0.0660  0.0778  0.7127
 4902TIP3    H136197   0.705   2.072   1.913 -0.3708 -0.4438  0.4596
 4902TIP3    H236198   0.595   2.111   2.009 -1.2463 -1.4381 -0.1176
 4903TIP3   OH236199   0.780   0.604   5.060  0.5142 -0.4641  0.7449
 4903TIP3    H136200   0.873   0.622   5.054  0.3169  1.0232  1.6053
 4903TIP3    H236201   0.737   0.682   5.025 -0.3969 -0.4326  1.8483
 4904TIP3   OH236202   5.882   4.161   3.937 -0.3999  0.3941 -0.1943
 4904TIP3    H136203   5.901   4.221   4.009 -1.9259 -0.0244  0.5942
 4904TIP3    H236204   5.922   4.202   3.860 -1.5635  2.5313  0.2771
 4905TIP3   OH236205   4.265   5.184   3.766  0.3888  0.2063  0.1669
 4905TIP3    H136206   4.180   5.213   3.732 -0.6051 -1.7687  0.8443
 4905TIP3    H236207   4.321   5.261   3.757 -1.4875  1.6119 -0.2026
 4906TIP3   OH236208   1.460   5.158  11.112  0.5958 -0.1541 -0.4042
 4906TIP3    H136209   1.442   5.096  11.041  0.4278  0.4260 -0.8882
 4906TIP3    H236210   1.488   5.104  11.185  0.6245 -0.7837 -0.8680
 4907TIP3   OH236211   2.609   3.531  15.671  0.4554  0.0003 -0.0211
 4907TIP3    H136212   2.610   3.476  15.750  0.5201  0.3181  0.1977
 4907TIP3    H236213   2.647   3.475  15.603  2.7323  0.5396  0.7167
 4908TIP3   OH236214   4.968   5.477  14.578 -0.6098  0.1100  0.7036
 4908TIP3    H136215   4.988   5.447  14.667  0.3126  2.8184  1.5440
 4908TIP3    H236216   4.873   5.483  14.576 -0.7010 -1.0564  1.1186
 4909TIP3   OH236217   2.439   0.160  14.560  1.0055  0.5239 -0.2094
 4909TIP3    H136218   2.362   0.146  14.615  0.2649  0.7446 -1.1619
 4909TIP3    H236219   2.440   0.085  14.500  1.6412  0.4297 -0.0898
 4910TIP3   OH236220   1.892   5.370  15.176 -0.2591 -0.5468  0.1600
 4910TIP3    H136221   1.851   5.355  15.090  0.5938  1.1793 -0.5895
 4910TIP3    H236222   1.818   5.382  15.236 -0.8619 -1.5046 -0.3624
 4911TIP3   OH236223   5.109   5.518   2.069 -0.1400 -0.3990 -0.0545
 4911TIP3    H136224   5.024   5.502   2.028 -0.8003  0.3273  0.9799
 4911TIP3    H236225   5.104   5.608   2.100  0.9604 -0.3925  0.1259
 4912TIP3   OH236226   6.494   3.888  11.527  0.0298  0.3201  0.2329
 4912TIP3    H136227   6.552   3.831  11.578 -0.0065 -0.5225 -0.6245
 4912TIP3    H236228   6.483   3.842  11.444 -1.2960  0.8086  0.1054
 4913TIP3   OH236229   4.844   0.429   5.217 -0.0659  0.3888  0.1475
 4913TIP3    H136230   4.860   0.503   5.276  0.1121 -0.3109  0.9987
 4913TIP3    H236231   4.904   0.443   5.143  1.9530 -0.3021  1.5689
 4914TIP3   OH236232   3.982   1.493  10.936 -0.2578  0.0774  0.0139
 4914TIP3    H136233   4.063   1.447  10.913 -0.5582 -0.4274 -0.0481
 4914TIP3    H236234   3.996   1.583  10.905  0.3243  0.0270  0.1106
 4915TIP3   OH236235   3.699   5.228   5.948 -0.3919  0.3787 -0.5632
 4915TIP3    H136236   3.668   5.145   5.912  1.6796 -1.3676  1.3960
 4915TIP3    H236237   3.655   5.236   6.032  0.0281  0.8593 -0.3885
 4916TIP3   OH236238   4.318   5.023  15.530  0.9300  0.5471 -0.2495
 4916TIP3    H136239   4.412   5.027  15.510  1.3336  3.7701  1.5297
 4916TIP3    H236240   4.284   5.107  15.498 -1.1253 -0.0770  0.1652
 4917TIP3   OH236241   3.255   0.814   4.560  0.1123 -0.4698 -0.1562
 4917TIP3    H136242   3.270   0.780   4.472  0.7720  1.2507 -0.7615
 4917TIP3    H236243   3.328   0.779   4.612  1.7328  1.2167 -1.1498
 4918TIP3   OH236244   5.530   4.370   1.213  0.3528 -0.3949 -0.1978
 4918TIP3    H136245   5.515   4.460   1.182 -0.9138 -0.4351  0.2290
 4918TIP3    H236246   5.608   4.377   1.269  0.3621  0.4129 -0.2899
 4919TIP3   OH236247   1.763   0.669   5.067 -0.2714  0.0757 -0.6497
 4919TIP3    H136248   1.755   0.590   5.015  2.2235 -0.4325 -0.3521
 4919TIP3    H236249   1.736   0.739   5.008  0.5438 -0.6944 -1.9824
 4920TIP3   OH236250   3.483   4.301  13.252  1.0487 -0.3584  0.2638
 4920TIP3    H136251   3.503   4.332  13.340  0.1041  0.9341  0.0488
 4920TIP3    H236252   3.510   4.372  13.195  2.2870 -1.4560 -0.5788
 4921TIP3   OH236253   6.130   3.626  11.169  0.4792  0.1746 -0.4011
 4921TIP3    H136254   6.039   3.606  11.190  0.9743  0.4745  2.4369
 4921TIP3    H236255   6.135   3.722  11.174  1.0346  0.1330  0.0147
 4922TIP3   OH236256   4.965   5.122   1.697  0.0317  0.4653  0.5171
 4922TIP3    H136257   4.990   5.201   1.745  0.0093 -0.0170  1.3513
 4922TIP3    H236258   4.999   5.050   1.750 -0.9544 -0.1222  0.3849
 4923TIP3   OH236259   0.598   3.858  15.121 -0.3142  0.2922 -0.4801
 4923TIP3    H136260   0.517   3.896  15.087  0.1656  3.1662  1.2874
 4923TIP3    H236261   0.632   3.924  15.181  2.4203 -1.6117  0.2322
 4924TIP3   OH236262   6.035   4.220   0.823 -0.5412  0.0588 -0.4714
 4924TIP3    H136263   6.106   4.219   0.758 -0.5469 -1.3652 -0.4789
 4924TIP3    H236264   6.005   4.129   0.828 -0.0528 -0.0292  2.0711
 4925TIP3   OH236265   4.425   3.153   5.840 -0.1172 -0.1403 -0.5523
 4925TIP3    H136266   4.358   3.165   5.907 -0.4590 -1.5265 -0.6248
 4925TIP3    H236267   4.508   3.165   5.887 -0.3850  0.9632 -0.3359
 4926TIP3   OH236268   4.527   3.433   2.643  0.1913 -0.0264 -0.0417
 4926TIP3    H136269   4.489   3.349   2.618 -1.0271 -0.3014  2.3721
 4926TIP3    H236270   4.489   3.496   2.581  0.6251 -1.1257 -1.4759
 4927TIP3   OH236271   4.640   6.602   0.050 -0.2101  0.0888 -0.1085
 4927TIP3    H136272   4.670   6.559  -0.031  0.4547  0.9820 -0.3551
 4927TIP3    H236273   4.689   6.558   0.119 -1.4891 -1.3409 -0.0672
 4928TIP3   OH236274   0.181   6.084   2.917  0.1040  0.2660 -0.4167
 4928TIP3    H136275   0.108   6.140   2.946  0.2372 -1.1386  3.1932
 4928TIP3    H236276   0.259   6.136   2.935  0.1197  0.3359 -0.6826
 4929TIP3   OH236277   6.225   6.090   4.866 -0.9213 -0.0640 -0.3005
 4929TIP3    H136278   6.281   6.123   4.936  0.0667  2.0903 -1.9859
 4929TIP3    H236279   6.136   6.108   4.896 -0.6914 -1.6735  1.5274
 4930TIP3   OH236280   0.989   2.529  12.188  0.0744 -0.2507 -0.1724
 4930TIP3    H136281   1.041   2.609  12.182 -1.6956  0.8598 -1.6568
 4930TIP3    H236282   0.934   2.542  12.265  1.1876 -0.9697  0.7791
 4931TIP3   OH236283   2.149   3.839   4.776 -0.7191 -0.0033  0.0437
 4931TIP3    H136284   2.104   3.805   4.699  0.7230  0.2244 -0.9238
 4931TIP3    H236285   2.078   3.874   4.831 -2.5065 -4.7986  1.3901
 4932TIP3   OH236286   6.730   1.217  16.247 -0.1829  0.7100 -0.3790
 4932TIP3    H136287   6.652   1.271  16.229 -1.4351 -0.8490  0.1364
 4932TIP3    H236288   6.748   1.234  16.340 -0.3631  0.5120 -0.3072
 4933TIP3   OH236289   1.013   1.595  16.618 -0.3334  0.3917 -0.8160
 4933TIP3    H136290   1.007   1.691  16.623 -0.6461  0.3535 -0.4803
 4933TIP3    H236291   1.106   1.579  16.600 -0.0307  0.7120  0.3378
 4934TIP3   OH236292   5.862   2.784   1.732 -0.5645  0.3680  0.4682
 4934TIP3    H136293   5.949   2.823   1.727  0.2358 -1.4914 -1.9789
 4934TIP3    H236294   5.877   2.690   1.734 -2.4748 -0.0771 -1.6616
 4935TIP3   OH236295   5.774   3.879   2.068  0.6622 -0.4927  0.5025
 4935TIP3    H136296   5.815   3.802   2.107  1.0039 -0.3609  0.4084
 4935TIP3    H236297   5.699   3.898   2.126  1.1933 -0.2723  1.1307
 4936TIP3   OH236298   0.641   2.287  16.364 -0.6094 -0.1817  0.1617
 4936TIP3    H136299   0.588   2.352  16.318 -1.5012 -1.4842 -0.7375
 4936TIP3    H236300   0.633   2.208  16.311 -1.5633 -1.7407  2.4746
 4937TIP3   OH236301   3.344   5.026  11.400  0.2781  0.2632  0.4952
 4937TIP3    H136302   3.372   4.935  11.409 -0.0298  0.0064 -0.9101
 4937TIP3    H236303   3.424   5.074  11.382  0.1690 -0.1209 -1.1811
 4938TIP3   OH236304   0.974   0.365   1.235 -0.0127  0.3523 -0.1266
 4938TIP3    H136305   0.937   0.373   1.147  0.2951  0.1064 -0.2780
 4938TIP3    H236306   1.023   0.446   1.249  3.0615 -1.0870 -1.6360
 4939TIP3   OH236307   3.711   3.074  14.477  0.5847  0.2629 -0.5481
 4939TIP3    H136308   3.676   3.018  14.408 -0.4555  1.1847 -0.7972
 4939TIP3    H236309   3.761   3.014  14.533 -0.1905 -0.8446 -0.9974
 4940TIP3   OH236310   1.209   2.768  13.026  0.0796  0.0736 -0.1080
 4940TIP3    H136311   1.247   2.682  13.041  1.0125  0.4683 -0.1230
 4940TIP3    H236312   1.271   2.811  12.967 -0.2851  0.8236  0.0485
 4941TIP3   OH236313   2.875   5.027   0.795 -0.6694  0.1086  0.5618
 4941TIP3    H136314   2.887   5.098   0.732 -1.7616 -0.1012  0.0841
 4941TIP3    H236315   2.943   4.963   0.773 -0.5783  0.3716  0.0681
 4942TIP3   OH236316   1.319   1.736  17.109  0.7998  0.1643  0.0995
 4942TIP3    H136317   1.321   1.698  17.022  0.1714 -1.6392  0.8127
 4942TIP3    H236318   1.362   1.671  17.165 -0.7086  0.2318  1.4556
 4943TIP3   OH236319   2.314   3.780   3.746 -0.7950  0.0654  0.4165
 4943TIP3    H136320   2.363   3.855   3.714 -0.6707  0.0906  0.6673
 4943TIP3    H236321   2.344   3.768   3.836  0.5751 -1.4252 -0.1902
 4944TIP3   OH236322   2.326   1.722   4.014 -0.1548 -0.0417  0.0355
 4944TIP3    H136323   2.386   1.795   3.995  1.2211 -1.3143 -0.7561
 4944TIP3    H236324   2.276   1.710   3.934  0.5673 -0.7983 -0.3164
 4945TIP3   OH236325   2.053   3.348  12.526 -0.1174  0.8793 -0.2667
 4945TIP3    H136326   1.977   3.290  12.529  1.7923 -1.8833 -1.0457
 4945TIP3    H236327   2.063   3.379  12.616 -0.6328 -0.9074  0.4530
 4946TIP3   OH236328   2.347   1.133  14.455  0.8009 -0.3373  0.1223
 4946TIP3    H136329   2.363   1.058  14.513 -2.2365 -0.4701  0.9267
 4946TIP3    H236330   2.307   1.096  14.377 -1.2309  0.4256  0.7442
 4947TIP3   OH236331   5.932   6.035  12.657  0.2751 -0.1786 -0.2477
 4947TIP3    H136332   5.957   6.127  12.669  0.0366 -0.1548  0.0825
 4947TIP3    H236333   5.842   6.039  12.623  0.2485 -0.2912 -0.1888
 4948TIP3   OH236334   0.407   2.482  12.120  0.0643 -0.2601  0.2310
 4948TIP3    H136335   0.376   2.573  12.126  1.8662  0.3805  0.4534
 4948TIP3    H236336   0.500   2.487  12.141  0.0982 -2.2516  0.7422
 4949TIP3   OH236337   4.831   4.072   5.343 -0.1225  0.0771  0.0150
 4949TIP3    H136338   4.756   4.015   5.363 -0.7559  0.6549 -0.6361
 4949TIP3    H236339   4.798   4.160   5.360  1.0361  0.2393  1.6187
 4950TIP3   OH236340   0.903   4.391   6.721  0.0966  0.5630 -0.0370
 4950TIP3    H136341   0.923   4.319   6.781  1.8478  0.8414 -0.2436
 4950TIP3    H236342   0.883   4.465   6.779 -2.3753 -0.1826  0.1847
 4951TIP3   OH236343   4.265   6.426   1.731  0.0900 -0.7514  0.0180
 4951TIP3    H136344   4.301   6.352   1.780 -0.8278 -1.0527  0.2682
 4951TIP3    H236345   4.221   6.479   1.797 -2.1325 -1.7376 -0.5451
 4952TIP3   OH236346   5.607   4.836   0.663 -0.4600  0.0760 -0.0805
 4952TIP3    H136347   5.625   4.924   0.698 -0.6299 -0.6312  1.9143
 4952TIP3    H236348   5.586   4.784   0.740  1.0709 -2.1105 -1.0648
 4953TIP3   OH236349   0.141   6.512  17.120 -0.2036  0.3943  0.0793
 4953TIP3    H136350   0.176   6.541  17.204  0.2424  0.3263 -0.0798
 4953TIP3    H236351   0.060   6.466  17.142  0.6775 -0.9608  0.6245
 4954TIP3   OH236352   6.035   4.957   6.258  0.2019 -0.4935  0.3995
 4954TIP3    H136353   5.961   4.947   6.319 -2.7048 -1.8588 -2.9374
 4954TIP3    H236354   6.093   4.884   6.279 -0.5924 -0.7952  1.6674
 4955TIP3   OH236355   1.017   1.884   4.547 -1.0919 -0.6726 -0.3291
 4955TIP3    H136356   1.028   1.870   4.453  1.8390  1.8039 -0.5178
 4955TIP3    H236357   1.035   1.977   4.560 -0.6187 -1.0834  2.7546
 4956TIP3   OH236358   5.255   2.971  13.512  0.1856  0.0402 -0.0326
 4956TIP3    H136359   5.171   3.003  13.479 -0.4642 -2.1660 -0.7004
 4956TIP3    H236360   5.254   2.992  13.605 -0.9088  0.4538 -0.1223
 4957TIP3   OH236361   3.616   6.783  12.455  0.2873  0.4782 -0.1110
 4957TIP3    H136362   3.683   6.833  12.408  1.9727 -1.0363  0.5819
 4957TIP3    H236363   3.608   6.828  12.539 -1.7475  2.3788 -1.2219
 4958TIP3   OH236364   5.510   1.018  11.811  0.4416 -0.1074 -0.4118
 4958TIP3    H136365   5.427   1.052  11.776 -0.7012 -3.4158 -1.2138
 4958TIP3    H236366   5.504   1.036  11.905 -0.8201  0.4029 -0.5574
 4959TIP3   OH236367   6.197   4.012   3.061  0.1947  0.3373  0.2312
 4959TIP3    H136368   6.168   4.027   2.971  0.1525 -0.3842  0.1150
 4959TIP3    H236369   6.292   4.015   3.057  0.3018 -1.8953 -0.2875
 4960TIP3   OH236370   0.438   6.394   1.206 -0.1983 -0.3000  0.7247
 4960TIP3    H136371   0.532   6.379   1.221 -0.1383 -2.5818 -1.3923
 4960TIP3    H236372   0.396   6.312   1.232 -1.2294 -0.4168 -1.1586
 4961TIP3   OH236373   2.658   5.141  12.304 -0.1343  0.4770 -0.2195
 4961TIP3    H136374   2.685   5.231  12.288  0.5273  0.1637 -0.9454
 4961TIP3    H236375   2.563   5.145  12.310 -0.2601  0.9906 -1.9820
 4962TIP3   OH236376   0.536   5.340   6.446 -0.4465  0.3974  0.4110
 4962TIP3    H136377   0.628   5.320   6.465 -0.1443 -1.1269 -2.2662
 4962TIP3    H236378   0.533   5.436   6.443  1.7185  0.5040 -2.0436
 4963TIP3   OH236379   5.217   4.519   4.801 -0.2376  0.4566 -0.0980
 4963TIP3    H136380   5.184   4.477   4.880  1.0376 -1.1503 -0.3764
 4963TIP3    H236381   5.138   4.549   4.755 -1.0662  0.1454  1.0729
 4964TIP3   OH236382   1.269   6.256  14.072  0.1815 -0.2849 -0.2637
 4964TIP3    H136383   1.248   6.186  14.134  1.4027 -1.2351 -0.8619
 4964TIP3    H236384   1.361   6.275  14.088  0.4628 -0.3987 -1.6159
 4965TIP3   OH236385   5.407   6.227  12.954 -0.1537  0.1833 -0.0451
 4965TIP3    H136386   5.428   6.154  12.896  0.9769 -0.0456  0.6326
 4965TIP3    H236387   5.418   6.305  12.899 -2.2618 -0.1396 -1.0395
 4966TIP3   OH236388   1.486   5.449   2.956 -0.2639 -0.4846  0.4969
 4966TIP3    H136389   1.502   5.456   2.862  0.8121 -1.3701  0.5928
 4966TIP3    H236390   1.545   5.379   2.985  1.2417  1.4085  2.2532
 4967TIP3   OH236391   2.860   3.038  16.409 -0.3938 -0.4692  0.1517
 4967TIP3    H136392   2.943   3.079  16.431 -2.1253  1.8546  3.0078
 4967TIP3    H236393   2.862   2.954  16.456 -0.0644  0.0392  1.0685
 4968TIP3   OH236394   3.975   6.687   3.423  0.1867  0.4678 -0.0967
 4968TIP3    H136395   3.998   6.717   3.511 -2.2775  0.3508  0.6602
 4968TIP3    H236396   3.927   6.606   3.437  2.7040 -1.4786 -1.8322
 4969TIP3   OH236397   4.043   4.568  15.235  0.4075 -0.0677  0.8320
 4969TIP3    H136398   4.105   4.499  15.262  1.3906  0.5226  0.1377
 4969TIP3    H236399   4.092   4.649  15.246 -0.1373  0.3897 -0.0644
 4970TIP3   OH236400   3.218   2.501  12.306 -0.4168  0.3000  0.7576
 4970TIP3    H136401   3.257   2.588  12.310  2.6466 -0.8121 -1.1906
 4970TIP3    H236402   3.209   2.483  12.212 -0.7287 -1.5670  1.1141
 4971TIP3   OH236403   2.927   5.293   0.131  0.5916 -0.4690 -0.1083
 4971TIP3    H136404   2.869   5.369   0.122  2.5969  1.2490  0.5443
 4971TIP3    H236405   2.868   5.220   0.148 -1.3568  1.3750  1.7999
 4972TIP3   OH236406   3.813   2.500  12.614  0.2818 -0.4037 -0.1568
 4972TIP3    H136407   3.858   2.518  12.531  1.8467 -1.5131  0.3990
 4972TIP3    H236408   3.754   2.574  12.625  0.7665  0.2836 -1.7615
 4973TIP3   OH236409   3.741   1.525  14.867  0.0024  0.6976  0.0400
 4973TIP3    H136410   3.651   1.505  14.891  0.1303  1.4590  1.2636
 4973TIP3    H236411   3.789   1.444  14.885 -0.5200  0.0746 -1.2455
 4974TIP3   OH236412   2.629   0.010  14.959 -0.5483 -0.2059  0.3201
 4974TIP3    H136413   2.622   0.080  14.893 -1.4540  1.2680  1.8750
 4974TIP3    H236414   2.542  -0.030  14.960 -0.9804  0.7049  1.5323
 4975TIP3   OH236415   4.601   4.692   1.839 -0.4784 -0.0009  0.4229
 4975TIP3    H136416   4.691   4.713   1.863 -0.9811  0.0132  2.5520
 4975TIP3    H236417   4.593   4.717   1.748  1.3700  0.9775  0.4939
 4976TIP3   OH236418   2.731   4.144   6.298 -0.3145 -0.1370  0.2892
 4976TIP3    H136419   2.767   4.152   6.210  0.1719  0.4034  0.5330
 4976TIP3    H236420   2.681   4.062   6.296 -0.6565  0.0872 -0.6046
 4977TIP3   OH236421   4.911   2.974   4.269  0.3199 -0.1856 -0.2236
 4977TIP3    H136422   5.002   2.979   4.299  0.0981 -1.1361  0.6466
 4977TIP3    H236423   4.912   3.018   4.184  1.3301  0.9492  0.3468
 4978TIP3   OH236424   1.784   6.683  12.656 -0.5585 -0.4730 -0.2011
 4978TIP3    H136425   1.859   6.623  12.649 -1.2418 -1.5601  1.2861
 4978TIP3    H236426   1.779   6.703  12.750 -0.3682  1.9538 -0.6532
 4979TIP3   OH236427   1.914   0.029  13.390  0.5046 -0.5726 -0.2849
 4979TIP3    H136428   1.970   0.057  13.318  1.7025  0.1787  0.9027
 4979TIP3    H236429   1.834   0.081  13.380  1.2206  0.5614 -0.2703
 4980TIP3   OH236430   2.050   6.112  13.588 -0.0301  0.1504  0.3492
 4980TIP3    H136431   2.109   6.187  13.584  1.1065 -0.6484  1.4266
 4980TIP3    H236432   1.974   6.144  13.638  0.6919  0.4476  1.2870
 4981TIP3   OH236433   4.784   2.706   3.569  0.6438 -0.0529  0.4773
 4981TIP3    H136434   4.847   2.639   3.594 -0.3614 -0.6315  1.5412
 4981TIP3    H236435   4.833   2.788   3.575  1.0574 -0.3885  2.2632
 4982TIP3   OH236436   4.190   0.325   1.695  0.1417 -0.0949 -0.2059
 4982TIP3    H136437   4.106   0.367   1.676  0.7903  0.8577 -1.0859
 4982TIP3    H236438   4.170   0.260   1.762 -0.6569  2.5516  2.3123
 4983TIP3   OH236439   1.799   4.105  13.302  0.5919  0.1018  0.0982
 4983TIP3    H136440   1.794   4.181  13.360 -0.4412  0.5318 -0.5375
 4983TIP3    H236441   1.784   4.140  13.214  2.3616 -0.5141 -0.4920
 4984TIP3   OH236442   3.082   3.706  15.715  0.9845 -0.1963 -0.1779
 4984TIP3    H136443   3.129   3.638  15.667  1.9862 -0.6522  1.3486
 4984TIP3    H236444   3.127   3.787  15.694  1.7645 -0.4707  0.3852
 4985TIP3   OH236445   2.820   2.943   2.831  0.0480  0.0365  0.0896
 4985TIP3    H136446   2.882   2.875   2.855 -0.6120 -0.8170 -0.5549
 4985TIP3    H236447   2.764   2.954   2.908 -0.4669 -0.8710 -0.1440
 4986TIP3   OH236448   3.561   2.666  11.791  0.1552 -0.0739  0.5182
 4986TIP3    H136449   3.525   2.593  11.742  0.6353 -1.2951  1.8904
 4986TIP3    H236450   3.556   2.741  11.732 -2.1261 -0.7779 -0.2536
 4987TIP3   OH236451   6.342   3.532  11.818  0.3352  0.2525  0.1244
 4987TIP3    H136452   6.246   3.530  11.811  0.4571 -0.6201 -2.1778
 4987TIP3    H236453   6.370   3.583  11.742  1.7336 -0.6916 -0.0145
 4988TIP3   OH236454   3.686   0.377  15.581  0.3337  0.3351 -0.2682
 4988TIP3    H136455   3.606   0.324  15.584  1.1584 -1.0117 -0.8528
 4988TIP3    H236456   3.681   0.424  15.498  0.6030 -0.5431 -0.7983
 4989TIP3   OH236457   0.169   2.900  13.484  0.0517  0.1870 -0.4597
 4989TIP3    H136458   0.125   2.985  13.486 -1.3451 -0.4608  2.3455
 4989TIP3    H236459   0.144   2.862  13.401 -2.7597  0.8982 -0.0390
 4990TIP3   OH236460   1.060   3.331   5.873 -0.2081  0.1105  0.6283
 4990TIP3    H136461   1.094   3.289   5.795  0.5845 -0.1903  1.1260
 4990TIP3    H236462   1.101   3.418   5.875  2.1618 -0.9478  2.2589
 4991TIP3   OH236463   5.975   2.216   0.745 -0.0576 -0.0588  0.0803
 4991TIP3    H136464   5.900   2.276   0.743  0.4760  0.6875  1.2754
 4991TIP3    H236465   6.009   2.224   0.834  0.7903 -1.2083 -0.1239
 4992TIP3   OH236466   1.692   1.289   1.979  0.2023 -0.2546  1.1429
 4992TIP3    H136467   1.714   1.334   1.898  1.1461 -1.1687  0.8666
 4992TIP3    H236468   1.597   1.299   1.987  0.1566  0.2004  0.1396
 4993TIP3   OH236469   2.537   2.686  13.904  0.0132 -0.3545 -0.1656
 4993TIP3    H136470   2.509   2.659  13.816  0.6846 -1.3969 -0.0783
 4993TIP3    H236471   2.455   2.695  13.953 -0.4137  0.8360 -1.0419
 4994TIP3   OH236472   4.847   5.821   5.666  0.2732  0.0594  0.0774
 4994TIP3    H136473   4.897   5.740   5.662  0.5240  0.1973  0.4300
 4994TIP3    H236474   4.901   5.881   5.718  0.9318  1.0495 -1.6616
 4995TIP3   OH236475   5.201   6.183   0.540  0.0894  0.7560 -0.4081
 4995TIP3    H136476   5.170   6.256   0.487 -0.7060  1.0100  0.3854
 4995TIP3    H236477   5.284   6.158   0.499 -0.7845  0.5335 -2.1355
 4996TIP3   OH236478   3.271   1.250   1.603 -0.4172 -0.0985 -0.2836
 4996TIP3    H136479   3.338   1.240   1.670  1.1615  0.7610 -1.6613
 4996TIP3    H236480   3.319   1.248   1.520 -2.2310 -0.5476 -1.3902
 4997TIP3   OH236481   5.651   4.551  13.456  0.5976  0.7236 -0.0583
 4997TIP3    H136482   5.651   4.630  13.402  1.5978  0.8717  0.1375
 4997TIP3    H236483   5.559   4.537  13.478  0.0755  0.3210 -2.2743
 4998TIP3   OH236484   2.354   2.768  12.146  0.1027  0.2154  1.3339
 4998TIP3    H136485   2.280   2.714  12.119  0.3384 -0.2287  1.5554
 4998TIP3    H236486   2.387   2.806  12.065  0.8883 -1.2119  0.9326
 4999TIP3   OH236487   2.005   2.482   0.529  0.4834 -0.0246 -0.2272
 4999TIP3    H136488   2.037   2.572   0.540  0.4274  0.0232 -0.4363
 4999TIP3    H236489   1.924   2.479   0.579 -0.1106  0.3788 -1.1230
 5000TIP3   OH236490   2.207   4.973   2.932 -0.6362 -0.3650 -0.1550
 5000TIP3    H136491   2.172   4.905   2.989 -1.7195 -1.2034 -1.7489
 5000TIP3    H236492   2.266   4.926   2.873 -1.1698  0.1098 -1.0831
 5001TIP3   OH236493   2.875   1.616   1.897  0.1394 -0.1900  0.1077
 5001TIP3    H136494   2.818   1.614   1.974 -1.1667  0.3516 -0.8080
 5001TIP3    H236495   2.867   1.705   1.863 -0.7708 -0.9094 -1.6980
 5002TIP3   OH236496   6.555   0.112  12.525 -0.5470  0.4621 -0.6318
 5002TIP3    H136497   6.514   0.173  12.463 -1.5651  2.1231  1.5445
 5002TIP3    H236498   6.636   0.155  12.551 -0.0088 -0.3379 -0.9618
 5003TIP3   OH236499   1.429   0.923   2.256  0.5938  0.1473  0.5562
 5003TIP3    H136500   1.436   0.983   2.331  0.6280 -1.5173  1.9669
 5003TIP3    H236501   1.423   0.837   2.296  1.4101 -0.8828 -1.4109
 5004TIP3   OH236502   0.136   6.120   2.636  0.6576 -0.2880 -0.1269
 5004TIP3    H136503   0.048   6.147   2.610  0.9701  1.4465  0.5094
 5004TIP3    H236504   0.133   6.115   2.731  1.1855 -0.4694 -0.1133
 5005TIP3   OH236505   1.386   3.616  16.091 -0.1508 -0.3662 -0.2914
 5005TIP3    H136506   1.378   3.525  16.121 -0.4562 -0.6857 -1.3060
 5005TIP3    H236507   1.325   3.623  16.018 -0.5475  0.8233  0.1267
 5006TIP3   OH236508   0.132   5.375  10.506  0.3851 -0.0366  0.3192
 5006TIP3    H136509   0.171   5.343  10.587  0.6945  0.4335  0.3642
 5006TIP3    H236510   0.058   5.317  10.490  0.2451 -0.0569  1.0039
 5007TIP3   OH236511   3.953   4.753   2.407  0.2989  0.5450 -0.3334
 5007TIP3    H136512   3.995   4.739   2.492  1.0663 -0.9203 -0.9167
 5007TIP3    H236513   3.907   4.671   2.389  1.0492  0.4046 -1.8023
 5008TIP3   OH236514   4.060   0.267   3.835  0.2489  0.4767 -0.3520
 5008TIP3    H136515   3.970   0.275   3.803  0.6053  0.3085 -1.4413
 5008TIP3    H236516   4.067   0.178   3.866  0.4448  0.0124 -1.6450
 5009TIP3   OH236517   4.294   6.423   5.754  0.0475  0.6657 -0.3778
 5009TIP3    H136518   4.284   6.384   5.841  0.9420  1.5005  0.1179
 5009TIP3    H236519   4.245   6.505   5.758  1.4650  1.5490 -0.0662
 5010TIP3   OH236520   4.504   4.319  12.675  0.1668 -0.4732 -0.2650
 5010TIP3    H136521   4.496   4.267  12.594 -0.0959  0.4166 -0.8231
 5010TIP3    H236522   4.518   4.409  12.645  3.8856 -0.5814  0.6481
 5011TIP3   OH236523   6.397   2.978  10.922  1.0355  0.7073  0.3405
 5011TIP3    H136524   6.324   3.025  10.881 -0.2482 -1.4387  0.0374
 5011TIP3    H236525   6.465   2.977  10.854  0.2873  0.3013 -0.4181
 5012TIP3   OH236526   4.335   3.981  13.326  0.0245  0.1016  0.2611
 5012TIP3    H136527   4.318   4.013  13.237 -0.9364 -0.5771  0.1690
 5012TIP3    H236528   4.429   3.964  13.328 -0.2088 -1.8391 -1.3556
 5013TIP3   OH236529   3.048   5.913  16.205 -0.2471  0.5984 -0.3945
 5013TIP3    H136530   3.020   5.967  16.131  0.9681  1.2977 -0.3647
 5013TIP3    H236531   2.967   5.878  16.241 -0.8552 -0.1496 -2.3367
 5014TIP3   OH236532   4.733   1.642   5.423  0.0697  0.0374  0.0549
 5014TIP3    H136533   4.661   1.653   5.361 -1.3181 -1.2890  1.3597
 5014TIP3    H236534   4.725   1.716   5.482  0.0593  0.1315 -0.0633
 5015TIP3   OH236535   3.111   5.327   5.418  0.4648 -0.3577  0.1805
 5015TIP3    H136536   3.118   5.265   5.490  0.3306  0.2078  0.6853
 5015TIP3    H236537   3.153   5.406   5.450 -4.0430  1.7210  1.6877
 5016TIP3   OH236538   0.670   4.566   2.236 -0.4181 -0.1422  0.0001
 5016TIP3    H136539   0.620   4.602   2.162 -0.1362 -0.8670 -0.5540
 5016TIP3    H236540   0.759   4.556   2.202  0.1576  1.1897  0.9919
 5017TIP3   OH236541   3.813   6.527   1.642 -0.2243  0.1415  0.0853
 5017TIP3    H136542   3.811   6.497   1.551  1.0714  0.4375 -0.0577
 5017TIP3    H236543   3.845   6.617   1.637 -1.2286  0.5572  0.7551
 5018TIP3   OH236544   4.070   1.192  14.467  0.1703 -0.5672 -0.4178
 5018TIP3    H136545   4.106   1.128  14.529  1.4021  0.6719  0.1788
 5018TIP3    H236546   4.142   1.213  14.408  0.2715  1.4055  0.3402
 5019TIP3   OH236547   3.577   3.291  16.969 -0.1600  0.5195  0.1774
 5019TIP3    H136548   3.527   3.363  17.008  0.3168  1.0838 -0.2208
 5019TIP3    H236549   3.566   3.218  17.029  1.0200  1.5163  1.7004
 5020TIP3   OH236550   1.466   1.434  11.335 -0.2321 -0.1750 -0.1823
 5020TIP3    H136551   1.495   1.497  11.269 -0.8677 -0.5783 -0.8658
 5020TIP3    H236552   1.438   1.357  11.285  0.5618 -1.0232  0.6346
 5021TIP3   OH236553   6.814   5.095   1.438  0.1125  0.3328  0.7887
 5021TIP3    H136554   6.771   5.064   1.517 -1.2761 -0.7436 -0.3244
 5021TIP3    H236555   6.878   5.027   1.416  0.5750  0.6839  1.0458
 5022TIP3   OH236556   0.361   4.408   0.138  0.2360  0.1928  0.1640
 5022TIP3    H136557   0.309   4.336   0.103  0.6119  0.2077 -0.4352
 5022TIP3    H236558   0.386   4.459   0.061  1.8083 -0.2634  0.3373
 5023TIP3   OH236559   1.570   4.529  15.840 -0.0740 -0.2284 -0.5333
 5023TIP3    H136560   1.658   4.564  15.852  0.3533 -0.5511 -2.4341
 5023TIP3    H236561   1.529   4.588  15.776 -0.1943 -1.7073 -1.8785
 5024TIP3   OH236562   1.713   5.450  12.024 -0.0484  0.3774 -0.8795
 5024TIP3    H136563   1.797   5.493  12.040  1.2090 -1.4285 -2.2388
 5024TIP3    H236564   1.672   5.444  12.110  1.8180  0.1191  0.0216
 5025TIP3   OH236565   0.028   4.655  16.104  0.3430 -0.7422 -0.7809
 5025TIP3    H136566   0.031   4.614  16.018  0.2458 -0.2998 -0.9939
 5025TIP3    H236567   0.117   4.686  16.120 -0.0112  0.6785 -1.4519
 5026TIP3   OH236568   4.132   0.261   0.215 -0.4905 -0.8101  0.4623
 5026TIP3    H136569   4.087   0.325   0.270  2.0155  0.1632  1.4954
 5026TIP3    H236570   4.156   0.191   0.276  0.7484 -0.5630  0.2722
 5027TIP3   OH236571   2.304   2.983   2.572  0.2720 -0.3548  0.0719
 5027TIP3    H136572   2.249   2.913   2.537  0.4107 -0.1586 -0.5637
 5027TIP3    H236573   2.361   2.939   2.635 -1.5645 -0.3110  1.8446
 5028TIP3   OH236574   3.359   5.329  14.870 -0.3239 -0.3235 -0.2531
 5028TIP3    H136575   3.283   5.288  14.912 -1.2893  0.2124 -1.4258
 5028TIP3    H236576   3.423   5.258  14.862  0.6606 -0.1053  3.6508
 5029TIP3   OH236577   4.523   0.034   0.361 -0.0345  0.1365 -0.1585
 5029TIP3    H136578   4.579   0.045   0.438  1.2121  2.6047 -1.3041
 5029TIP3    H236579   4.574   0.071   0.289 -1.8067 -0.6483 -1.9098
 5030TIP3   OH236580   1.532   5.726  14.435  0.3081 -0.4181  0.4694
 5030TIP3    H136581   1.489   5.809  14.411 -1.2554 -1.2951  0.0716
 5030TIP3    H236582   1.463   5.660  14.425  1.5113 -1.7724  0.8178
 5031TIP3   OH236583   1.898   3.121  10.358  0.4459 -0.2568  0.1699
 5031TIP3    H136584   1.841   3.065  10.412 -0.1693  0.4816  0.3026
 5031TIP3    H236585   1.844   3.147  10.284  1.2788 -1.2322 -0.8137
 5032TIP3   OH236586   0.288   1.731  17.212  0.1265 -0.4616 -0.4364
 5032TIP3    H136587   0.379   1.761  17.207 -0.2008  0.9572  1.0934
 5032TIP3    H236588   0.288   1.670  17.286 -0.1152 -0.7119 -0.6431
 5033TIP3   OH236589   0.123   3.690   2.453 -0.1772  0.7497  0.6945
 5033TIP3    H136590   0.177   3.631   2.505 -0.4244  0.5649  0.7448
 5033TIP3    H236591   0.120   3.771   2.505  0.1238  0.7892  0.6472
 5034TIP3   OH236592   4.156   4.616  17.091  0.2250 -0.2430  0.3883
 5034TIP3    H136593   4.077   4.609  17.145 -0.7573  1.3078 -0.7363
 5034TIP3    H236594   4.151   4.704  17.053  0.4989 -1.4204 -2.6910
 5035TIP3   OH236595   1.481   2.172  14.833  0.9541  0.2933 -0.0779
 5035TIP3    H136596   1.557   2.228  14.814  1.9652 -0.4312  1.5836
 5035TIP3    H236597   1.518   2.099  14.884 -0.8437 -0.1901  0.5883
 5036TIP3   OH236598   3.241   2.227  12.047  0.0841  0.1846  0.1455
 5036TIP3    H136599   3.176   2.294  12.070  0.4826  0.4362  0.5837
 5036TIP3    H236600   3.190   2.152  12.018 -0.3696  0.7051 -0.4141
 5037TIP3   OH236601   3.480   5.059   0.768 -0.3951 -0.1161 -0.6230
 5037TIP3    H136602   3.550   5.034   0.708  2.5413  1.8621  1.6625
 5037TIP3    H236603   3.461   4.978   0.817  0.9928 -0.5105 -0.6859
 5038TIP3   OH236604   3.780   3.878  11.764  0.4180  0.2687 -0.0909
 5038TIP3    H136605   3.845   3.923  11.709  0.2351  2.3107  1.2249
 5038TIP3    H236606   3.751   3.946  11.826 -1.1366 -1.2767  0.9594
 5039TIP3   OH236607   0.121   5.411   4.430 -0.3185  0.1806  0.6508
 5039TIP3    H136608   0.189   5.478   4.424 -0.7704  0.5000 -1.6783
 5039TIP3    H236609   0.040   5.460   4.441 -0.3961 -0.1154  1.4488
 5040TIP3   OH236610   5.827   4.042  12.728  0.3157  0.0890  0.2971
 5040TIP3    H136611   5.855   3.983  12.797  0.6111  0.4680  0.5082
 5040TIP3    H236612   5.903   4.098  12.711 -0.2179  0.9792  0.7164
 5041TIP3   OH236613   5.572   3.044   5.229  0.0931  0.0523 -0.4471
 5041TIP3    H136614   5.523   2.971   5.268 -0.8603  0.7772 -0.2823
 5041TIP3    H236615   5.662   3.029   5.259 -0.4621  0.1216  1.3815
 5042TIP3   OH236616   0.819   0.439   2.756 -0.2987 -0.5616 -0.2945
 5042TIP3    H136617   0.890   0.487   2.799  0.8301 -1.0865 -1.5034
 5042TIP3    H236618   0.774   0.393   2.827  0.7434 -0.4248  0.4726
 5043TIP3   OH236619   6.600   6.678  15.761  0.3651  0.6432 -0.3134
 5043TIP3    H136620   6.559   6.594  15.782  0.6952  0.5449 -0.0494
 5043TIP3    H236621   6.571   6.737  15.831  3.3426 -0.2718  1.8882
 5044TIP3   OH236622   0.758   6.719   0.101  0.0637  0.1714  0.7967
 5044TIP3    H136623   0.839   6.703   0.053 -0.5502  2.1105 -1.0366
 5044TIP3    H236624   0.693   6.737   0.033 -1.1317  1.8595  2.2890
 5045TIP3   OH236625   3.143   6.784   6.993  0.0736 -0.0638 -0.7362
 5045TIP3    H136626   3.173   6.693   6.981 -0.9738 -0.4926 -0.1836
 5045TIP3    H236627   3.194   6.816   7.067  0.5960 -0.1239 -1.0622
 5046TIP3   OH236628   6.489   1.556  13.988  0.4711 -0.1334  0.1398
 5046TIP3    H136629   6.448   1.481  13.945 -0.4404 -0.4382  1.5046
 5046TIP3    H236630   6.582   1.533  13.994  0.2099 -1.1366  0.4969
 5047TIP3   OH236631   2.138   1.937   4.020 -0.0504  0.1850 -0.3712
 5047TIP3    H136632   2.228   1.941   4.051 -0.7850  2.1125  1.8337
 5047TIP3    H236633   2.095   1.876   4.080 -0.3046 -0.4060 -1.1499
 5048TIP3   OH236634   0.095   3.441  13.724 -0.0701 -0.3147  0.1759
 5048TIP3    H136635   0.039   3.364  13.738 -0.1937 -0.4235 -0.8803
 5048TIP3    H236636   0.132   3.428  13.637  0.0088  0.7550  0.0451
 5049TIP3   OH236637   3.901   1.214  12.416  0.3515  0.3195 -0.1113
 5049TIP3    H136638   3.953   1.214  12.335  1.3921 -2.2936  0.4729
 5049TIP3    H236639   3.965   1.226  12.486  0.2141 -2.2631  0.5764
 5050TIP3   OH236640   1.771   2.451   6.934  0.4184  0.0917  0.2637
 5050TIP3    H136641   1.809   2.382   6.988 -0.4636  0.6642  1.6887
 5050TIP3    H236642   1.679   2.424   6.922  0.5070  0.1620 -0.6579
 5051TIP3   OH236643   5.758   4.014  13.772 -0.0162 -0.1035 -0.4246
 5051TIP3    H136644   5.805   4.070  13.833 -1.7077 -1.8355  2.7066
 5051TIP3    H236645   5.673   4.057  13.761 -0.9497 -1.4255  1.1998
 5052TIP3   OH236646   3.515   2.055   1.377  0.4030  0.5629 -0.1234
 5052TIP3    H136647   3.479   1.966   1.377 -0.7733  1.0289 -0.0283
 5052TIP3    H236648   3.602   2.045   1.417  0.2982 -0.5434 -0.1326
 5053TIP3   OH236649   6.393   2.416   5.734 -0.2654  0.2743  0.3909
 5053TIP3    H136650   6.392   2.382   5.824 -0.9595  0.0408  0.2964
 5053TIP3    H236651   6.399   2.337   5.679 -1.4681  0.3086  0.1842
 5054TIP3   OH236652   1.040   3.975   3.607 -0.3653  0.3293 -0.1970
 5054TIP3    H136653   1.089   3.971   3.689 -1.5221  1.2548  0.5848
 5054TIP3    H236654   1.047   4.066   3.579  0.6595 -0.1467 -1.5589
 5055TIP3   OH236655   2.348   4.440   5.584 -0.2285  0.6419  0.1470
 5055TIP3    H136656   2.384   4.525   5.555  2.8517 -1.0374 -1.5524
 5055TIP3    H236657   2.406   4.413   5.655  0.5629 -1.1353 -1.0909
 5056TIP3   OH236658   3.204   0.253   4.416 -0.5678  0.3830  0.5722
 5056TIP3    H136659   3.275   0.230   4.475 -0.7044 -0.2583  0.4984
 5056TIP3    H236660   3.193   0.175   4.361 -1.4078  0.4255  0.6681
 5057TIP3   OH236661   0.991   5.836  16.069  0.4032  0.4790 -0.0491
 5057TIP3    H136662   1.075   5.839  16.114  1.3799 -0.2485 -1.7284
 5057TIP3    H236663   1.012   5.852  15.977 -1.3790  0.8933 -0.4287
 5058TIP3   OH236664   0.390   4.053  15.768  0.1759 -0.0842 -0.2124
 5058TIP3    H136665   0.357   3.964  15.778 -2.8918  1.0714  1.0200
 5058TIP3    H236666   0.466   4.056  15.826  0.7404 -2.0207 -0.7512
 5059TIP3   OH236667   2.490   4.369  11.970 -0.4081  0.0653 -0.3119
 5059TIP3    H136668   2.395   4.372  11.987 -0.1924 -0.8972  1.1977
 5059TIP3    H236669   2.520   4.457  11.991 -0.7732 -0.0046  0.5456
 5060TIP3   OH236670   0.523   2.600   4.595 -0.2759  0.3799  0.0146
 5060TIP3    H136671   0.524   2.504   4.596  1.0865  0.3784 -0.1678
 5060TIP3    H236672   0.467   2.624   4.669  1.5755 -0.5412  1.8011
 5061TIP3   OH236673   4.753   4.907   2.137 -0.4716 -0.5113  0.2421
 5061TIP3    H136674   4.844   4.879   2.148  0.0349  1.3102  1.1972
 5061TIP3    H236675   4.755   4.964   2.060 -0.9495 -0.9969 -0.1342
 5062TIP3   OH236676   1.227   5.924  16.194 -0.1652  0.3366  0.1619
 5062TIP3    H136677   1.292   5.867  16.152 -1.9819 -1.4238 -0.4562
 5062TIP3    H236678   1.265   5.946  16.279  3.1279  3.0504 -1.7589
 5063TIP3   OH236679   1.138   5.790  13.046 -0.2094 -0.4490  0.2275
 5063TIP3    H136680   1.104   5.879  13.036  0.0511 -0.3097  0.5567
 5063TIP3    H236681   1.061   5.736  13.062 -0.5091 -0.4898 -1.2643
 5064TIP3   OH236682   1.549   5.776  17.110 -0.1106  0.0967  0.1657
 5064TIP3    H136683   1.517   5.729  17.033 -1.4962  0.0500  0.7358
 5064TIP3    H236684   1.643   5.787  17.095  0.1017 -2.0880 -0.3794
 5065TIP3   OH236685   6.403   2.955  15.107  0.0283 -0.3676  0.2885
 5065TIP3    H136686   6.411   2.962  15.202 -0.3662 -0.4642  0.3314
 5065TIP3    H236687   6.408   2.861  15.089  1.2570 -0.2813  0.0989
 5066TIP3   OH236688   3.417   2.294   0.016 -0.0630  0.3768  0.5543
 5066TIP3    H136689   3.493   2.333   0.060 -0.2055  1.7051 -0.3201
 5066TIP3    H236690   3.432   2.200   0.022  2.0771  0.6102 -0.2681
 5067TIP3   OH236691   2.939   0.381   1.973  0.3340 -0.3514  0.2972
 5067TIP3    H136692   2.906   0.356   2.059 -0.2501 -0.3482  0.0736
 5067TIP3    H236693   2.875   0.347   1.911  1.4662 -1.6247 -0.2420
 5068TIP3   OH236694   2.584   1.709  15.445  0.5235  0.4371 -0.8497
 5068TIP3    H136695   2.525   1.743  15.378  0.0321  1.3216  0.0094
 5068TIP3    H236696   2.667   1.694  15.400 -0.5686 -1.6926 -2.3111
 5069TIP3   OH236697   4.929   2.075  14.986 -0.7161  0.3436  0.2227
 5069TIP3    H136698   5.009   2.117  14.956  1.0790 -2.6337  0.4009
 5069TIP3    H236699   4.858   2.124  14.946  1.3104  1.2608 -2.4628
 5070TIP3   OH236700   1.482   3.816  17.006 -0.3798  0.1439 -0.4906
 5070TIP3    H136701   1.442   3.822  17.092 -0.9236 -0.2160 -0.7108
 5070TIP3    H236702   1.459   3.728  16.975  2.0276 -0.7734  0.0932
 5071TIP3   OH236703   1.134   1.728   2.765  0.1107  0.0667  0.2897
 5071TIP3    H136704   1.056   1.720   2.819 -0.7651 -1.0760 -1.0838
 5071TIP3    H236705   1.113   1.680   2.685  2.9551 -1.9812  0.6540
 5072TIP3   OH236706   1.890   4.899  15.787 -0.0541 -0.0903  0.5012
 5072TIP3    H136707   1.927   4.951  15.860  0.6454  1.4486 -0.8737
 5072TIP3    H236708   1.852   4.965  15.729  1.8213 -0.9789 -1.8723
 5073TIP3   OH236709   3.169   4.720   1.579  0.1565  0.2173 -0.2943
 5073TIP3    H136710   3.197   4.755   1.664 -1.2793 -1.0989  0.7793
 5073TIP3    H236711   3.113   4.646   1.601  1.3119 -1.3924 -2.4566
 5074TIP3   OH236712   2.948   2.237   1.727 -0.1837  0.3581 -0.3845
 5074TIP3    H136713   3.028   2.184   1.729 -1.4599 -1.6881 -0.8136
 5074TIP3    H236714   2.918   2.231   1.637 -1.5031  0.0122  0.0618
 5075TIP3   OH236715   5.772   5.477   0.356 -0.4347  0.0274  0.1732
 5075TIP3    H136716   5.702   5.541   0.363 -0.2814  0.1153  0.9882
 5075TIP3    H236717   5.826   5.492   0.434  0.3974 -0.1410 -0.3626
 5076TIP3   OH236718   4.583   3.913  12.047  0.4340  0.3841 -0.5815
 5076TIP3    H136719   4.584   3.830  12.094 -0.3099  0.9075  0.3967
 5076TIP3    H236720   4.642   3.969  12.097 -0.8132  1.1269  0.1054
 5077TIP3   OH236721   1.815   0.000   1.378 -0.0343 -0.1302 -0.1239
 5077TIP3    H136722   1.749   0.007   1.447 -0.1324 -0.5591 -0.1711
 5077TIP3    H236723   1.807  -0.090   1.347 -1.2337  0.5542 -1.9295
 5078TIP3   OH236724   2.727   1.020   0.116  0.1028 -0.3915 -0.5193
 5078TIP3    H136725   2.659   1.067   0.068 -0.8982  1.0777  2.1437
 5078TIP3    H236726   2.699   1.023   0.208  2.6748 -1.6713  0.4186
 5079TIP3   OH236727   5.866   0.251   0.735 -0.1966  0.1492  0.3247
 5079TIP3    H136728   5.786   0.200   0.742 -0.0501  0.0845  1.8305
 5079TIP3    H236729   5.847   0.332   0.782  0.7693 -0.0925  1.1888
 5080TIP3   OH236730   2.945   6.074  16.631 -0.1966 -0.1362 -0.3588
 5080TIP3    H136731   3.008   6.140  16.601  0.8612 -0.7086  0.5346
 5080TIP3    H236732   2.976   6.050  16.719 -1.3947 -0.7820 -0.0967
 5081TIP3   OH236733   5.145   4.078  16.403  0.5128 -0.2424  0.1230
 5081TIP3    H136734   5.209   4.009  16.421  0.0205 -0.7731 -0.1108
 5081TIP3    H236735   5.109   4.100  16.489  0.5339 -0.4242  0.1793
 5082TIP3   OH236736   1.083   2.956   3.986  0.3750 -0.1968  0.0608
 5082TIP3    H136737   1.166   2.961   3.939 -0.3193 -0.5050 -1.2212
 5082TIP3    H236738   1.066   3.046   4.014  0.5827  0.0600 -0.6346
 5083TIP3   OH236739   1.454   3.008  14.782  0.4051  0.0604 -0.1793
 5083TIP3    H136740   1.440   3.005  14.876 -0.1871  1.4502 -0.1991
 5083TIP3    H236741   1.385   2.954  14.745 -0.6162  1.1389  0.0994
 5084TIP3   OH236742   2.219   5.050  14.409 -0.0558  0.1549  0.0137
 5084TIP3    H136743   2.155   5.022  14.344  0.9257  0.5361 -1.1499
 5084TIP3    H236744   2.304   5.030  14.370  0.5684  0.4801  1.1470
 5085TIP3   OH236745   0.587   6.679  11.651 -0.1769  0.0888  0.1436
 5085TIP3    H136746   0.670   6.697  11.606 -0.4256  0.1204 -0.3060
 5085TIP3    H236747   0.520   6.708  11.590 -0.5009  1.2546  1.0185
 5086TIP3   OH236748   0.395   3.990   1.549 -0.2632  0.5260  0.4447
 5086TIP3    H136749   0.425   4.080   1.541 -1.3155  0.7444 -1.7784
 5086TIP3    H236750   0.366   3.966   1.461 -0.1305 -1.9597  0.9891
 5087TIP3   OH236751   2.213   4.850   4.981  0.2783  0.6299  0.4941
 5087TIP3    H136752   2.160   4.925   5.006  1.5080  2.4027 -1.8809
 5087TIP3    H236753   2.303   4.877   4.999  0.8157  0.1555 -1.2715
 5088TIP3   OH236754   5.770   2.680  14.986  0.0563 -0.3407  0.0824
 5088TIP3    H136755   5.737   2.762  14.948  0.1758 -0.1944  0.2957
 5088TIP3    H236756   5.691   2.627  15.001 -0.2817  0.6920  2.2404
 5089TIP3   OH236757   1.565   2.196  12.576 -0.1700 -0.2011 -0.5314
 5089TIP3    H136758   1.607   2.166  12.656  0.1901 -1.6906 -1.2554
 5089TIP3    H236759   1.624   2.170  12.505 -1.1262 -0.1314 -1.3891
 5090TIP3   OH236760   6.739   3.643  13.625  0.2595 -0.6066  0.2004
 5090TIP3    H136761   6.806   3.578  13.644  0.2790 -0.8433 -0.6236
 5090TIP3    H236762   6.763   3.678  13.539 -1.0543 -1.2392 -0.4735
 5091TIP3   OH236763   3.467   5.103  13.704 -0.1724 -0.4237  0.0402
 5091TIP3    H136764   3.414   5.169  13.660 -0.1667 -0.6128 -0.2533
 5091TIP3    H236765   3.558   5.127  13.685 -0.1493 -0.1460  0.4768
 5092TIP3   OH236766   4.953   4.993  15.097  0.1451  0.0573 -0.0825
 5092TIP3    H136767   5.003   4.935  15.155 -1.1573  1.1634  2.2688
 5092TIP3    H236768   4.862   4.970  15.113 -0.2605  0.1305 -2.0638
 5093TIP3   OH236769   3.423   4.625  13.427  0.6759  1.0369  0.5767
 5093TIP3    H136770   3.381   4.698  13.473  0.5472  1.4082 -0.1133
 5093TIP3    H236771   3.373   4.616  13.346 -0.6164 -1.1493  1.5148
 5094TIP3   OH236772   3.770   0.778   5.363 -0.4188  0.7439  0.2395
 5094TIP3    H136773   3.858   0.746   5.344 -1.1766 -0.3800 -1.7845
 5094TIP3    H236774   3.739   0.723   5.435  0.1479  0.4101  0.2334
 5095TIP3   OH236775   2.743   6.267   1.753  0.0440 -0.7905 -0.9556
 5095TIP3    H136776   2.705   6.288   1.838 -0.4438 -4.1064 -0.2041
 5095TIP3    H236777   2.837   6.259   1.770  0.7399  3.2507 -1.9109
 5096TIP3   OH236778   1.569   0.183   0.517  0.6412  0.2180 -0.4279
 5096TIP3    H136779   1.598   0.164   0.606 -0.1699  0.3476 -0.1222
 5096TIP3    H236780   1.620   0.259   0.490  2.3825 -1.0317 -0.8667
 5097TIP3   OH236781   2.252   0.694  14.162 -0.7569  0.2603 -0.7713
 5097TIP3    H136782   2.256   0.682  14.067  2.4465  2.2726 -1.0540
 5097TIP3    H236783   2.339   0.668  14.192 -1.1848  1.1847  1.3935
 5098TIP3   OH236784   3.914   1.443  16.431 -0.2696  0.0204 -0.2476
 5098TIP3    H136785   3.968   1.466  16.506  0.0132  0.8136 -0.6774
 5098TIP3    H236786   3.975   1.407  16.367 -0.5077 -0.6457 -0.1068
 5099TIP3   OH236787   5.452   3.955  13.287  0.0802 -0.8517 -0.2574
 5099TIP3    H136788   5.480   3.958  13.195  0.5558  3.2513 -0.1763
 5099TIP3    H236789   5.534   3.946  13.336  0.1385 -0.1920 -0.2220
 5100TIP3   OH236790   2.432   2.997  16.612  0.2487 -0.2870  0.2029
 5100TIP3    H136791   2.420   2.902  16.614  1.8622 -0.5111  0.2844
 5100TIP3    H236792   2.524   3.010  16.635 -0.2531  1.3718  1.4894
 5101TIP3   OH236793   0.848   0.592  14.092 -0.2993  0.4711  0.2405
 5101TIP3    H136794   0.887   0.595  14.180 -1.9546  0.3929  1.0170
 5101TIP3    H236795   0.878   0.672  14.050 -1.4897  1.7888  1.7831
 5102TIP3   OH236796   3.608   0.363  14.477 -0.2697 -0.2183  0.5196
 5102TIP3    H136797   3.549   0.288  14.472 -0.4293 -0.1096  0.7713
 5102TIP3    H236798   3.570   0.420  14.544 -0.4897  0.3888 -0.1103
 5103TIP3   OH236799   4.569   4.602  12.970  0.2985  0.1353  0.0663
 5103TIP3    H136800   4.504   4.632  13.034  1.8845  0.2188  1.7518
 5103TIP3    H236801   4.566   4.506  12.977 -0.6854  0.0785 -0.9879
 5104TIP3   OH236802   2.680   5.883  11.863  0.1766 -0.3832 -0.1351
 5104TIP3    H136803   2.664   5.848  11.776  0.9169 -1.7933  0.2584
 5104TIP3    H236804   2.765   5.928  11.856  0.9186 -1.6830  0.1462
 5105TIP3   OH236805   3.239   4.651   0.512  0.2974 -0.0947  0.2128
 5105TIP3    H136806   3.301   4.629   0.582  1.8570 -1.4934 -1.5109
 5105TIP3    H236807   3.286   4.715   0.458 -0.0317 -0.6535 -0.7471
 5106TIP3   OH236808   4.057   1.773   0.575 -0.2052  0.2558 -0.6945
 5106TIP3    H136809   3.982   1.766   0.516 -0.5950 -0.0057 -0.1791
 5106TIP3    H236810   4.116   1.703   0.549 -0.0361  0.5957 -1.2411
 5107TIP3   OH236811   1.553   5.895  11.128  0.5462 -0.3347 -0.1636
 5107TIP3    H136812   1.508   5.968  11.171  0.4492 -0.2144 -0.4653
 5107TIP3    H236813   1.482   5.838  11.099  0.6588 -1.2132  1.2171
 5108TIP3   OH236814   4.916   0.850   5.607  0.2171 -0.3743  0.4530
 5108TIP3    H136815   4.823   0.832   5.625 -1.7047  3.2587 -3.8407
 5108TIP3    H236816   4.943   0.780   5.548 -0.5437 -0.3185  0.0242
 5109TIP3   OH236817   1.014   2.950   4.355  0.4494  0.2629 -0.4924
 5109TIP3    H136818   0.949   3.017   4.374  0.7530  0.2524  0.6363
 5109TIP3    H236819   1.062   2.939   4.437 -0.3006 -2.1196 -0.2997
 5110TIP3   OH236820   1.481   2.768  16.559  0.0058  0.4355  0.6581
 5110TIP3    H136821   1.399   2.739  16.520 -0.8406  1.6635  1.4691
 5110TIP3    H236822   1.480   2.863  16.550  0.9189  0.5397  1.4847
 5111TIP3   OH236823   5.695   4.523   3.594  0.0398  0.2674  0.1630
 5111TIP3    H136824   5.755   4.532   3.669  1.0013  1.5053 -0.7105
 5111TIP3    H236825   5.643   4.446   3.615  0.4332  0.4441  2.0022
 5112TIP3   OH236826   1.317   2.196   3.470 -0.2722  0.5329  0.3826
 5112TIP3    H136827   1.264   2.189   3.549 -2.1113 -0.7883 -0.8830
 5112TIP3    H236828   1.370   2.116   3.468 -1.5480 -0.3346 -0.5600
 5113TIP3   OH236829   2.873   3.967   6.731  0.3850 -0.0562  0.1811
 5113TIP3    H136830   2.845   3.948   6.821  1.9096  1.5753  1.0686
 5113TIP3    H236831   2.836   3.896   6.679 -2.9932  0.4553  1.6132
 5114TIP3   OH236832   5.670   1.836  15.188 -0.1139 -0.1546  0.3760
 5114TIP3    H136833   5.693   1.799  15.102 -2.1958 -1.6857  0.4022
 5114TIP3    H236834   5.648   1.760  15.242  0.0170  0.8622  1.9230
 5115TIP3   OH236835   4.147   2.413   2.139 -0.0405 -0.0176 -0.1282
 5115TIP3    H136836   4.097   2.489   2.168 -2.2761 -1.0054 -1.1473
 5115TIP3    H236837   4.200   2.388   2.215 -1.9451  0.4327  1.4126
 5116TIP3   OH236838   5.067   0.312   2.317  0.1267 -0.0654  0.4384
 5116TIP3    H136839   5.085   0.304   2.224  0.8631  1.8709  0.3824
 5116TIP3    H236840   5.124   0.246   2.358 -0.4472 -1.1506 -0.4728
 5117TIP3   OH236841   2.916   3.268   1.681  0.1203 -0.3831  0.5146
 5117TIP3    H136842   2.903   3.230   1.594 -0.3878  1.1335 -0.1120
 5117TIP3    H236843   3.009   3.287   1.685 -0.2302  2.1261 -0.9003
 5118TIP3   OH236844   3.949   3.113  15.490  0.1120  0.3322  0.5851
 5118TIP3    H136845   3.924   3.036  15.439  0.2890  0.9997 -0.5199
 5118TIP3    H236846   3.916   3.094  15.578  2.2486 -2.1032  0.9869
 5119TIP3   OH236847   1.083   1.831   5.430  0.0954  0.1284 -0.4531
 5119TIP3    H136848   1.128   1.747   5.443 -1.6978 -0.7424  0.4427
 5119TIP3    H236849   1.044   1.824   5.343  1.0911  0.6203 -0.9563
 5120TIP3   OH236850   2.946   3.157   4.581  0.3940  0.6023 -0.1928
 5120TIP3    H136851   3.027   3.167   4.531  0.5876  1.2600  0.2383
 5120TIP3    H236852   2.876   3.168   4.517  0.6324 -0.4180 -0.6530
 5121TIP3   OH236853   1.772   0.792  12.115  0.1602 -0.5556 -0.0588
 5121TIP3    H136854   1.863   0.773  12.094 -0.2158 -0.5891 -1.7421
 5121TIP3    H236855   1.722   0.719  12.077 -0.5924 -0.5222  0.8082
 5122TIP3   OH236856   1.787   5.097  16.723  0.0293 -0.7352  0.9455
 5122TIP3    H136857   1.721   5.035  16.694 -0.8859  0.6938 -0.1708
 5122TIP3    H236858   1.836   5.051  16.792 -2.3163 -1.7484  2.0252
 5123TIP3   OH236859   2.732   0.226   3.854  0.6388  0.7964  0.1823
 5123TIP3    H136860   2.799   0.159   3.836  1.2146  0.8112  2.0995
 5123TIP3    H236861   2.651   0.188   3.820  1.1106 -0.5073  0.4531
 5124TIP3   OH236862   5.181   1.079   5.281 -0.0967 -0.0044  0.2407
 5124TIP3    H136863   5.116   1.067   5.350  2.0630  0.3500  2.4909
 5124TIP3    H236864   5.194   0.991   5.246 -1.7946 -0.0646 -0.2893
 5125TIP3   OH236865   4.022   3.907  13.614  0.1087 -0.2110  0.0152
 5125TIP3    H136866   4.102   3.959  13.612  0.3348 -0.5824 -0.5548
 5125TIP3    H236867   4.016   3.868  13.527 -1.6057  1.2086 -0.5747
 5126TIP3   OH236868   4.045   3.865   0.839 -0.0072  0.2387  0.5697
 5126TIP3    H136869   4.049   3.769   0.844  0.3298  0.1484 -0.8109
 5126TIP3    H236870   3.953   3.884   0.822 -0.2896  0.2561  2.0092
 5127TIP3   OH236871   1.807   1.488   2.650  0.1841 -0.3134 -0.1361
 5127TIP3    H136872   1.839   1.526   2.731 -0.8409  0.1100  0.0818
 5127TIP3    H236873   1.869   1.418   2.631  3.0495  2.3353 -1.3761
 5128TIP3   OH236874   0.552   2.021  14.896  0.0164 -0.1015  0.4568
 5128TIP3    H136875   0.584   2.093  14.950 -1.9377  0.6782  0.6303
 5128TIP3    H236876   0.486   1.977  14.950 -0.7696 -0.3392 -0.6565
 5129TIP3   OH236877   0.688   0.850   4.315 -0.2620  0.1679  0.1685
 5129TIP3    H136878   0.759   0.821   4.373 -0.9973 -2.1559  0.0142
 5129TIP3    H236879   0.611   0.853   4.372 -0.8051 -1.2467 -0.4408
 5130TIP3   OH236880   5.276   1.987  12.589  0.0154  0.3088 -0.0476
 5130TIP3    H136881   5.287   1.900  12.629  0.4780  0.9511  1.2724
 5130TIP3    H236882   5.231   1.969  12.506  0.0673 -1.1878  0.2130
 5131TIP3   OH236883   2.871   2.833   0.719  0.2165 -0.6189 -0.7870
 5131TIP3    H136884   2.917   2.865   0.642  0.4269  1.1116  0.0179
 5131TIP3    H236885   2.904   2.744   0.731  1.8492 -0.1295 -1.3859
 5132TIP3   OH236886   2.529   3.288   5.042 -0.0559  0.2513 -0.3132
 5132TIP3    H136887   2.598   3.263   5.103  2.5386  0.7243 -2.8311
 5132TIP3    H236888   2.512   3.208   4.991 -1.4100  0.1615  0.2137
 5133TIP3   OH236889   4.576   2.576  16.405  0.5712  0.3870  0.5918
 5133TIP3    H136890   4.496   2.524  16.417 -0.4591  2.1262  1.7554
 5133TIP3    H236891   4.644   2.526  16.451  0.0816 -0.8971 -0.0320
 5134TIP3   OH236892   4.637   3.780   0.647  0.3030  0.4115  0.2920
 5134TIP3    H136893   4.606   3.864   0.612 -1.6100 -0.5379 -0.4269
 5134TIP3    H236894   4.558   3.738   0.682  1.4521 -0.5153  1.9346
 5135TIP3   OH236895   1.969   4.789  12.128 -0.6280 -0.2564  0.2987
 5135TIP3    H136896   2.029   4.802  12.201 -1.1481  0.3429  0.6244
 5135TIP3    H236897   2.025   4.758  12.057 -0.2277 -1.5800  1.1611
 5136TIP3   OH236898   1.392   2.337   2.546  0.5894 -0.1783 -0.2395
 5136TIP3    H136899   1.306   2.376   2.526  1.3984  2.1200  0.4559
 5136TIP3    H236900   1.371   2.250   2.580 -1.4282  0.0493 -0.7427
 5137TIP3   OH236901   1.458   5.271   3.697 -0.0131  0.1318 -0.1289
 5137TIP3    H136902   1.386   5.315   3.742  0.1991 -0.8013  1.1652
 5137TIP3    H236903   1.432   5.180   3.692  1.3337 -0.3494  0.9442
 5138TIP3   OH236904   1.807   3.040  11.950  0.2514 -0.3661 -0.0641
 5138TIP3    H136905   1.823   3.031  11.856  1.8515 -1.7864  0.2972
 5138TIP3    H236906   1.722   3.085  11.956  0.4490  0.3908 -2.1640
 5139TIP3   OH236907   4.670   1.896   1.397 -0.7340  0.2716 -0.2558
 5139TIP3    H136908   4.701   1.954   1.466 -2.5414  0.1734  0.6938
 5139TIP3    H236909   4.656   1.812   1.441 -2.5108  0.3771 -0.5558
 5140TIP3   OH236910   2.022   5.978  17.296  0.7717  0.2033  0.6699
 5140TIP3    H136911   2.009   6.072  17.286 -4.2148 -0.4606 -2.4412
 5140TIP3    H236912   1.982   5.957  17.380  0.3410  0.7089  0.5965
 5141TIP3   OH236913   3.486   3.207  12.943 -0.5609  0.0364 -0.0711
 5141TIP3    H136914   3.528   3.269  12.884 -1.4690 -0.2046 -1.0241
 5141TIP3    H236915   3.493   3.123  12.897  2.3308 -0.9973  2.0454
 5142TIP3   OH236916   4.639   5.216  12.070 -0.1646  0.0908  0.2190
 5142TIP3    H136917   4.545   5.215  12.054 -0.3099  0.6555  1.0051
 5142TIP3    H236918   4.648   5.199  12.163  0.6116 -1.8719 -0.1644
 5143TIP3   OH236919   4.516   1.392  17.244 -0.1143  0.4978  0.4132
 5143TIP3    H136920   4.471   1.350  17.317 -1.3395 -1.8974 -1.5639
 5143TIP3    H236921   4.458   1.463  17.217 -0.8569 -0.1414  0.2916
 5144TIP3   OH236922   1.467   5.834   1.766 -0.0091 -0.2716  0.4484
 5144TIP3    H136923   1.389   5.788   1.734  0.3392 -0.4123 -0.2281
 5144TIP3    H236924   1.436   5.884   1.842 -0.6198 -0.8059  0.5606
 5145TIP3   OH236925   1.203   6.684   4.611 -0.1206 -0.2562 -0.4686
 5145TIP3    H136926   1.169   6.601   4.576 -1.8085  0.2088 -0.0266
 5145TIP3    H236927   1.266   6.657   4.679 -1.3328 -1.2071  0.3246
 5146TIP3   OH236928   5.062   5.357  11.766 -0.4424  0.9360 -0.6640
 5146TIP3    H136929   5.097   5.274  11.734  3.3110  1.1950  2.1301
 5146TIP3    H236930   4.979   5.333  11.807  0.9225 -1.7479  0.8384
 5147TIP3   OH236931   2.206   3.937   3.025 -0.2768  0.3864 -0.1767
 5147TIP3    H136932   2.138   3.870   3.028  0.0834  0.0363  0.6547
 5147TIP3    H236933   2.272   3.901   2.966 -0.8473  0.7734 -1.0682
 5148TIP3   OH236934   0.441   2.566   2.858 -0.7886  0.3081 -0.3958
 5148TIP3    H136935   0.497   2.496   2.891  0.0291  1.4384  0.7311
 5148TIP3    H236936   0.502   2.638   2.840 -1.5460  0.5984 -1.9681
 5149TIP3   OH236937   6.707   1.971  16.962  0.0967  0.1108 -0.3186
 5149TIP3    H136938   6.646   1.935  17.026 -0.4493  2.0439  0.3206
 5149TIP3    H236939   6.793   1.952  16.998 -0.1426 -1.2415 -0.4223
 5150TIP3   OH236940   1.717   2.608  15.587  0.6987  0.2009  0.0324
 5150TIP3    H136941   1.680   2.569  15.666  0.8756  1.5282  0.8081
 5150TIP3    H236942   1.651   2.671  15.558  1.1867  0.6494 -0.1197
 5151TIP3   OH236943   0.905   2.000  11.290  0.1765  0.1077 -0.1084
 5151TIP3    H136944   0.817   1.995  11.328  0.5404  0.2831  0.7738
 5151TIP3    H236945   0.889   2.014  11.196 -0.7387 -0.4848 -0.0653
 5152TIP3   OH236946   1.895   2.684  16.856 -0.5973 -0.5029  0.4258
 5152TIP3    H136947   1.843   2.697  16.936 -2.1195  0.9175 -0.7273
 5152TIP3    H236948   1.839   2.717  16.786  0.8424 -1.3989 -1.2117
 5153TIP3   OH236949   5.351   3.255  11.069 -0.1373 -0.7008 -0.6717
 5153TIP3    H136950   5.319   3.315  11.136 -3.0329 -0.8603 -1.7312
 5153TIP3    H236951   5.378   3.312  10.997  2.9534 -0.5305  0.4980
 5154TIP3   OH236952   5.049   0.808  12.328 -0.0734  0.1958  0.3616
 5154TIP3    H136953   5.023   0.759  12.250  1.0082  0.6816 -0.3305
 5154TIP3    H236954   5.065   0.741  12.394  0.5079 -0.3263 -0.2992
 5155TIP3   OH236955   1.984   6.529   1.487 -0.0208 -0.4641 -0.1217
 5155TIP3    H136956   2.052   6.529   1.420  2.1964  0.5648  1.9989
 5155TIP3    H236957   2.029   6.504   1.568 -2.1347  0.3409  1.4013
 5156TIP3   OH236958   0.079   2.948  13.893 -0.0454  0.1387  0.0644
 5156TIP3    H136959   0.036   2.958  13.978  0.9279  1.2436  0.4719
 5156TIP3    H236960   0.021   2.892  13.842 -0.0425 -1.6335  1.8897
 5157TIP3   OH236961   4.052   5.151   1.829  0.2761  0.4160  0.0837
 5157TIP3    H136962   3.971   5.152   1.879  0.4955  1.4969  0.4294
 5157TIP3    H236963   4.119   5.184   1.890  0.8166  0.3325 -0.4546
 5158TIP3   OH236964   3.605   4.661   1.727  0.5508 -0.5616 -0.2266
 5158TIP3    H136965   3.699   4.671   1.713  0.5123 -0.2706 -0.2936
 5158TIP3    H236966   3.566   4.692   1.645  0.4139 -1.1483 -0.3868
 5159TIP3   OH236967   5.943   0.912   2.983  0.0378 -0.0255 -0.3894
 5159TIP3    H136968   5.999   0.975   2.938  1.4107 -1.1902 -0.4063
 5159TIP3    H236969   5.855   0.950   2.979  0.6408  1.3538 -1.3188
 5160TIP3   OH236970   0.088   2.344  14.706 -0.4316 -0.1683 -0.0007
 5160TIP3    H136971   0.123   2.263  14.668 -2.1692 -1.1735  0.4325
 5160TIP3    H236972   0.136   2.355  14.788  0.3839 -0.3098 -0.4488
 5161TIP3   OH236973   2.606   2.995  15.125  0.1555 -0.1962  0.5058
 5161TIP3    H136974   2.590   2.979  15.032 -0.8096 -0.5034  0.7149
 5161TIP3    H236975   2.618   2.908  15.163 -1.1494 -0.1993  0.9540
 5162TIP3   OH236976   4.517   1.046   4.811 -0.2091 -0.0139  0.6702
 5162TIP3    H136977   4.595   1.103   4.814  0.8257 -1.4034  1.0195
 5162TIP3    H236978   4.498   1.036   4.718  0.5713 -0.3636  0.5440
 5163TIP3   OH236979   1.022   3.529   4.162  0.4358  0.4612 -0.1231
 5163TIP3    H136980   0.964   3.604   4.162 -0.1262  0.0404  0.4377
 5163TIP3    H236981   1.056   3.526   4.252  1.3548  0.7247 -0.4543
 5164TIP3   OH236982   0.461   0.103  11.511 -0.4994  0.3359  0.7920
 5164TIP3    H136983   0.443   0.077  11.421  0.8440 -0.0110  0.5965
 5164TIP3    H236984   0.375   0.121  11.549 -1.3443 -2.1182  0.2515
 5165TIP3   OH236985   5.720   0.497  13.142  0.2560  0.5458  0.2084
 5165TIP3    H136986   5.766   0.438  13.202 -1.4460 -1.0410  0.0469
 5165TIP3    H236987   5.772   0.577  13.142  1.2873 -0.0591  2.3936
 5166TIP3   OH236988   2.800   3.396   4.747  0.0705  0.4597  0.4111
 5166TIP3    H136989   2.732   3.382   4.682  0.7952  0.6986 -0.4153
 5166TIP3    H236990   2.846   3.474   4.718  0.8298  0.1915  0.8452
 5167TIP3   OH236991   3.405   3.767   3.099 -0.2835  0.1927  0.4821
 5167TIP3    H136992   3.469   3.753   3.029  0.7019 -0.5968  1.5083
 5167TIP3    H236993   3.384   3.679   3.130  0.1482  0.5712  1.9126
 5168TIP3   OH236994   0.199   3.651   4.837  0.1710  0.1396 -0.1091
 5168TIP3    H136995   0.126   3.638   4.897  0.6222 -0.5625  0.2929
 5168TIP3    H236996   0.269   3.686   4.891  0.3871  0.0652 -0.3401
 5169TIP3   OH236997   4.767   4.008   2.218 -0.3237 -0.0209  0.2108
 5169TIP3    H136998   4.806   3.924   2.243  3.6963  1.5878  0.0429
 5169TIP3    H236999   4.733   4.045   2.300  0.2021 -0.6808  0.7337
 5170TIP3   OH237000   3.855   4.242  14.965 -0.3155  0.0615 -0.4936
 5170TIP3    H137001   3.844   4.337  14.957 -0.0258  0.1985  0.6081
 5170TIP3    H237002   3.768   4.210  14.990 -0.1883  0.1565  0.0807
 5171TIP3   OH237003   5.526   2.992  15.796  0.4088 -0.2450 -0.0827
 5171TIP3    H137004   5.601   3.048  15.816  0.4889 -0.8566  1.4623
 5171TIP3    H237005   5.464   3.050  15.751  1.2070  0.6360 -0.0699
 5172TIP3   OH237006   2.387   4.345   5.322 -0.2518  0.1397  0.3393
 5172TIP3    H137007   2.347   4.399   5.391 -1.0616  0.8739 -0.6691
 5172TIP3    H237008   2.350   4.258   5.335  1.6050 -0.4145  2.4253
 5173TIP3   OH237009   5.972   3.715  11.493 -0.2920  0.1774  0.0057
 5173TIP3    H137010   5.954   3.806  11.467 -2.1850 -0.0904  0.2373
 5173TIP3    H237011   5.957   3.664  11.413 -0.9583 -0.0919  0.2906
 5174TIP3   OH237012   2.412   0.693  12.042  0.2348 -0.7210  0.5304
 5174TIP3    H137013   2.446   0.609  12.072 -1.3036 -1.7571 -0.4541
 5174TIP3    H237014   2.447   0.703  11.953 -0.1626 -0.6732  0.3755
 5175TIP3   OH237015   0.795   6.553   3.095  0.5185 -0.6663 -0.0179
 5175TIP3    H137016   0.795   6.472   3.146 -0.1800  0.2919  1.5833
 5175TIP3    H237017   0.866   6.605   3.132 -0.1937  0.1714  0.2019
 5176TIP3   OH237018   2.609   2.535  12.090 -0.7563 -0.2143 -0.1989
 5176TIP3    H137019   2.603   2.593  12.166 -1.7381 -1.5460  0.7927
 5176TIP3    H237020   2.539   2.471  12.104 -0.0395 -1.3190 -1.5250
 5177TIP3   OH237021   5.699   4.654  12.625 -0.1448 -0.3578 -0.1827
 5177TIP3    H137022   5.666   4.722  12.684 -0.3159 -1.0100  0.4807
 5177TIP3    H237023   5.621   4.620  12.581  0.1295  1.3083 -2.1208
 5178TIP3   OH237024   0.558   6.053  14.527 -0.6251 -0.4721  0.0371
 5178TIP3    H137025   0.633   6.109  14.505 -1.0841  0.2073  0.1632
 5178TIP3    H237026   0.533   6.013  14.444 -1.1733  0.6190 -0.3450
 5179TIP3   OH237027   0.846   2.520  12.417 -0.3920 -0.5849 -0.4225
 5179TIP3    H137028   0.778   2.515  12.484 -0.3491 -2.9771 -0.4790
 5179TIP3    H237029   0.927   2.536  12.467 -0.7024  0.2297 -0.1673
 5180TIP3   OH237030   2.706   4.431   2.121  0.2173 -0.4389 -0.3782
 5180TIP3    H137031   2.635   4.492   2.102  0.5331 -0.1592 -0.6769
 5180TIP3    H237032   2.666   4.364   2.177 -0.2868 -0.3057 -0.5729
 5181TIP3   OH237033   1.194   2.057  13.827  0.1553  0.1069 -0.8692
 5181TIP3    H137034   1.175   1.964  13.814 -0.3777  0.0402  0.2603
 5181TIP3    H237035   1.282   2.068  13.793  1.7640 -1.6708  2.2063
 5182TIP3   OH237036   4.004   0.628   5.330 -0.3578  0.3283 -0.4550
 5182TIP3    H137037   4.005   0.569   5.254 -2.2218 -0.4846  0.0954
 5182TIP3    H237038   4.072   0.593   5.388  0.8621  0.7672 -1.5534
 5183TIP3   OH237039   2.647   3.126   1.235  0.0548 -0.8484  0.2365
 5183TIP3    H137040   2.622   3.035   1.219 -0.0291 -0.3858 -3.0074
 5183TIP3    H237041   2.663   3.162   1.148 -1.6837  2.7516  1.2132
 5184TIP3   OH237042   2.249   2.871  17.007 -0.0734  0.4665 -0.2613
 5184TIP3    H137043   2.328   2.876  17.061  0.3875  0.6269 -0.9358
 5184TIP3    H237044   2.216   2.961  17.005 -0.4489  0.3425  0.2730
 5185TIP3   OH237045   0.402   4.203  15.527 -0.0172  0.3175 -0.1505
 5185TIP3    H137046   0.379   4.151  15.605  1.4829  1.0846  0.8374
 5185TIP3    H237047   0.379   4.146  15.454  0.3153 -1.2197  0.8843
 5186TIP3   OH237048   5.823   5.006  15.708 -0.5079 -0.3156  0.4361
 5186TIP3    H137049   5.891   5.073  15.700 -2.1052  1.4862  1.4488
 5186TIP3    H237050   5.831   4.975  15.798 -2.2769  1.3600  1.2184
 5187TIP3   OH237051   0.970   0.565  15.807 -0.2918 -0.0770  0.3153
 5187TIP3    H137052   0.876   0.545  15.814 -1.4928  3.0949 -3.1968
 5187TIP3    H237053   0.979   0.651  15.848  1.2871 -0.6631  1.2583
 5188TIP3   OH237054   3.067   2.814  15.317 -0.3430  0.3505 -0.0106
 5188TIP3    H137055   3.095   2.827  15.407 -0.1789 -1.4669  0.2313
 5188TIP3    H237056   3.086   2.898  15.274 -2.4457  2.0343  2.0797
 5189TIP3   OH237057   3.250   4.846  14.556  0.0606 -0.0252 -0.5695
 5189TIP3    H137058   3.202   4.774  14.597  2.9190 -2.5785 -1.3135
 5189TIP3    H237059   3.303   4.883  14.627 -2.0961  2.1294  0.0299
 5190TIP3   OH237060   1.803   3.553  15.392  0.4881  0.2192  0.1205
 5190TIP3    H137061   1.864   3.623  15.416  0.5201  0.3505 -0.3429
 5190TIP3    H237062   1.798   3.556  15.297  0.5872 -0.4958  0.0839
 5191TIP3   OH237063   2.505   2.553   3.438 -0.0454  0.1623  0.7709
 5191TIP3    H137064   2.565   2.603   3.383 -0.8685  1.3900  0.9519
 5191TIP3    H237065   2.525   2.461   3.418 -0.0720  0.5519 -1.3148
 5192TIP3   OH237066   1.468   1.015   1.938 -0.1187  0.3767 -0.4483
 5192TIP3    H137067   1.457   0.991   2.030 -0.3313  0.2694 -0.5041
 5192TIP3    H237068   1.423   1.099   1.930  2.5348  2.0128  0.3073
 5193TIP3   OH237069   4.343   3.677   3.485 -0.2588  0.0600 -0.0774
 5193TIP3    H137070   4.266   3.634   3.450 -0.1034 -0.1643 -0.1415
 5193TIP3    H237071   4.417   3.633   3.444 -0.1222  1.1824 -1.0826
 5194TIP3   OH237072   0.878   4.299  15.525 -0.4155  0.9543  0.1205
 5194TIP3    H137073   0.956   4.285  15.472 -0.2617 -1.8799  0.9080
 5194TIP3    H237074   0.906   4.355  15.597  0.9051  0.1219  0.2850
 5195TIP3   OH237075   2.374   1.067  15.592 -0.0451  0.4127  0.1195
 5195TIP3    H137076   2.428   0.988  15.589  1.3537  1.0475  3.2822
 5195TIP3    H237077   2.291   1.038  15.630 -0.2780  0.1649 -0.5672
 5196TIP3   OH237078   0.115   4.637  14.265 -0.0249  1.0727 -0.3325
 5196TIP3    H137079   0.126   4.696  14.190  1.6241  1.4960  0.2084
 5196TIP3    H237080   0.200   4.593  14.275 -1.0627 -1.0816 -0.4207
 5197TIP3   OH237081   4.412   4.559  16.946 -0.3233 -0.5073  0.4164
 5197TIP3    H137082   4.486   4.618  16.934  0.1621 -0.9377  1.2493
 5197TIP3    H237083   4.366   4.594  17.022  0.5068 -1.7315  1.5075
 5198TIP3   OH237084   0.135   4.299   5.475 -0.4525 -0.3889 -0.6524
 5198TIP3    H137085   0.100   4.378   5.435 -0.3244 -0.6812 -1.3739
 5198TIP3    H237086   0.063   4.237   5.473 -0.1429 -0.7444 -1.4298
 5199TIP3   OH237087   2.508   2.337  12.731  0.8498 -0.2795 -0.4268
 5199TIP3    H137088   2.588   2.324  12.782  2.0494  2.5823 -1.3791
 5199TIP3    H237089   2.509   2.429  12.707 -3.6477  0.3645  0.9299
 5200TIP3   OH237090   5.835   0.941   0.805 -0.7647 -0.2097  0.0751
 5200TIP3    H137091   5.814   1.029   0.773 -2.1764  0.1799  1.8804
 5200TIP3    H237092   5.893   0.956   0.880 -0.1120 -0.8969 -0.2790
 5201TIP3   OH237093   6.128   5.664  11.789 -0.4990 -0.3520 -0.3908
 5201TIP3    H137094   6.210   5.631  11.753 -0.0293  1.7364 -1.4274
 5201TIP3    H237095   6.071   5.677  11.712 -1.3587 -0.6247  0.1850
 5202TIP3   OH237096   0.890   4.001   4.889  0.1048 -0.0892  0.0248
 5202TIP3    H137097   0.905   4.089   4.853 -0.3894 -0.0145 -0.0079
 5202TIP3    H237098   0.951   3.945   4.841  0.9600  0.3463  0.5636
 5203TIP3   OH237099   5.665   2.157  13.055 -0.3301 -0.0096 -0.5832
 5203TIP3    H137100   5.756   2.151  13.082  0.0239  1.0540 -1.4859
 5203TIP3    H237101   5.659   2.102  12.977 -1.0110 -1.8739  0.6945
 5204TIP3   OH237102   3.911   2.607  11.887  0.4413  0.1088  0.3229
 5204TIP3    H137103   3.904   2.632  11.795 -0.7898 -0.0194  0.3577
 5204TIP3    H237104   3.977   2.539  11.889 -0.1672 -0.5306 -0.6198
 5205TIP3   OH237105   4.326   0.951  10.951 -0.2738 -0.2467  0.1827
 5205TIP3    H137106   4.279   0.876  10.987 -1.2318  0.1576 -0.1864
 5205TIP3    H237107   4.367   0.918  10.871 -0.0600 -0.5655  0.4243
 5206TIP3   OH237108   4.818   6.593   1.996 -0.3299  0.2528 -0.1840
 5206TIP3    H137109   4.865   6.529   2.048 -0.2003  0.5104  0.0200
 5206TIP3    H237110   4.869   6.601   1.915  1.2592  2.1669  0.9241
 5207TIP3   OH237111   6.582   6.601  11.695 -0.0973 -0.0214  0.0597
 5207TIP3    H137112   6.536   6.538  11.641  0.5959  0.3959 -1.0560
 5207TIP3    H237113   6.672   6.567  11.700  0.4387  1.1437 -1.0569
 5208TIP3   OH237114   4.467   2.950   5.641  0.5342  0.9741  0.1222
 5208TIP3    H137115   4.555   2.914   5.630  0.5483  1.1114 -0.2597
 5208TIP3    H237116   4.475   3.012   5.713  0.5917  0.4868  0.5382
 5209TIP3   OH237117   2.917   1.754  15.109  0.2154  0.5325  0.2736
 5209TIP3    H137118   2.923   1.719  15.020  1.5073 -0.1940  0.6194
 5209TIP3    H237119   2.995   1.809  15.119 -0.5746  1.6588  0.5483
 5210TIP3   OH237120   5.971   5.657   2.509 -0.3025 -0.5745 -0.3649
 5210TIP3    H137121   6.028   5.724   2.546 -0.0298 -0.9875 -0.0129
 5210TIP3    H237122   5.980   5.666   2.414  0.1498 -0.4642 -0.3130
 5211TIP3   OH237123   2.459   5.683   0.380  0.2081 -0.1075  0.1814
 5211TIP3    H137124   2.463   5.591   0.404  1.1255 -0.0865  0.1365
 5211TIP3    H237125   2.484   5.730   0.459  1.3625  0.0315 -0.2495
 5212TIP3   OH237126   2.904   5.114   2.382  0.2740 -0.0134 -0.3417
 5212TIP3    H137127   2.984   5.142   2.337 -0.2224  1.4282 -0.3818
 5212TIP3    H237128   2.861   5.056   2.319  0.8686 -0.1216 -0.6615
 5213TIP3   OH237129   5.677   4.034   1.022 -0.2872  0.1111  0.7064
 5213TIP3    H137130   5.607   3.994   1.074  0.1781  0.1449  1.3757
 5213TIP3    H237131   5.757   4.008   1.067  0.3469 -2.0617 -1.4782
 5214TIP3   OH237132   5.096   5.229   1.425  0.8452  0.1736 -0.5401
 5214TIP3    H137133   5.121   5.321   1.434  1.9293 -0.2144  0.7723
 5214TIP3    H237134   5.050   5.209   1.506  1.6882 -0.7451 -0.2749
 5215TIP3   OH237135   1.986   4.329   4.461 -0.0923  0.3167  0.5274
 5215TIP3    H137136   2.012   4.256   4.518  1.3408  0.4418  0.0533
 5215TIP3    H237137   1.942   4.390   4.520  1.3287  0.4289  1.5297
 5216TIP3   OH237138   1.733   1.780  11.864 -0.5559  0.7035  0.1073
 5216TIP3    H137139   1.745   1.740  11.950  0.1507 -0.0971 -0.3387
 5216TIP3    H237140   1.821   1.805  11.836 -0.5330 -0.4977 -1.0308
 5217TIP3   OH237141   5.493   6.111   2.356  0.1076  0.2876 -0.2802
 5217TIP3    H137142   5.443   6.033   2.380 -0.7310  1.5679  2.5946
 5217TIP3    H237143   5.427   6.179   2.345  1.0218  1.6201  1.9024
 5218TIP3   OH237144   0.363   2.501   5.296 -1.2160  0.2163  0.3752
 5218TIP3    H137145   0.311   2.427   5.326 -0.1888 -0.8031 -0.2615
 5218TIP3    H237146   0.389   2.477   5.207  2.1256 -0.3787  1.3766
 5219TIP3   OH237147   0.533   6.114  11.253  0.2755 -0.4989  0.0087
 5219TIP3    H137148   0.558   6.136  11.342  0.8186 -1.0374 -0.0065
 5219TIP3    H237149   0.545   6.019  11.247 -0.3239 -0.5541 -0.4597
 5220TIP3   OH237150   5.690   4.137  12.294  0.4032 -0.4464 -0.7482
 5220TIP3    H137151   5.706   4.162  12.385  0.8229  1.0393 -1.1931
 5220TIP3    H237152   5.777   4.112  12.261  0.1604 -1.5044 -0.6003
 5221TIP3   OH237153   1.255   6.511   2.176  0.3848  0.0520 -0.0854
 5221TIP3    H137154   1.161   6.512   2.163  0.5042 -3.5000 -2.5371
 5221TIP3    H237155   1.271   6.437   2.235  1.6710  0.1952 -0.2218
 5222TIP3   OH237156   4.560   1.373  11.076  0.7915 -0.3249 -0.1130
 5222TIP3    H137157   4.655   1.374  11.061  0.9725 -1.6367  0.7400
 5222TIP3    H237158   4.551   1.373  11.171 -0.0688 -0.2297 -0.1848
 5223TIP3   OH237159   1.393   3.321  13.545 -0.2344  0.2246 -0.0811
 5223TIP3    H137160   1.347   3.277  13.617 -0.8422 -0.4830 -0.8765
 5223TIP3    H237161   1.399   3.412  13.572 -2.2922  0.3929 -0.0238
 5224TIP3   OH237162   6.202   6.693   4.091 -0.1419  0.1227  0.2989
 5224TIP3    H137163   6.179   6.715   4.181 -1.1704  0.5402 -0.0541
 5224TIP3    H237164   6.243   6.607   4.097 -0.8673 -0.1757  1.0798
 5225TIP3   OH237165   2.434   0.172   4.500  0.3437 -0.4655  0.0758
 5225TIP3    H137166   2.472   0.240   4.555 -1.4704  1.4799 -0.9266
 5225TIP3    H237167   2.351   0.151   4.543  0.4141 -1.3206 -0.1922
 5226TIP3   OH237168   1.483   4.912  17.189  0.4223 -0.2220 -0.1131
 5226TIP3    H137169   1.512   4.862  17.265  0.6221 -0.0983 -0.1070
 5226TIP3    H237170   1.395   4.880  17.171  0.2756 -0.0731  0.3264
 5227TIP3   OH237171   5.047   2.599  14.576 -0.2980 -0.2768 -0.0584
 5227TIP3    H137172   5.094   2.564  14.500  0.1765  0.3449 -0.0541
 5227TIP3    H237173   4.993   2.670  14.540  0.4371  0.4669  0.2857
 5228TIP3   OH237174   1.837   3.828   3.287 -0.3427  0.4193  0.6688
 5228TIP3    H137175   1.814   3.861   3.374 -3.5844 -1.2908  0.6136
 5228TIP3    H237176   1.880   3.744   3.304  0.3636  0.7555  0.6026
 5229TIP3   OH237177   6.562   6.330   2.736  0.2083 -0.0050  0.0034
 5229TIP3    H137178   6.509   6.314   2.814 -1.0639  1.6755 -0.4498
 5229TIP3    H237179   6.637   6.381   2.769  0.5015 -0.6544  0.3534
 5230TIP3   OH237180   2.477   3.034   5.420  0.5471  0.3230  0.5743
 5230TIP3    H137181   2.504   2.985   5.497 -0.6174 -0.2123  0.6606
 5230TIP3    H237182   2.493   2.975   5.346  0.2286  0.2521  0.5612
 5231TIP3   OH237183   0.839   5.644   5.248  0.0450 -0.2727 -0.0618
 5231TIP3    H137184   0.849   5.553   5.220 -2.1807  0.1342 -2.4833
 5231TIP3    H237185   0.922   5.686   5.225  0.2574 -1.1870 -1.0097
 5232TIP3   OH237186   0.728   2.621  14.473 -0.2872  0.0469  0.1810
 5232TIP3    H137187   0.711   2.642  14.381 -1.8428 -0.6321  0.2802
 5232TIP3    H237188   0.641   2.619  14.513  0.4313  1.5239  1.9504
 5233TIP3   OH237189   4.934   4.778   0.957 -0.4122 -0.5358  0.0926
 5233TIP3    H137190   4.949   4.683   0.964  0.5834 -0.4104 -0.1718
 5233TIP3    H237191   4.850   4.792   1.000 -0.9015 -1.6357 -0.4401
 5234TIP3   OH237192   4.500   3.868   2.611 -0.4493 -0.2027 -0.1790
 5234TIP3    H137193   4.521   3.899   2.523  0.2830 -2.1307 -0.7552
 5234TIP3    H237194   4.450   3.788   2.596  1.7060 -1.8933  1.0584
 5235TIP3   OH237195   5.589   5.364  13.471 -0.0877 -0.7194  0.2228
 5235TIP3    H137196   5.576   5.269  13.467 -0.9965 -0.7235  2.3163
 5235TIP3    H237197   5.594   5.384  13.564 -1.8177  1.5548 -0.0990
 5236TIP3   OH237198   4.591   4.641  11.965 -0.0051 -0.0182 -0.4275
 5236TIP3    H137199   4.496   4.647  11.962  0.0442  0.5313 -1.8429
 5236TIP3    H237200   4.610   4.548  11.955 -0.3922 -0.1338 -0.0950
 5237TIP3   OH237201   1.530   5.237  16.515  0.3439 -0.0776  0.1575
 5237TIP3    H137202   1.464   5.168  16.506  0.3989  0.1114 -2.4555
 5237TIP3    H237203   1.591   5.221  16.443  1.8923  1.1157  1.1458
 5238TIP3   OH237204   2.679   2.091   0.527 -0.5345  0.2843 -0.0647
 5238TIP3    H137205   2.664   2.007   0.570  0.8075 -0.3648 -0.8002
 5238TIP3    H237206   2.766   2.083   0.487 -1.0534  1.4182 -1.5529
 5239TIP3   OH237207   3.834   4.961  13.059 -0.3371  0.4120  0.5022
 5239TIP3    H137208   3.902   4.983  12.994 -0.5078  0.8089  0.4505
 5239TIP3    H237209   3.882   4.925  13.133 -0.1951 -0.7048 -0.1124
 5240TIP3   OH237210   3.715   0.502  15.029  0.0541  0.1302  0.4384
 5240TIP3    H137211   3.634   0.553  15.023  0.7633  1.1275 -2.3229
 5240TIP3    H237212   3.708   0.438  14.958  3.2364  2.8754 -2.7795
 5241TIP3   OH237213   4.824   5.962  14.783  0.2679 -0.1624 -0.8796
 5241TIP3    H137214   4.881   5.886  14.767  0.7152  0.1671 -0.8766
 5241TIP3    H237215   4.816   6.005  14.697  0.3530  0.0160 -0.7993
 5242TIP3   OH237216   6.325   2.981   3.650 -0.5325 -0.2975 -0.1914
 5242TIP3    H137217   6.339   3.063   3.603 -0.1185 -1.0695 -1.4645
 5242TIP3    H237218   6.256   3.001   3.713  0.6053  1.4369  0.6096
 5243TIP3   OH237219   3.990   3.595   6.568 -0.3644 -0.4207  0.6129
 5243TIP3    H137220   4.066   3.592   6.511 -0.3565 -0.6030  0.6342
 5243TIP3    H237221   3.926   3.536   6.528 -0.2100 -0.8666  1.0083
 5244TIP3   OH237222   0.267   5.413  16.447 -0.3012  0.2987 -0.6506
 5244TIP3    H137223   0.344   5.367  16.412  0.9824  0.5030  1.6735
 5244TIP3    H237224   0.300   5.499  16.472 -1.3838  0.5391  0.0235
 5245TIP3   OH237225   1.794   4.848  10.602 -0.0232 -0.2735  0.1416
 5245TIP3    H137226   1.740   4.812  10.531 -0.7372 -1.1251  1.0740
 5245TIP3    H237227   1.734   4.855  10.676  0.9668 -0.4814  0.9848
 5246TIP3   OH237228   1.391   0.183   5.798 -0.4183  0.1879  0.0354
 5246TIP3    H137229   1.396   0.226   5.884 -1.3174  0.4198 -0.0198
 5246TIP3    H237230   1.474   0.204   5.756 -0.5244  1.2291  0.3159
 5247TIP3   OH237231   4.189   1.444  13.010 -0.3429  0.5220 -0.3114
 5247TIP3    H137232   4.219   1.462  13.099  0.7673 -1.8921 -0.1196
 5247TIP3    H237233   4.261   1.472  12.953  1.2224 -2.5879 -0.0379
 5248TIP3   OH237234   2.353   1.029  11.409  0.0222  0.1816 -0.1037
 5248TIP3    H137235   2.303   1.109  11.422 -1.0447 -0.0535 -2.3701
 5248TIP3    H237236   2.422   1.054  11.348  0.2621 -0.4145 -0.0792
 5249TIP3   OH237237   4.331   2.684   1.931 -0.2577 -0.3385 -0.7543
 5249TIP3    H137238   4.243   2.721   1.936  0.0479  0.4433 -1.1652
 5249TIP3    H237239   4.380   2.743   1.875  0.9057 -0.0318  0.5157
 5250TIP3   OH237240   4.753   3.176   5.570  0.2211 -0.3982  0.3767
 5250TIP3    H137241   4.828   3.213   5.525 -0.1871 -1.0502 -0.9037
 5250TIP3    H237242   4.716   3.114   5.507 -1.0853 -0.4575  1.1640
 5251TIP3   OH237243   5.070   2.777   3.336  0.1875  0.1602 -0.4081
 5251TIP3    H137244   5.121   2.721   3.395  0.5116  1.1387  0.2787
 5251TIP3    H237245   5.135   2.817   3.279 -0.0620 -0.2887 -1.0151
 5252TIP3   OH237246   2.987   2.442  12.420  0.1946 -0.0866 -0.1749
 5252TIP3    H137247   2.942   2.363  12.390  0.8848 -0.1967 -0.9813
 5252TIP3    H237248   3.075   2.435  12.382  0.5742  0.5980  0.5495
 5253TIP3   OH237249   1.636   4.619  10.434 -0.3468  0.0780  0.1694
 5253TIP3    H137250   1.565   4.622  10.498 -0.7272  0.0867 -0.2474
 5253TIP3    H237251   1.643   4.526  10.409 -0.7931  0.2001 -0.4278
 5254TIP3   OH237252   5.201   5.386  15.116 -1.2858  0.1083  0.2972
 5254TIP3    H137253   5.273   5.357  15.172 -2.7501  0.1054  2.3110
 5254TIP3    H237254   5.174   5.470  15.152 -0.7900  1.3032 -1.9321
 5255TIP3   OH237255   1.973   6.690   4.475  0.0427 -0.9347 -0.3476
 5255TIP3    H137256   1.908   6.747   4.516  1.2962  1.6450 -1.7186
 5255TIP3    H237257   2.052   6.744   4.467  1.5300 -3.0608 -1.2484
 5256TIP3   OH237258   4.054   6.591  16.302 -0.0978 -0.5169  0.5134
 5256TIP3    H137259   4.007   6.674  16.292  1.2077  0.4530  1.9337
 5256TIP3    H237260   3.985   6.525  16.309 -1.1731  0.4707 -0.3785
 5257TIP3   OH237261   0.900   2.033  13.461 -0.6430 -0.0047  0.1303
 5257TIP3    H137262   0.820   2.054  13.508 -0.5911  0.1387  0.1577
 5257TIP3    H237263   0.940   2.118  13.442  0.4916 -0.1006  1.8399
 5258TIP3   OH237264   4.520   3.765  14.994 -0.2605 -0.3433 -0.0014
 5258TIP3    H137265   4.615   3.755  14.990 -0.1719  0.7146 -1.2660
 5258TIP3    H237266   4.491   3.693  15.050  1.4135  0.2234  1.7383
 5259TIP3   OH237267   0.024   0.709   3.342 -0.4021 -0.3258 -0.1838
 5259TIP3    H137268   0.032   0.727   3.435  0.2195 -1.1288 -0.0708
 5259TIP3    H237269   0.112   0.718   3.307 -0.5125 -0.6690 -0.5710
 5260TIP3   OH237270   0.422   0.973  13.842 -0.2111 -0.4305 -0.5640
 5260TIP3    H137271   0.439   1.014  13.757 -1.3042  0.9532 -0.1430
 5260TIP3    H237272   0.356   0.906  13.823  0.5469 -1.0602 -1.0203
 5261TIP3   OH237273   2.242   4.020   4.400  0.3786  0.3572  0.0808
 5261TIP3    H137274   2.291   3.961   4.458  0.5629  0.5086  0.0793
 5261TIP3    H237275   2.182   4.066   4.459 -0.3110 -0.3882 -0.0267
 5262TIP3   OH237276   1.804   4.555  13.007  0.4972  0.2553  0.3630
 5262TIP3    H137277   1.899   4.565  13.001  0.2277  2.4258 -1.4491
 5262TIP3    H237278   1.788   4.529  13.098  2.7594  0.4729  0.8755
 5263TIP3   OH237279   3.758   5.770  12.455  0.3470  0.2743  0.1769
 5263TIP3    H137280   3.693   5.768  12.525  0.1782 -3.3443  0.1278
 5263TIP3    H237281   3.830   5.822  12.489 -0.7947  0.7538  1.9865
 5264TIP3   OH237282   3.641   0.593  13.139  0.0984  0.5692 -0.1941
 5264TIP3    H137283   3.669   0.677  13.103  1.1477  0.5765  0.5669
 5264TIP3    H237284   3.611   0.542  13.064  0.2748  1.3148 -0.7752
 5265TIP3   OH237285   3.147   2.500  11.673 -0.6634  0.2917 -0.3402
 5265TIP3    H137286   3.080   2.550  11.625  0.5036  1.3438 -0.9498
 5265TIP3    H237287   3.206   2.567  11.707  0.5201 -0.6419 -0.4924
 5266TIP3   OH237288   4.296   1.455  10.714  0.1936  0.0675 -0.2511
 5266TIP3    H137289   4.307   1.456  10.809 -0.4950 -0.0165 -0.1658
 5266TIP3    H237290   4.381   1.426  10.680 -0.0843 -1.6505  0.4236
 5267TIP3   OH237291   1.123   1.411   5.771 -0.3783  0.5191 -0.3034
 5267TIP3    H137292   1.146   1.495   5.731 -0.5246  1.7466  2.0468
 5267TIP3    H237293   1.031   1.421   5.797 -0.6149 -0.6547 -0.6489
 5268TIP3   OH237294   1.877   5.198  10.421  0.0925 -0.5583 -0.1723
 5268TIP3    H137295   1.886   5.191  10.517  0.4241 -0.1878 -0.1730
 5268TIP3    H237296   1.943   5.137  10.387 -1.1812 -1.9787 -0.1700
 5269TIP3   OH237297   5.153   2.018  16.593  0.8819 -0.3762 -0.0251
 5269TIP3    H137298   5.190   2.106  16.583  0.7326 -0.3406 -0.2720
 5269TIP3    H237299   5.186   1.969  16.518 -0.0223 -0.1826 -0.5656
 5270TIP3   OH237300   4.292   3.502   2.017 -0.2929  0.1220 -0.0898
 5270TIP3    H137301   4.256   3.574   2.068 -0.8190 -1.6992  2.2662
 5270TIP3    H237302   4.240   3.502   1.936 -1.5639  1.1852  0.6900
 5271TIP3   OH237303   6.113   4.754   1.291 -0.0804  0.3599 -0.0359
 5271TIP3    H137304   6.068   4.702   1.223  0.7565  1.6623 -1.6669
 5271TIP3    H237305   6.134   4.836   1.247  1.9147  0.6423  1.3537
 5272TIP3   OH237306   5.516   3.911  16.918  0.3518  0.2183 -0.4566
 5272TIP3    H137307   5.425   3.893  16.939 -0.0328  1.3315 -1.0731
 5272TIP3    H237308   5.512   3.982  16.854  1.6187 -0.3659 -1.2131
 5273TIP3   OH237309   3.160   6.191   5.184  0.2157  0.1439 -0.0339
 5273TIP3    H137310   3.076   6.146   5.196  0.7652 -0.4313  1.8958
 5273TIP3    H237311   3.143   6.281   5.212 -0.0705  0.3745 -0.9059
 5274TIP3   OH237312   4.001   6.030  11.055 -0.0894 -0.2856 -0.4890
 5274TIP3    H137313   3.986   5.949  11.105  0.0230  0.3613  0.6198
 5274TIP3    H237314   4.096   6.035  11.045 -0.0973 -0.2981 -0.5730
 5275TIP3   OH237315   4.538   4.668   1.260 -0.3400 -0.1854  0.0624
 5275TIP3    H137316   4.547   4.573   1.274 -0.5163 -0.2971 -0.5888
 5275TIP3    H237317   4.587   4.707   1.333 -2.2631 -0.7405  1.7673
 5276TIP3   OH237318   1.728   4.637   0.529  0.2691 -0.1022  0.0254
 5276TIP3    H137319   1.679   4.623   0.609  1.5195  1.5204  1.1365
 5276TIP3    H237320   1.771   4.553   0.512 -1.5364 -1.0596 -0.0989
 5277TIP3   OH237321   4.478   1.487   0.696 -0.2925  0.6945  0.4976
 5277TIP3    H137322   4.555   1.457   0.648 -0.8560 -2.4767  1.3571
 5277TIP3    H237323   4.504   1.481   0.788 -1.4889 -0.2597  0.7892
 5278TIP3   OH237324   5.044   6.728  15.949  0.0472  0.4702 -0.0218
 5278TIP3    H137325   5.094   6.691  15.876 -0.4631 -1.7790  0.7168
 5278TIP3    H237326   5.013   6.813  15.916  1.2241  0.2605 -1.7953
 5279TIP3   OH237327   2.751   5.022   3.076 -1.1127 -0.3668 -0.6093
 5279TIP3    H137328   2.678   4.964   3.054 -1.6390  0.5773 -1.4732
 5279TIP3    H237329   2.733   5.102   3.027  0.4032 -0.0283 -0.6557
 5280TIP3   OH237330   0.223   3.144  14.643 -0.0214  0.0535 -0.1009
 5280TIP3    H137331   0.203   3.051  14.635  0.5379 -0.2303  1.3689
 5280TIP3    H237332   0.308   3.154  14.602 -0.3530  0.0401 -0.7981
 5281TIP3   OH237333   0.073   5.916   4.749  0.7847 -0.0500  0.6872
 5281TIP3    H137334   0.123   5.969   4.811  2.1445 -1.6039  0.9977
 5281TIP3    H237335   0.072   5.829   4.788 -0.5325 -0.5081 -0.2846
 5282TIP3   OH237336   5.449   3.460   5.528 -0.2577 -0.7193 -0.3429
 5282TIP3    H137337   5.428   3.367   5.526  1.3732 -1.2451  2.5314
 5282TIP3    H237338   5.544   3.463   5.531 -0.3041  0.9690  0.8190
 5283TIP3   OH237339   2.991   1.455   0.635  0.4768  0.5864 -0.2392
 5283TIP3    H137340   2.942   1.463   0.717  2.2305 -0.6823  0.9893
 5283TIP3    H237341   3.035   1.540   0.626  0.4710  0.6483  0.2653
 5284TIP3   OH237342   3.462   4.256  14.696 -0.0948 -0.1710  0.0515
 5284TIP3    H137343   3.552   4.283  14.713  1.0627 -2.8141 -1.2681
 5284TIP3    H237344   3.451   4.267  14.602 -0.4628 -1.6125 -0.0992
 5285TIP3   OH237345   5.466   3.773   4.834 -0.3850 -0.3354  0.7136
 5285TIP3    H137346   5.497   3.857   4.798 -1.4833  0.1530  0.8635
 5285TIP3    H237347   5.453   3.790   4.927  1.5715 -1.3485  1.2418
 5286TIP3   OH237348   2.993   2.887   5.300 -0.2160 -0.1656  0.5328
 5286TIP3    H137349   2.909   2.901   5.257 -0.7101  1.1206  1.8297
 5286TIP3    H237350   3.051   2.953   5.262 -0.5182  0.6451  1.4416
 5287TIP3   OH237351   5.861   2.016   1.503 -0.0612  0.0017  0.4403
 5287TIP3    H137352   5.909   1.933   1.504  1.0553  0.6341  0.3094
 5287TIP3    H237353   5.771   1.991   1.479  0.0573 -1.2601  1.2054
 5288TIP3   OH237354   4.198   5.113   4.027 -0.3024  0.2584 -0.0649
 5288TIP3    H137355   4.283   5.099   4.068 -0.7219  2.0819  1.5435
 5288TIP3    H237356   4.214   5.099   3.933  1.8272  0.8650  0.1673
 5289TIP3   OH237357   3.595   4.692  14.727  0.4575  0.0204  0.1478
 5289TIP3    H137358   3.626   4.699  14.637  1.7490  0.8898  0.6340
 5289TIP3    H237359   3.519   4.751  14.731  0.7219  0.3926 -0.2336
 5290TIP3   OH237360   0.050   5.875  16.940  0.0446  0.1793 -0.0951
 5290TIP3    H137361   0.019   5.811  17.004  0.5743 -0.9131 -0.8938
 5290TIP3    H237362   0.037   5.832  16.856  3.5299 -0.2930 -0.5220
 5291TIP3   OH237363   1.101   2.836   1.475  0.7230 -0.3312 -0.5109
 5291TIP3    H137364   1.038   2.772   1.441  1.9507 -1.2050 -1.1888
 5291TIP3    H237365   1.187   2.802   1.450  1.6051 -0.0507  1.8795
 5292TIP3   OH237366   2.555   2.971  14.399  0.1775 -0.2591 -0.0966
 5292TIP3    H137367   2.586   3.035  14.335  0.7777  0.4633  0.8972
 5292TIP3    H237368   2.489   3.018  14.450 -2.2470 -1.5901 -1.7884
 5293TIP3   OH237369   3.765   3.363  14.943 -0.8652 -0.9024 -0.3281
 5293TIP3    H137370   3.705   3.412  15.000 -0.1075  0.1199 -0.3856
 5293TIP3    H237371   3.784   3.282  14.991 -0.9690 -0.4778  0.4466
 5294TIP3   OH237372   5.628   0.447  10.823 -0.3936  0.3968 -0.0118
 5294TIP3    H137373   5.591   0.535  10.818 -1.2029  0.2691  2.3305
 5294TIP3    H237374   5.721   0.461  10.838 -0.4418  0.8392 -0.1023
 5295TIP3   OH237375   5.132   4.414   1.516 -0.8509 -0.0734 -0.0416
 5295TIP3    H137376   5.135   4.500   1.558  0.1046 -0.5541  0.9306
 5295TIP3    H237377   5.178   4.427   1.433  2.0450 -0.2666  1.3917
 5296TIP3   OH237378   4.320   3.897  11.460 -0.1433 -0.2931 -0.1414
 5296TIP3    H137379   4.302   3.881  11.367  1.6874 -2.3595 -0.2357
 5296TIP3    H237380   4.235   3.919  11.497 -1.0492 -0.1232 -2.1767
 5297TIP3   OH237381   0.700   4.619  11.076 -0.5103 -0.0515 -0.3731
 5297TIP3    H137382   0.615   4.649  11.046 -1.9245 -1.2808  2.1244
 5297TIP3    H237383   0.747   4.597  10.996 -2.3719  1.0378 -1.8381
 5298TIP3   OH237384   5.370   2.393  12.957  0.2977 -0.3714 -0.3892
 5298TIP3    H137385   5.367   2.332  12.884 -0.3026 -1.2163  0.3307
 5298TIP3    H237386   5.281   2.426  12.965  0.2958 -0.4960  0.1364
 5299TIP3   OH237387   3.601   2.706  14.582 -0.2905 -0.9436  0.4255
 5299TIP3    H137388   3.610   2.712  14.677  0.9609 -0.7501  0.3105
 5299TIP3    H237389   3.516   2.664  14.568 -1.2504  0.5289  1.5942
 5300TIP3   OH237390   3.534   0.784  14.041  0.2582  0.0650  0.3466
 5300TIP3    H137391   3.591   0.853  14.075 -0.7471 -0.6412  3.9621
 5300TIP3    H237392   3.572   0.703  14.075  0.0880 -0.9767 -1.8117
 5301TIP3   OH237393   2.728   1.042  15.479  0.9240  0.0680 -0.0040
 5301TIP3    H137394   2.648   1.031  15.428  1.9560 -1.4224 -1.4354
 5301TIP3    H237395   2.703   1.020  15.569 -0.1252 -1.1364 -0.5600
 5302TIP3   OH237396   0.776   6.259   5.199 -0.2784 -0.1127  0.3590
 5302TIP3    H137397   0.820   6.295   5.276 -0.4277 -1.2335  0.9867
 5302TIP3    H237398   0.752   6.336   5.147  1.2933  0.5825  0.6128
 5303TIP3   OH237399   6.229   6.252  11.284 -0.0721  0.8813 -0.0925
 5303TIP3    H137400   6.235   6.289  11.372  0.4392  1.1768 -0.2453
 5303TIP3    H237401   6.303   6.191  11.279  0.3856  1.4630 -0.5864
 5304TIP3   OH237402   0.331   2.802  16.175 -0.3248 -0.5377 -0.4546
 5304TIP3    H137403   0.384   2.763  16.245  0.7637  1.1858 -0.2548
 5304TIP3    H237404   0.387   2.799  16.098 -0.5817 -0.2554 -0.6564
 5305TIP3   OH237405   4.246   2.123   5.133  0.3122  0.2752 -0.3327
 5305TIP3    H137406   4.320   2.064   5.119  3.0262  3.5871 -0.9648
 5305TIP3    H237407   4.227   2.159   5.046 -1.5752  0.1525 -0.0324
 5306TIP3   OH237408   2.035   2.631   3.281 -0.0832  0.1662  0.4868
 5306TIP3    H137409   1.939   2.636   3.281 -0.0904  0.1138  1.3001
 5306TIP3    H237410   2.055   2.569   3.211 -0.4602  2.9003 -2.2544
 5307TIP3   OH237411   4.104   2.185  15.899  0.1213  0.5204 -0.0753
 5307TIP3    H137412   4.105   2.268  15.851 -0.5866  0.7668  0.3141
 5307TIP3    H237413   4.033   2.135  15.860 -0.3900  0.6807  0.6300
 5308TIP3   OH237414   5.695   1.568  16.396  0.0505 -0.1755 -0.0706
 5308TIP3    H137415   5.717   1.647  16.445 -0.6935 -0.8325  1.3823
 5308TIP3    H237416   5.752   1.501  16.432  1.0055 -0.2532 -1.6140
 5309TIP3   OH237417   2.501   4.128   1.637 -0.5695  0.0890 -0.5600
 5309TIP3    H137418   2.577   4.082   1.604 -0.9422 -0.5771 -0.5048
 5309TIP3    H237419   2.472   4.182   1.563 -0.4943 -0.2304 -0.8240
 5310TIP3   OH237420   0.718   2.764   0.520 -0.3149  0.6128  0.0008
 5310TIP3    H137421   0.776   2.839   0.538  1.2749 -0.1320 -1.6767
 5310TIP3    H237422   0.742   2.737   0.432 -1.4944 -1.3244  0.2345
 5311TIP3   OH237423   4.642   5.099   5.532  0.1518 -0.8944 -0.4199
 5311TIP3    H137424   4.729   5.083   5.568 -0.0465 -1.0939 -0.0224
 5311TIP3    H237425   4.648   5.068   5.441  1.2563  1.4637 -1.2327
 5312TIP3   OH237426   5.285   3.588  15.519 -0.4917 -0.0364 -0.3009
 5312TIP3    H137427   5.361   3.630  15.478 -0.7778 -0.7311 -1.6284
 5312TIP3    H237428   5.290   3.496  15.490 -0.4566 -0.6856  1.6539
 5313TIP3   OH237429   1.515   2.768  16.847  0.6637 -0.6618 -0.4127
 5313TIP3    H137430   1.575   2.838  16.874 -2.3181  1.8473  0.3516
 5313TIP3    H237431   1.525   2.762  16.752  2.9603 -1.2900 -0.1960
 5314TIP3   OH237432   2.548   6.435  12.009  0.7206 -0.0610 -0.0534
 5314TIP3    H137433   2.588   6.422  12.095  0.6206 -0.1654 -0.0231
 5314TIP3    H237434   2.611   6.489  11.961  0.0838  1.3365  0.6138
 5315TIP3   OH237435   1.055   3.098  13.012  0.2349 -0.4588  0.1914
 5315TIP3    H137436   1.037   3.101  13.106 -0.2746 -0.2706  0.0917
 5315TIP3    H237437   1.011   3.019  12.982  0.6635 -0.6898  0.1595
 5316TIP3   OH237438   2.749   4.954  12.020  0.3132  0.4851 -0.0978
 5316TIP3    H137439   2.653   4.951  12.018  0.3218  0.2738 -0.1735
 5316TIP3    H237440   2.769   5.000  12.102  0.1437  0.7092 -0.1829
 5317TIP3   OH237441   4.018   5.652   4.414 -0.0987 -0.0711  0.0890
 5317TIP3    H137442   3.954   5.670   4.482 -0.3320  0.5138 -0.2834
 5317TIP3    H237443   4.057   5.568   4.439 -1.5783 -0.8421 -0.1165
 5318TIP3   OH237444   0.200   6.692   3.814  0.3757 -0.6387  0.0913
 5318TIP3    H137445   0.221   6.633   3.742  2.8733  0.1588  0.0783
 5318TIP3    H237446   0.133   6.750   3.779  0.5569 -1.1384 -1.1243
 5319TIP3   OH237447   3.688   2.549  11.382 -0.8561 -0.2095 -0.3172
 5319TIP3    H137448   3.719   2.473  11.333 -1.5873 -0.8291  0.1619
 5319TIP3    H237449   3.685   2.520  11.473 -0.9882  0.4409 -0.1070
 5320TIP3   OH237450   6.066   1.680  16.527 -0.1272  0.3005 -0.5123
 5320TIP3    H137451   6.072   1.585  16.523  1.5658  0.2233  1.7840
 5320TIP3    H237452   6.018   1.698  16.608  1.8908  1.3512  0.5297
 5321TIP3   OH237453   6.160   5.723  16.459 -0.1353 -0.0741  0.2326
 5321TIP3    H137454   6.117   5.638  16.463  1.6365 -1.0190  0.5176
 5321TIP3    H237455   6.142   5.755  16.370  1.1157 -1.8797 -0.7404
 5322TIP3   OH237456   3.605   1.743   5.423 -0.1578  0.0029  0.5407
 5322TIP3    H137457   3.578   1.784   5.341 -1.6848 -0.7568  0.6193
 5322TIP3    H237458   3.677   1.797   5.454  1.7178 -0.7283 -2.2024
 5323TIP3   OH237459   5.033   3.065  13.091 -0.5297  0.0775 -0.0444
 5323TIP3    H137460   4.938   3.069  13.095 -0.6306 -1.0242 -0.9088
 5323TIP3    H237461   5.062   3.154  13.112 -1.7939  0.7852 -1.1456
 5324TIP3   OH237462   4.115   2.536  13.613  0.3405 -0.0848  0.0391
 5324TIP3    H137463   4.133   2.553  13.706 -0.0506 -0.4160  0.1779
 5324TIP3    H237464   4.199   2.550  13.570 -0.0391  2.7848  0.0377
 5325TIP3   OH237465   4.707   4.150   1.961 -0.4021 -0.3527 -0.2818
 5325TIP3    H137466   4.699   4.218   2.027 -0.9319 -0.0492 -0.6486
 5325TIP3    H237467   4.753   4.078   2.005  2.3048  1.0948 -0.5340
 5326TIP3   OH237468   3.017   3.387  16.455  0.1323 -0.2082 -0.2515
 5326TIP3    H137469   3.019   3.293  16.473 -3.5484 -0.6860 -1.4086
 5326TIP3    H237470   3.066   3.398  16.374  0.8071 -1.0894  0.0348
 5327TIP3   OH237471   6.233   1.130   0.553  0.1925 -0.3013  0.2576
 5327TIP3    H137472   6.304   1.070   0.530 -0.0139  0.1327 -1.6928
 5327TIP3    H237473   6.153   1.079   0.539 -0.0023  0.4680 -1.7955
 5328TIP3   OH237474   5.882   6.736   3.212  0.4931  0.0078  0.5471
 5328TIP3    H137475   5.809   6.797   3.222  1.0366  0.7793 -0.0815
 5328TIP3    H237476   5.850   6.669   3.152 -0.3862 -0.7969  1.8669
 5329TIP3   OH237477   1.675   1.814  16.004  0.6821  0.0463 -0.0498
 5329TIP3    H137478   1.593   1.771  15.981  0.2118  0.4217  0.8566
 5329TIP3    H237479   1.701   1.862  15.925  0.0110 -0.0489 -0.3303
 5330TIP3   OH237480   4.261   4.037  10.990 -0.1697 -0.1113  0.1029
 5330TIP3    H137481   4.263   4.117  10.938  1.4707 -0.0487  0.2095
 5330TIP3    H237482   4.170   4.007  10.985 -0.7682  1.6114 -0.1436
 5331TIP3   OH237483   3.220   1.527  17.137  0.1892 -0.8273  0.7784
 5331TIP3    H137484   3.198   1.613  17.102 -1.3095 -1.9699 -1.3217
 5331TIP3    H237485   3.195   1.531  17.229  2.0089  1.5466  1.2720
 5332TIP3   OH237486   1.156   1.413  12.697  0.4275 -0.1775  0.4251
 5332TIP3    H137487   1.249   1.423  12.681  0.2181  2.1829  0.3098
 5332TIP3    H237488   1.118   1.392  12.611  0.6054  1.2372 -0.0202
 5333TIP3   OH237489   2.730   5.896   2.328  0.2940 -0.1110  0.3286
 5333TIP3    H137490   2.812   5.861   2.294 -0.4125 -1.2265 -0.3000
 5333TIP3    H237491   2.690   5.822   2.374  0.5141  0.9328  2.3357
 5334TIP3   OH237492   2.345   4.089   3.949 -0.2783 -0.0833  0.2476
 5334TIP3    H137493   2.360   4.130   4.035 -0.9126  0.0943  0.2776
 5334TIP3    H237494   2.265   4.038   3.961  0.1516 -0.8176  0.0230
 5335TIP3   OH237495   5.597   6.417   0.939 -0.1929  0.7146  0.0317
 5335TIP3    H137496   5.525   6.409   0.877 -0.0329  3.0008 -0.5242
 5335TIP3    H237497   5.585   6.503   0.979  0.7300  0.0394  1.9105
 5336TIP3   OH237498   0.155   6.359   1.625  0.7811  0.3125  0.2782
 5336TIP3    H137499   0.246   6.386   1.641  1.3645 -0.9754 -0.6278
 5336TIP3    H237500   0.140   6.287   1.687  0.2877  0.6711  0.5830
 5337TIP3   OH237501   6.038   1.099   2.834 -0.3337 -0.1907 -0.4232
 5337TIP3    H137502   6.109   1.063   2.781 -1.2181 -1.3521 -0.8550
 5337TIP3    H237503   6.000   1.168   2.780 -0.0571 -0.1199 -0.5294
 5338TIP3   OH237504   5.519   3.737  16.122 -0.4859 -0.6916  0.1883
 5338TIP3    H137505   5.453   3.670  16.137 -0.0528 -1.4344 -1.0653
 5338TIP3    H237506   5.504   3.765  16.032  0.2219 -0.0927  0.2481
 5339TIP3   OH237507   0.460   0.829   4.765  0.7711  0.2611 -0.1053
 5339TIP3    H137508   0.460   0.789   4.678  2.4876  3.2875 -1.6887
 5339TIP3    H237509   0.396   0.780   4.815  1.2627 -3.0171 -2.3900
 5340TIP3   OH237510   1.036   4.866  15.585 -0.5057 -0.1679 -0.2468
 5340TIP3    H137511   0.945   4.869  15.554 -0.6658  2.1469  0.3237
 5340TIP3    H237512   1.029   4.852  15.679 -0.3694  1.6341  0.0566
 5341TIP3   OH237513   4.302   4.499  16.684  0.6190 -0.4246 -0.1395
 5341TIP3    H137514   4.208   4.483  16.694  0.5227 -1.1989 -1.9019
 5341TIP3    H237515   4.330   4.533  16.769 -1.0052 -1.3884  0.8300
 5342TIP3   OH237516   0.611   0.092   5.045  0.4807 -0.9717 -0.0090
 5342TIP3    H137517   0.592   0.185   5.058  2.7733 -0.3969 -0.4290
 5342TIP3    H237518   0.633   0.059   5.132  0.0432 -1.0414  0.0777
 5343TIP3   OH237519   5.484   5.803   0.836 -0.2245 -0.3913 -0.7601
 5343TIP3    H137520   5.464   5.736   0.902 -1.6154 -2.1613 -2.8184
 5343TIP3    H237521   5.519   5.753   0.762 -0.5509  1.2615 -2.0840
 5344TIP3   OH237522   4.896   5.832   4.863  0.1895  0.3421  0.1295
 5344TIP3    H137523   4.989   5.810   4.873  0.4090  1.2594  0.2619
 5344TIP3    H237524   4.881   5.899   4.929 -0.9890 -0.9425  1.1989
 5345TIP3   OH237525   5.048   1.148  11.567  0.0081  0.0530  0.2662
 5345TIP3    H137526   5.027   1.066  11.521  0.5323 -0.4172  0.8522
 5345TIP3    H237527   5.139   1.138  11.592  0.4339  1.3096 -0.6621
 5346TIP3   OH237528   0.081   0.885  12.234 -0.0109 -0.3520  0.3591
 5346TIP3    H137529   0.141   0.893  12.161 -1.6375  0.7198 -0.9345
 5346TIP3    H237530  -0.005   0.872  12.194 -1.1643  1.5511  1.9737
 5347TIP3   OH237531   1.055   0.690   5.115  0.0944 -0.3933 -0.1052
 5347TIP3    H137532   1.050   0.780   5.080 -0.4920 -0.6810 -0.7916
 5347TIP3    H237533   1.105   0.699   5.196  0.1052  0.5465 -0.1979
 5348TIP3   OH237534   3.933   4.708   2.008 -0.5087 -0.2024  0.2520
 5348TIP3    H137535   3.883   4.701   1.926 -0.8660  2.0957  0.2312
 5348TIP3    H237536   3.885   4.653   2.070 -0.7320 -1.2682 -0.8134
 5349TIP3   OH237537   1.168   0.132   4.861  0.2032  0.2401  0.5958
 5349TIP3    H137538   1.104   0.202   4.876  0.3089 -0.3212  4.9765
 5349TIP3    H237539   1.126   0.053   4.896  2.0294 -0.8690  0.4316
 5350TIP3   OH237540   1.863   5.037  11.276 -0.0595 -0.0728  0.4356
 5350TIP3    H137541   1.943   4.991  11.300 -0.3363 -0.1949  1.1405
 5350TIP3    H237542   1.890   5.098  11.207  0.5937 -0.2548  0.5253
 5351TIP3   OH237543   6.586   2.415   5.251  0.4955  0.3797 -0.2668
 5351TIP3    H137544   6.629   2.396   5.168  0.4283  0.7361 -0.3812
 5351TIP3    H237545   6.652   2.394   5.318  0.4815 -0.1016 -0.3968
 5352TIP3   OH237546   4.773   2.891  16.614 -0.4730 -0.0726  0.5429
 5352TIP3    H137547   4.825   2.919  16.538 -0.6515 -3.9251 -1.2127
 5352TIP3    H237548   4.809   2.806  16.638 -3.4737 -1.1232  1.7343
 5353TIP3   OH237549   0.256   4.877  12.532  0.0314 -0.6981 -0.2134
 5353TIP3    H137550   0.219   4.891  12.619  0.3291 -2.5012  0.2450
 5353TIP3    H237551   0.209   4.800  12.499  0.4650 -0.4895 -1.3283
 5354TIP3   OH237552   5.264   5.187  16.713  0.3889  0.6010  0.2541
 5354TIP3    H137553   5.279   5.117  16.649  1.6147  1.5739 -0.5627
 5354TIP3    H237554   5.242   5.140  16.794 -0.0204 -0.6856 -0.5615
 5355TIP3   OH237555   1.635   4.578  13.221 -0.3148  0.4693 -0.4942
 5355TIP3    H137556   1.614   4.570  13.314  1.0449  0.1009 -0.2036
 5355TIP3    H237557   1.612   4.493  13.183  0.7897 -0.0002 -0.1417
 5356TIP3   OH237558   2.356   3.737  11.864  0.1345  0.5371 -0.6866
 5356TIP3    H137559   2.325   3.826  11.847  0.8485  0.9978  0.2976
 5356TIP3    H237560   2.435   3.749  11.918  0.6763 -0.6701 -1.1723
 5357TIP3   OH237561   4.912   2.663  16.591  0.1910  0.3312  0.1981
 5357TIP3    H137562   4.844   2.600  16.566  0.4355  1.3944 -3.8131
 5357TIP3    H237563   4.990   2.609  16.604 -0.1459 -0.4107 -0.7644
 5358TIP3   OH237564   0.686   0.791   1.519 -0.6283  0.0647 -0.3229
 5358TIP3    H137565   0.662   0.751   1.435 -0.3765  0.1549 -0.4384
 5358TIP3    H237566   0.628   0.867   1.527 -1.2512 -0.4428 -0.0038
 5359TIP3   OH237567   4.059   2.170   4.640 -0.9192 -0.2957  0.3084
 5359TIP3    H137568   3.970   2.181   4.606 -1.2420  0.7231  1.4214
 5359TIP3    H237569   4.114   2.163   4.562 -1.6540  1.8053 -0.4728
 5360TIP3   OH237570   4.373   4.714   0.729 -0.0715 -0.4062  0.2157
 5360TIP3    H137571   4.287   4.707   0.686 -0.6989  0.6203  1.2594
 5360TIP3    H237572   4.412   4.627   0.717 -1.2774 -0.9206 -0.2103
 5361TIP3   OH237573   5.803   4.984   2.473  0.4582 -0.0480 -0.0025
 5361TIP3    H137574   5.763   4.932   2.403 -0.8228  0.5028  0.2856
 5361TIP3    H237575   5.895   4.956   2.474  0.4271 -0.3493 -1.6426
 5362TIP3   OH237576   5.203   6.685  11.458 -0.5050  0.0577 -0.0232
 5362TIP3    H137577   5.144   6.760  11.460 -0.4268  0.1583 -1.2010
 5362TIP3    H237578   5.219   6.669  11.365 -1.6254 -2.2956  0.1335
 5363TIP3   OH237579   5.865   5.207   3.810 -0.8830  0.3227 -0.1394
 5363TIP3    H137580   5.801   5.265   3.769 -0.9119  0.0498 -0.4876
 5363TIP3    H237581   5.860   5.228   3.903 -0.9774  0.7952 -0.2454
 5364TIP3   OH237582   5.015   2.460   5.453  0.4560  0.7477  0.2251
 5364TIP3    H137583   5.106   2.488   5.463  0.4546  0.6668  0.4755
 5364TIP3    H237584   5.018   2.364   5.458  0.1900  0.7904  1.7536
 5365TIP3   OH237585   4.407   1.133  15.024 -0.4627  0.0342 -0.2347
 5365TIP3    H137586   4.326   1.185  15.023 -0.3125  0.3764  1.6019
 5365TIP3    H237587   4.451   1.160  15.104  1.9329  0.5170 -1.6258
 5366TIP3   OH237588   6.157   4.046   2.780 -0.0650  0.4387 -0.3545
 5366TIP3    H137589   6.166   3.994   2.700  0.1808 -0.3301  0.1646
 5366TIP3    H237590   6.068   4.082   2.775  0.4093  1.5336 -1.6316
 5367TIP3   OH237591   5.351   0.889  12.097 -0.3829 -0.7778  0.0456
 5367TIP3    H137592   5.281   0.897  12.032  0.0878  0.9471 -0.3132
 5367TIP3    H237593   5.308   0.852  12.174 -1.5096 -0.5216 -0.4376
 5368TIP3   OH237594   5.234   4.389   3.974  0.2664  0.2617 -1.0235
 5368TIP3    H137595   5.235   4.428   4.062  0.4971  0.6825 -1.2057
 5368TIP3    H237596   5.295   4.444   3.924  0.2519 -0.0707 -1.4055
 5369TIP3   OH237597   0.726   3.884   1.116  0.3424 -0.6283  0.2265
 5369TIP3    H137598   0.786   3.945   1.072 -0.9870  0.8844  0.4359
 5369TIP3    H237599   0.732   3.803   1.064  0.6409  0.3195 -1.2842
 5370TIP3   OH237600   1.409   1.071  12.032  0.3212  0.1839  0.1194
 5370TIP3    H137601   1.350   1.006  12.070  0.5024 -0.1997 -0.2522
 5370TIP3    H237602   1.412   1.141  12.097 -1.6716  0.8893 -0.4651
 5371TIP3   OH237603   5.823   4.399  12.503  0.5223  0.6566 -0.2019
 5371TIP3    H137604   5.791   4.472  12.556  0.4207  2.1098 -2.1554
 5371TIP3    H237605   5.777   4.322  12.537 -1.6510  1.9735  0.0216
 5372TIP3   OH237606   0.536   4.366   4.169  0.7669  0.4133 -0.1802
 5372TIP3    H137607   0.527   4.278   4.131  0.9928  0.3768 -0.1499
 5372TIP3    H237608   0.540   4.351   4.263 -0.1127  0.5285 -0.1117
 5373TIP3   OH237609   1.639   1.462  15.847  0.0407 -0.2655 -0.1135
 5373TIP3    H137610   1.717   1.488  15.797 -0.8679 -1.0802 -2.0809
 5373TIP3    H237611   1.646   1.366  15.853 -0.5007 -0.2888  0.2372
 5374TIP3   OH237612   6.680   5.159   4.571  0.5200 -0.5220  0.2405
 5374TIP3    H137613   6.633   5.213   4.507  1.4129  1.9052  1.5021
 5374TIP3    H237614   6.771   5.165   4.544  0.7363 -0.6703  0.9352
 5375TIP3   OH237615   4.397   6.071  14.523  0.1871  0.4979 -0.0264
 5375TIP3    H137616   4.305   6.064  14.498 -0.1635  2.3727  0.5232
 5375TIP3    H237617   4.408   6.007  14.593 -1.5974  2.3579  2.1023
 5376TIP3   OH237618   3.028   2.699  11.403 -0.0767 -0.2564  0.1225
 5376TIP3    H137619   2.947   2.711  11.452 -1.4539 -0.2461 -2.0036
 5376TIP3    H237620   3.092   2.756  11.447 -0.9778 -0.8241  2.2865
 5377TIP3   OH237621   0.120   3.323  16.180 -0.1123 -0.1173 -0.2523
 5377TIP3    H137622   0.074   3.249  16.221  1.1434 -0.0032  1.4935
 5377TIP3    H237623   0.207   3.288  16.159  0.2357  0.6517 -0.1195
 5378TIP3   OH237624   0.747   5.177  16.169  0.4909 -0.0853  0.0150
 5378TIP3    H137625   0.695   5.097  16.166 -0.0340  0.2424  0.2807
 5378TIP3    H237626   0.810   5.163  16.239 -1.1781  0.6771  1.7465
 5379TIP3   OH237627   3.327   3.452   0.450 -0.2126 -0.0431  0.4259
 5379TIP3    H137628   3.273   3.379   0.422  2.5885 -2.0620 -0.0905
 5379TIP3    H237629   3.324   3.514   0.376  1.4011 -2.0539 -1.4619
 5380TIP3   OH237630   3.709   6.257  12.040 -0.2102 -0.0671 -0.3096
 5380TIP3    H137631   3.640   6.307  12.084  0.5632  1.7032 -1.0232
 5380TIP3    H237632   3.766   6.323  12.002  0.5315 -1.5228 -1.8534
 5381TIP3   OH237633   4.846   5.580   0.455  0.8021  0.2638 -0.3217
 5381TIP3    H137634   4.771   5.534   0.492  0.4527  0.1375 -1.1477
 5381TIP3    H237635   4.807   5.652   0.405  1.3013  0.9331  0.2349
 5382TIP3   OH237636   3.377   5.916  12.390 -0.7099  0.3023  0.4362
 5382TIP3    H137637   3.451   5.927  12.330 -2.5468 -2.1081 -2.5894
 5382TIP3    H237638   3.414   5.873  12.466  0.8557 -2.6780 -1.8047
 5383TIP3   OH237639   2.490   3.902   2.487 -0.0830 -0.1337  0.0905
 5383TIP3    H137640   2.476   3.865   2.575  2.9020  0.8954  1.1228
 5383TIP3    H237641   2.465   3.994   2.496  1.0850  0.1945  0.1833
 5384TIP3   OH237642   1.842   4.934   0.963  0.1473 -0.3937 -0.0597
 5384TIP3    H137643   1.851   4.894   0.877 -0.3534  0.5502 -0.5733
 5384TIP3    H237644   1.769   4.889   1.004  0.2196 -0.6697 -0.2340
 5385TIP3   OH237645   4.861   4.510   1.347  0.0636 -0.9542  0.3856
 5385TIP3    H137646   4.840   4.592   1.392 -1.3725 -1.1695  0.1516
 5385TIP3    H237647   4.916   4.462   1.410 -2.8652 -1.7855  2.5503
 5386TIP3   OH237648   3.218   6.456  12.754  0.4032  0.1743 -0.3016
 5386TIP3    H137649   3.127   6.452  12.785  0.3704  1.2657 -0.2213
 5386TIP3    H237650   3.210   6.451  12.659  0.3814 -1.2476 -0.2600
 5387TIP3   OH237651   4.886   5.397  12.570 -0.8207 -0.4038 -0.5218
 5387TIP3    H137652   4.894   5.471  12.510 -2.3141 -1.0300 -1.5291
 5387TIP3    H237653   4.877   5.320  12.514  0.2949 -1.3364  0.5059
 5388TIP3   OH237654   1.777   1.114   1.705 -0.1534  0.2769  0.0017
 5388TIP3    H137655   1.803   1.206   1.704  0.7692  0.0498  0.7898
 5388TIP3    H237656   1.859   1.066   1.696 -0.6890 -0.4857 -1.0883
 5389TIP3   OH237657   0.010   5.960   1.252 -0.2267 -0.2815 -0.0417
 5389TIP3    H137658   0.064   6.025   1.295 -2.0034 -0.1298  2.1754
 5389TIP3    H237659   0.027   5.879   1.300  1.0843 -1.2464 -2.0160
 5390TIP3   OH237660   0.372   6.308  14.567  0.5069 -0.2315  0.0440
 5390TIP3    H137661   0.310   6.259  14.620  0.8010 -0.9852 -0.2943
 5390TIP3    H237662   0.326   6.324  14.485  0.8297 -0.9966 -0.2962
 5391TIP3   OH237663   1.778   2.043  12.293 -0.0367  0.1706 -0.3657
 5391TIP3    H137664   1.731   2.025  12.212  0.7125 -0.5201 -0.6635
 5391TIP3    H237665   1.727   1.998  12.361  0.5597 -1.1883 -0.7857
 5392TIP3   OH237666   4.205   6.289   5.517 -0.2507 -0.4681 -0.0434
 5392TIP3    H137667   4.116   6.262   5.539 -1.2002  1.6252 -1.1032
 5392TIP3    H237668   4.234   6.342   5.591 -0.8143  0.8208 -0.7251
 5393TIP3   OH237669   4.039   0.394   4.261  0.7762  0.6424 -0.0039
 5393TIP3    H137670   4.113   0.341   4.232  0.7317  1.2046 -1.1868
 5393TIP3    H237671   4.051   0.478   4.218 -0.5242  0.7626 -0.1662
 5394TIP3   OH237672   3.833   1.788  14.802  0.0079 -0.1291 -0.8092
 5394TIP3    H137673   3.828   1.692  14.810 -2.2608  0.0969  2.3598
 5394TIP3    H237674   3.742   1.814  14.787  0.4641  1.5962 -0.6982
 5395TIP3   OH237675   1.410   6.731  15.071 -0.2916  0.2032  0.4365
 5395TIP3    H137676   1.446   6.743  15.159 -0.2901  0.7170  0.3683
 5395TIP3    H237677   1.486   6.736  15.013 -0.4518  1.1365  0.3045
 5396TIP3   OH237678   6.181   2.728  16.752 -0.0131 -0.3007  0.1467
 5396TIP3    H137679   6.220   2.765  16.832 -0.7895 -1.6545  1.1958
 5396TIP3    H237680   6.088   2.752  16.758 -0.6755 -2.8077  1.1728
 5397TIP3   OH237681   6.549   4.380  13.247  0.2929  0.3046 -0.2568
 5397TIP3    H137682   6.508   4.466  13.240  0.3326  0.3188 -0.3140
 5397TIP3    H237683   6.639   4.393  13.218  0.5084  0.3947  0.4362
 5398TIP3   OH237684   5.455   3.392   3.495 -0.0084 -0.1190  0.3216
 5398TIP3    H137685   5.521   3.422   3.433 -0.3656 -2.2630 -1.1908
 5398TIP3    H237686   5.469   3.298   3.503  0.0055  0.0186  3.5612
 5399TIP3   OH237687   0.199   3.463  13.461  0.1227  0.1551 -0.1823
 5399TIP3    H137688   0.166   3.497  13.377  1.5383 -0.7295 -1.1277
 5399TIP3    H237689   0.228   3.374  13.441  1.6331  0.3627  0.9572
 5400TIP3   OH237690   5.403   4.836  13.008  0.5887  0.6946  0.2186
 5400TIP3    H137691   5.349   4.910  12.982 -1.0543  0.5756  2.9589
 5400TIP3    H237692   5.447   4.865  13.088 -1.4301 -1.7218  2.3744
 5401TIP3   OH237693   3.346   4.294   4.047  0.2969 -0.1341 -0.2071
 5401TIP3    H137694   3.413   4.345   4.092 -0.1351  1.4969 -1.3277
 5401TIP3    H237695   3.268   4.305   4.101 -0.6901  3.2409 -2.0145
 5402TIP3   OH237696   1.041   6.335  17.268  0.2933 -0.1675  0.2445
 5402TIP3    H137697   1.010   6.281  17.195  0.4106 -0.6043  0.5150
 5402TIP3    H237698   1.056   6.272  17.339  2.0424 -0.0146  0.0446
 5403TIP3   OH237699   6.550   5.846  13.964  0.3365  0.5321  0.2383
 5403TIP3    H137700   6.486   5.850  14.035  0.4743  0.7227  0.3521
 5403TIP3    H237701   6.505   5.799  13.894  0.2908  0.1195  0.5436
 5404TIP3   OH237702   2.738   3.460   1.189 -0.9574 -0.3173  0.1314
 5404TIP3    H137703   2.658   3.422   1.153 -1.0412 -0.9853  0.9895
 5404TIP3    H237704   2.806   3.395   1.170 -0.6158  0.2274 -0.5573
 5405TIP3   OH237705   0.114   6.576   4.167  0.2719 -0.4386 -0.1563
 5405TIP3    H137706   0.038   6.635   4.168  0.5930 -0.0213 -0.5200
 5405TIP3    H237707   0.190   6.634   4.170  0.5796 -0.8645  0.4433
 5406TIP3   OH237708   5.047   2.468   4.834 -0.0976 -0.1787 -0.1567
 5406TIP3    H137709   5.045   2.423   4.749  0.7039  0.4714 -0.5396
 5406TIP3    H237710   5.132   2.513   4.835  0.5915 -1.3998  1.6485
 5407TIP3   OH237711   4.414   5.356   1.790 -0.3055 -0.4556 -0.1078
 5407TIP3    H137712   4.413   5.261   1.780  0.4871 -0.3142 -2.1325
 5407TIP3    H237713   4.506   5.380   1.775 -0.1424  0.5159  2.1027
 5408TIP3   OH237714   1.639   4.299   4.711 -0.1781 -0.5455  0.2467
 5408TIP3    H137715   1.691   4.372   4.679 -0.6095 -0.0710  0.6054
 5408TIP3    H237716   1.648   4.231   4.644  0.5603 -0.3208  0.1135
 5409TIP3   OH237717   4.484   6.677  11.542  0.6218  0.5418  0.2144
 5409TIP3    H137718   4.412   6.736  11.520  0.5978  0.6624  0.6224
 5409TIP3    H237719   4.518   6.709  11.626  0.2502 -0.3586  0.7178
 5410TIP3   OH237720   4.389   1.796  11.603  0.3100 -0.8312  0.1526
 5410TIP3    H137721   4.443   1.773  11.678  0.7973  0.3849  0.1989
 5410TIP3    H237722   4.450   1.838  11.542 -0.7239  1.6020  0.6812
 5411TIP3   OH237723   2.097   6.383  13.520  0.3728 -0.1086 -0.6114
 5411TIP3    H137724   2.169   6.401  13.581 -1.0417 -1.3770  1.5578
 5411TIP3    H237725   2.043   6.461  13.523 -0.0061 -0.4007  0.2390
 5412TIP3   OH237726   6.039   1.984  16.844  1.1347  0.0645  0.0857
 5412TIP3    H137727   6.066   2.052  16.905  1.6784  1.6326 -1.7816
 5412TIP3    H237728   6.119   1.962  16.797  0.5416 -0.3057 -0.7755
 5413TIP3   OH237729   0.449   4.186  12.533 -0.0835 -0.3058 -0.7204
 5413TIP3    H137730   0.445   4.188  12.437 -2.5477  2.7820 -0.7074
 5413TIP3    H237731   0.428   4.275  12.560 -0.9447 -1.4082  2.7680
 5414TIP3   OH237732   1.370   3.348   2.595 -0.3140 -0.3469 -0.0649
 5414TIP3    H137733   1.451   3.316   2.634  0.3983  0.1033 -1.1035
 5414TIP3    H237734   1.320   3.269   2.573 -0.1954 -0.6231  0.6476
 5415TIP3   OH237735   0.707   5.399  13.158 -0.5731 -0.1838  0.4062
 5415TIP3    H137736   0.728   5.393  13.251 -0.2846  0.8682  0.4244
 5415TIP3    H237737   0.790   5.381  13.114 -0.4515  0.4074  0.3867
 5416TIP3   OH237738   1.906   0.536   3.759 -0.3831 -0.8391  0.4167
 5416TIP3    H137739   1.891   0.587   3.679 -2.4005 -1.7200  0.1603
 5416TIP3    H237740   1.986   0.573   3.797  0.5540 -0.2800 -1.9084
 5417TIP3   OH237741   5.701   2.614  17.051  0.1879 -0.0529 -0.4075
 5417TIP3    H137742   5.609   2.586  17.051  0.4235 -0.8783  0.7086
 5417TIP3    H237743   5.704   2.686  17.113  0.3567 -0.2767 -0.1512
 5418TIP3   OH237744   1.142   1.966  17.062  0.0134 -0.0804 -0.1317
 5418TIP3    H137745   1.143   1.953  16.967 -0.0512 -0.6690 -0.0595
 5418TIP3    H237746   1.212   1.908  17.094 -1.6475 -1.9118  0.3961
 5419TIP3   OH237747   3.502   3.063  14.070  0.1179 -0.7865 -0.0629
 5419TIP3    H137748   3.503   2.989  14.010 -0.0690 -0.5520 -0.3607
 5419TIP3    H237749   3.484   3.139  14.014  0.9322 -0.4285  0.1498
 5420TIP3   OH237750   1.885   6.011   4.328  0.4026  0.3247  0.0359
 5420TIP3    H137751   1.945   5.952   4.282 -1.1364  1.3371 -3.5919
 5420TIP3    H237752   1.824   5.952   4.373  1.2227 -0.7652 -0.2188
 5421TIP3   OH237753   4.647   1.065  16.356 -0.0557 -0.1205 -0.6442
 5421TIP3    H137754   4.570   1.016  16.326 -1.6890  2.5712 -1.2096
 5421TIP3    H237755   4.720   1.029  16.304 -1.0762 -2.0630 -0.8190
 5422TIP3   OH237756   6.594   2.051  15.524 -0.0073 -0.1831  0.0168
 5422TIP3    H137757   6.534   2.124  15.541  0.5921  0.2590  0.2918
 5422TIP3    H237758   6.592   2.000  15.605  0.4985  0.2112  0.2846
 5423TIP3   OH237759   2.374   6.596   4.032 -0.2488  0.7707  0.0310
 5423TIP3    H137760   2.353   6.595   4.126  0.3584 -1.4417  0.1890
 5423TIP3    H237761   2.314   6.532   3.993 -0.2128  1.3665 -1.0424
 5424TIP3   OH237762   5.527   2.708   1.015  0.3990  0.0447 -0.1252
 5424TIP3    H137763   5.457   2.752   0.967 -0.7312 -0.9341  0.5787
 5424TIP3    H237764   5.552   2.634   0.960  0.0880 -0.2592  0.1399
 5425TIP3   OH237765   0.803   1.387   0.033 -0.1687 -0.0125  0.6320
 5425TIP3    H137766   0.879   1.333   0.054  0.2852  0.2127 -0.3547
 5425TIP3    H237767   0.819   1.417  -0.057 -0.9999  0.7543  0.7211
 5426TIP3   OH237768   3.805   4.523   6.109 -0.3975 -0.0170 -0.5629
 5426TIP3    H137769   3.766   4.486   6.188  1.4127 -1.8062 -0.4248
 5426TIP3    H237770   3.730   4.549   6.055 -1.6860  1.6531  1.8507
 5427TIP3   OH237771   4.519   2.614  11.952 -0.9711 -0.4951  0.8407
 5427TIP3    H137772   4.438   2.629  11.902  1.1514  1.5360 -2.3632
 5427TIP3    H237773   4.547   2.526  11.926 -0.7553 -0.1104 -0.2667
 5428TIP3   OH237774   5.985   6.543  14.498  0.1705  0.2983 -0.0404
 5428TIP3    H137775   5.984   6.484  14.422 -0.1902 -1.8878  1.5361
 5428TIP3    H237776   5.894   6.566  14.512  0.1236 -0.0776  0.2813
 5429TIP3   OH237777   1.837   4.351  16.930  0.4150 -0.3143  0.5102
 5429TIP3    H137778   1.805   4.262  16.942 -0.2857 -0.2651 -0.7734
 5429TIP3    H237779   1.927   4.341  16.898 -0.2389 -0.6498 -1.3430
 5430TIP3   OH237780   4.567   5.057  13.171 -0.1893 -0.0075 -0.3197
 5430TIP3    H137781   4.598   5.050  13.081 -1.2810  0.0354 -0.7185
 5430TIP3    H237782   4.637   5.105  13.217 -0.5940  2.0436 -1.6805
 5431TIP3   OH237783   5.960   1.223  16.196  0.3706  0.5341 -0.0817
 5431TIP3    H137784   5.873   1.260  16.209 -0.3694 -0.8481 -0.7607
 5431TIP3    H237785   5.968   1.156  16.264  1.3337  1.3168  0.6071
 5432TIP3   OH237786   5.238   4.322   2.403  0.1552  0.2047 -0.0714
 5432TIP3    H137787   5.246   4.280   2.317 -1.2271  0.8509 -0.5560
 5432TIP3    H237788   5.146   4.308   2.427  0.5500 -0.0317  1.3509
 5433TIP3   OH237789   0.378   4.914  11.260  0.7832  0.2879 -0.3483
 5433TIP3    H137790   0.378   4.820  11.276  2.0640  0.2462 -0.4932
 5433TIP3    H237791   0.308   4.948  11.317  0.9735 -0.6244  0.4562
 5434TIP3   OH237792   0.028   2.480  15.972  0.0889 -0.1256  0.1713
 5434TIP3    H137793  -0.021   2.400  15.954 -0.1460  0.2973 -1.2361
 5434TIP3    H237794   0.028   2.527  15.888 -0.3700  1.6724  1.1204
 5435TIP3   OH237795   3.309   0.328   3.830 -0.1350 -0.5872 -0.8585
 5435TIP3    H137796   3.236   0.315   3.770  0.5396  1.3653 -2.2056
 5435TIP3    H237797   3.274   0.306   3.917 -2.0964 -0.3846 -1.5614
 5436TIP3   OH237798   5.322   6.615   3.019  0.2797 -0.0521  0.3858
 5436TIP3    H137799   5.385   6.554   2.982 -0.4269 -0.8530  0.4584
 5436TIP3    H237800   5.238   6.569   3.013 -0.1513  0.6035  1.1584
 5437TIP3   OH237801   0.102   6.621   2.076  0.6455 -0.5731 -0.0191
 5437TIP3    H137802   0.127   6.694   2.019 -0.1753 -0.0434  0.2910
 5437TIP3    H237803   0.156   6.548   2.045  1.2736  0.0789 -0.5208
 5438TIP3   OH237804   3.492   2.912   5.564  1.0033  0.8342  0.4894
 5438TIP3    H137805   3.539   2.920   5.481 -0.5819  0.6454 -0.4552
 5438TIP3    H237806   3.526   2.832   5.603  1.1482  0.4569 -0.3867
 5439TIP3   OH237807   6.266   3.212   1.071  0.9371 -0.6342  0.5298
 5439TIP3    H137808   6.337   3.269   1.042 -0.0293  0.7284  0.7330
 5439TIP3    H237809   6.212   3.268   1.127 -0.6435 -1.4541 -0.1167
 5440TIP3   OH237810   4.497   1.918  15.588 -0.6144  0.2841  0.0525
 5440TIP3    H137811   4.512   1.833  15.547  1.1737  0.8096 -0.4604
 5440TIP3    H237812   4.489   1.898  15.682  0.9376 -0.3447  0.0657
 5441TIP3   OH237813   1.083   4.953   4.941 -0.4236  0.5518 -0.2384
 5441TIP3    H137814   1.113   4.880   4.995 -0.0841  2.2476  1.9804
 5441TIP3    H237815   1.119   4.935   4.854  1.9657 -0.5499  0.8953
 5442TIP3   OH237816   0.541   0.230  13.797  0.0167 -0.0397 -0.3076
 5442TIP3    H137817   0.582   0.300  13.850  0.5759 -0.2137 -0.5005
 5442TIP3    H237818   0.466   0.202  13.849 -1.2733  1.8880 -1.0068
 5443TIP3   OH237819   0.471   0.473   2.750 -0.2249 -0.2315  0.1532
 5443TIP3    H137820   0.458   0.464   2.844  0.1676  0.3663  0.2718
 5443TIP3    H237821   0.520   0.394   2.725  0.7901  0.2104  0.6837
 5444TIP3   OH237822   4.674   4.130   1.103  0.0286  0.2282  0.4751
 5444TIP3    H137823   4.649   4.187   1.031 -0.8369  0.2600  0.7892
 5444TIP3    H237824   4.727   4.185   1.161  1.2692  0.0347 -0.4263
 5445TIP3   OH237825   4.036   1.018   4.613  0.1470  0.1038  0.0268
 5445TIP3    H137826   3.970   0.999   4.546 -1.2119  0.9033  1.0848
 5445TIP3    H237827   4.116   1.038   4.563 -0.2501 -1.3582 -1.2740
 5446TIP3   OH237828   4.273   5.351  14.683 -0.7014  0.3976 -0.2420
 5446TIP3    H137829   4.201   5.337  14.621  0.5882 -0.0975 -1.6929
 5446TIP3    H237830   4.310   5.264  14.697 -0.3670  0.6492  0.4787
 5447TIP3   OH237831   3.117   3.070   4.939 -0.5486 -0.0923 -0.0904
 5447TIP3    H137832   3.086   3.091   5.028  1.2033  1.5405  0.1984
 5447TIP3    H237833   3.207   3.043   4.951 -0.7465 -1.3469 -1.2585
 5448TIP3   OH237834   0.650   5.469   4.645  0.1940 -0.0060 -0.2566
 5448TIP3    H137835   0.614   5.446   4.730  0.9855  0.7455  0.3074
 5448TIP3    H237836   0.703   5.393   4.620  1.2352  0.3745  0.6812
 5449TIP3   OH237837   5.176   6.199   4.475 -0.2028  0.1364  0.2155
 5449TIP3    H137838   5.172   6.184   4.569  1.3091  0.1021  0.3112
 5449TIP3    H237839   5.085   6.211   4.448 -0.5339  2.1629  2.0033
 5450TIP3   OH237840   3.075   5.253  14.964  0.1376  0.9787 -0.1402
 5450TIP3    H137841   3.077   5.209  14.879  0.7804 -0.6454  0.6537
 5450TIP3    H237842   2.983   5.249  14.990  0.2354 -0.3828  0.1083
 5451TIP3   OH237843   1.975   1.024  13.399 -0.0173 -0.0722 -0.3795
 5451TIP3    H137844   1.946   1.115  13.392 -0.9739 -0.3591 -0.3476
 5451TIP3    H237845   2.000   1.000  13.310  0.3226  0.2514 -0.3707
 5452TIP3   OH237846   2.793   4.737   2.867 -0.0625  0.4808  0.0398
 5452TIP3    H137847   2.717   4.796   2.866 -0.7320 -0.3228  0.9874
 5452TIP3    H237848   2.755   4.650   2.881  0.9456 -0.1168 -0.8610
 5453TIP3   OH237849   5.920   3.039  10.581 -0.0707  0.4382 -0.3251
 5453TIP3    H137850   5.970   2.970  10.624  1.2773  1.5723  0.0002
 5453TIP3    H237851   5.846   2.994  10.541  2.6118 -1.8406 -3.2641
 5454TIP3   OH237852   2.632   0.532   1.464 -0.4403  0.2957  0.3058
 5454TIP3    H137853   2.562   0.487   1.512 -0.8008  2.1957  1.7079
 5454TIP3    H237854   2.637   0.618   1.506  2.6138  0.2990  0.1272
 5455TIP3   OH237855   1.175   1.511   3.964  0.1481  0.4383 -0.1302
 5455TIP3    H137856   1.211   1.444   4.022 -1.1917 -1.3049 -1.2123
 5455TIP3    H237857   1.099   1.545   4.012 -1.4201 -1.5519 -1.1240
 5456TIP3   OH237858   1.226   0.276   2.826 -0.1781 -0.2481  0.0022
 5456TIP3    H137859   1.201   0.275   2.918 -0.7828  2.1404 -0.0758
 5456TIP3    H237860   1.144   0.278   2.778  0.1300  0.3023 -0.5190
 5457TIP3   OH237861   0.321   4.957  15.846 -0.2348  0.2380  0.2880
 5457TIP3    H137862   0.371   5.038  15.836  0.8054 -0.4136  0.0600
 5457TIP3    H237863   0.243   4.971  15.791 -0.0871  1.0821  0.2689
 5458TIP3   OH237864   5.508   5.160   4.595  0.3783  0.3908  0.0719
 5458TIP3    H137865   5.563   5.225   4.639 -0.7479  1.2157  0.3169
 5458TIP3    H237866   5.452   5.213   4.537 -0.5952 -0.3517  0.3120
 5459TIP3   OH237867   0.088   5.707   1.028  0.2421  0.1552 -0.4866
 5459TIP3    H137868   0.013   5.757   1.061  0.0206 -1.1072  1.0092
 5459TIP3    H237869   0.053   5.660   0.951 -0.1720  0.4863 -0.5065
 5460TIP3   OH237870   0.344   0.877  16.778 -0.8538 -0.1016 -0.1349
 5460TIP3    H137871   0.263   0.838  16.745 -0.0487 -0.7840 -1.4272
 5460TIP3    H237872   0.401   0.882  16.701  0.8079 -0.8585  0.9846
 5461TIP3   OH237873   1.771   1.646  14.110  0.2738  0.8598  0.6583
 5461TIP3    H137874   1.719   1.603  14.041 -0.2203  1.9065  0.3575
 5461TIP3    H237875   1.717   1.637  14.188  0.0439  1.1574  0.5381
 5462TIP3   OH237876   5.207   3.734  16.394 -0.1901 -0.4390 -0.3909
 5462TIP3    H137877   5.127   3.721  16.445 -0.0525  0.6077  0.1267
 5462TIP3    H237878   5.277   3.742  16.459  0.1119  0.0724 -0.7694
 5463TIP3   OH237879   1.627   0.953   6.681  0.4246 -0.2758 -0.5831
 5463TIP3    H137880   1.563   1.010   6.638  1.6672  0.0269 -2.1442
 5463TIP3    H237881   1.711   0.999   6.669  1.4793 -2.4256 -1.9388
 5464TIP3   OH237882   2.822   3.574   2.575  0.4931  0.5099 -0.5696
 5464TIP3    H137883   2.824   3.495   2.521  0.3014  0.3403 -0.3323
 5464TIP3    H237884   2.848   3.644   2.516 -1.2926  0.5894 -1.3343
 5465TIP3   OH237885   6.184   2.081   6.100 -0.0284 -0.0672  0.0522
 5465TIP3    H137886   6.111   2.140   6.118 -0.3332  0.3139 -2.1640
 5465TIP3    H237887   6.206   2.044   6.186 -1.0980  1.7645  1.1970
 5466TIP3   OH237888   5.226   5.703   4.389  0.8696 -0.4831  0.7525
 5466TIP3    H137889   5.288   5.676   4.321  0.4199  0.3669 -0.0201
 5466TIP3    H237890   5.215   5.797   4.375 -2.0136 -0.9083 -0.3502
 5467TIP3   OH237891   4.925   4.940   5.186  0.1423  0.0435  0.5821
 5467TIP3    H137892   4.964   5.024   5.211 -0.4341  1.1442 -1.8220
 5467TIP3    H237893   4.832   4.960   5.173  0.2974 -0.4772 -1.7425
 5468TIP3   OH237894   4.359   0.856  13.094 -0.2808 -0.0587  0.0880
 5468TIP3    H137895   4.439   0.818  13.130  0.7801  0.4991 -1.5629
 5468TIP3    H237896   4.355   0.821  13.004 -2.1178 -0.3890  0.2620
 5469TIP3   OH237897   1.909   4.104  12.016 -0.1787  0.0550 -0.0599
 5469TIP3    H137898   1.852   4.030  11.998 -0.5499  0.4079 -0.3426
 5469TIP3    H237899   1.900   4.161  11.940  1.1507 -0.2529 -0.4778
 5470TIP3   OH237900   1.665   1.611   3.940  0.0145  0.0187 -0.5489
 5470TIP3    H137901   1.640   1.519   3.934 -0.8444  0.2630 -0.9155
 5470TIP3    H237902   1.635   1.638   4.028  2.1936 -0.5844  0.4301
 5471TIP3   OH237903   5.743   1.937   0.430  0.3682  0.3732 -0.7597
 5471TIP3    H137904   5.784   2.009   0.381 -0.9167  1.5342 -0.2155
 5471TIP3    H237905   5.748   1.965   0.521  2.1828 -1.4769 -0.2338
 5472TIP3   OH237906   5.577   1.512  11.337 -0.1428 -0.2893 -0.2097
 5472TIP3    H137907   5.627   1.511  11.255 -1.2645  0.5896 -0.9294
 5472TIP3    H237908   5.504   1.570  11.320 -0.5136 -0.2431  1.3716
 5473TIP3   OH237909   0.724   6.388   2.441  0.4588  0.0955 -0.6919
 5473TIP3    H137910   0.819   6.376   2.450  0.7556  0.4409 -2.9038
 5473TIP3    H237911   0.713   6.483   2.433 -0.3476  0.2692  1.6780
 5474TIP3   OH237912   2.173   2.705  17.308 -0.3489 -0.2216 -0.2481
 5474TIP3    H137913   2.243   2.725  17.246 -1.5317 -0.3636 -1.6705
 5474TIP3    H237914   2.109   2.656  17.257 -2.8345  2.2958  0.2065
 5475TIP3   OH237915   4.201   5.215   1.595 -0.0841  0.0886  0.1718
 5475TIP3    H137916   4.278   5.161   1.582  0.9719  1.4815  0.3864
 5475TIP3    H237917   4.160   5.180   1.674  1.0608  0.1247  0.8059
 5476TIP3   OH237918   3.570   0.569  16.553  0.1293 -0.1841 -0.7621
 5476TIP3    H137919   3.504   0.584  16.621  3.2352 -0.7776  2.7020
 5476TIP3    H237920   3.577   0.653  16.507 -1.8449  0.3473 -0.1642
 5477TIP3   OH237921   3.294   6.543  12.334  0.1586 -0.1968  0.0856
 5477TIP3    H137922   3.382   6.510  12.318  0.7117  1.6423 -0.9194
 5477TIP3    H237923   3.240   6.501  12.266  0.2375 -1.2334  0.6311
 5478TIP3   OH237924   2.216   4.680  15.156 -0.0700  0.2434  0.1420
 5478TIP3    H137925   2.297   4.658  15.203 -0.1665 -1.6426 -0.4960
 5478TIP3    H237926   2.238   4.759  15.107  1.8858 -0.9796 -1.0960
 5479TIP3   OH237927   5.123   0.290  14.029 -0.1677  0.7016 -0.6020
 5479TIP3    H137928   5.028   0.287  14.020 -0.1882  0.3076 -0.2538
 5479TIP3    H237929   5.139   0.301  14.122  0.1606 -1.9853 -0.2728
 5480TIP3   OH237930   6.233   3.555  14.232  0.9201 -0.2923 -0.4995
 5480TIP3    H137931   6.312   3.604  14.207  0.7928  0.0302 -0.2702
 5480TIP3    H237932   6.165   3.586  14.173  0.4732  0.8987  0.5960
 5481TIP3   OH237933   2.709   3.669  15.003 -0.5473  0.2094 -0.4225
 5481TIP3    H137934   2.750   3.727  14.939 -0.0333  2.6058  1.8685
 5481TIP3    H237935   2.623   3.708  15.019 -1.1215 -1.0121 -0.4724
 5482TIP3   OH237936   4.336   3.441  17.261 -0.4277 -0.0513 -0.0240
 5482TIP3    H137937   4.247   3.470  17.240 -0.6388 -1.1388 -0.7240
 5482TIP3    H237938   4.391   3.486  17.197 -0.6197 -0.2988 -0.3669
 5483TIP3   OH237939   4.935   4.832   4.540  0.2379 -0.2419 -0.2883
 5483TIP3    H137940   4.946   4.847   4.446  0.6233  1.9861  0.0418
 5483TIP3    H237941   5.020   4.856   4.577 -0.6012  1.1421  0.8093
 5484TIP3   OH237942   5.770   0.015   3.607 -0.2816 -0.0379 -0.4072
 5484TIP3    H137943   5.690  -0.009   3.562 -0.6759  2.1815 -1.0028
 5484TIP3    H237944   5.839  -0.034   3.561 -0.9327  0.4429 -1.9503
 5485TIP3   OH237945   1.231   5.929   5.107  0.1898  0.7511  0.3873
 5485TIP3    H137946   1.177   5.995   5.063 -1.1017 -0.6809 -0.2655
 5485TIP3    H237947   1.318   5.940   5.068 -0.5358  0.6102 -1.3705
 5486TIP3   OH237948   2.099   3.934  13.843  0.0519 -0.3581 -0.1456
 5486TIP3    H137949   2.157   3.887  13.783  0.5506 -0.2377  0.2355
 5486TIP3    H237950   2.097   4.023  13.810 -0.4149 -0.5061 -0.5202
 5487TIP3   OH237951   1.174   3.531  16.354  0.1889  0.0542  0.2780
 5487TIP3    H137952   1.212   3.481  16.426 -0.9981  0.0348  0.9225
 5487TIP3    H237953   1.156   3.617  16.391  0.6357  0.4203 -0.3381
 5488TIP3   OH237954   3.604   3.323  12.685 -0.0458 -0.5841 -0.2468
 5488TIP3    H137955   3.637   3.263  12.618  1.5531 -1.2113  1.0320
 5488TIP3    H237956   3.634   3.409  12.655  0.9487 -0.8943 -0.2007
 5489TIP3   OH237957   0.221   0.315   0.840 -0.3394  0.1329  0.1898
 5489TIP3    H137958   0.310   0.345   0.819 -0.2030 -0.7125 -0.4957
 5489TIP3    H237959   0.212   0.331   0.934  0.3594  0.6803  0.1729
 5490TIP3   OH237960   6.343   3.324  10.893  0.3468  0.1944 -0.1837
 5490TIP3    H137961   6.275   3.262  10.919  0.8673  0.0281  0.8378
 5490TIP3    H237962   6.353   3.310  10.799  0.3009 -1.1206 -0.0151
 5491TIP3   OH237963   1.671   1.950   2.084  0.1034  0.3434 -0.6958
 5491TIP3    H137964   1.686   1.880   2.147 -1.5951  1.5546  1.1868
 5491TIP3    H237965   1.593   1.923   2.036  0.7793 -0.0796 -1.5882
 5492TIP3   OH237966   2.164   5.728  16.203 -0.5137  0.2634  0.2274
 5492TIP3    H137967   2.248   5.709  16.246 -1.3362 -1.8726  1.0719
 5492TIP3    H237968   2.179   5.708  16.111 -0.3243 -1.1337  0.5368
 5493TIP3   OH237969   2.770   5.575   1.714  0.4173  0.4169 -0.1313
 5493TIP3    H137970   2.731   5.663   1.711  0.4507  0.4258 -0.4064
 5493TIP3    H237971   2.696   5.517   1.732  0.5668  0.6003  1.1400
 5494TIP3   OH237972   5.151   5.832  13.046 -0.3256 -0.1012 -0.0606
 5494TIP3    H137973   5.068   5.812  13.089  0.6329  0.3294  2.1182
 5494TIP3    H237974   5.129   5.901  12.984 -1.4870  0.5779  1.0482
 5495TIP3   OH237975   6.081   2.698   1.212 -0.2075  0.6203 -0.2249
 5495TIP3    H137976   6.004   2.751   1.231 -0.4710  0.2507 -0.2604
 5495TIP3    H237977   6.060   2.654   1.130 -0.4278 -0.3709  0.3490
 5496TIP3   OH237978   3.502   1.493  13.947 -0.0505 -0.2843  0.4822
 5496TIP3    H137979   3.579   1.436  13.952 -0.1174 -0.3642  0.6272
 5496TIP3    H237980   3.468   1.494  14.037 -0.8374 -1.1093  0.2038
 5497TIP3   OH237981   3.426   3.498  13.481  0.5018  0.0177  0.4338
 5497TIP3    H137982   3.396   3.473  13.568 -0.4011 -0.8854 -0.1196
 5497TIP3    H237983   3.352   3.478  13.423  0.2513  2.6027 -0.2754
 5498TIP3   OH237984   1.741   4.456   3.340 -0.1058  0.6179 -0.3150
 5498TIP3    H137985   1.835   4.466   3.321 -0.3076 -0.0619 -1.8263
 5498TIP3    H237986   1.704   4.422   3.259 -1.6977  0.9764  0.2260
 5499TIP3   OH237987   1.462   3.866   3.616 -0.0159  0.0693  0.7100
 5499TIP3    H137988   1.500   3.796   3.563  0.9386  0.8530  0.3292
 5499TIP3    H237989   1.379   3.830   3.647 -0.8642 -0.2650 -1.7384
 5500TIP3   OH237990   1.662   2.888  14.976  0.3058 -0.0683  0.2833
 5500TIP3    H137991   1.622   2.970  15.005  0.7417  0.0230  0.6394
 5500TIP3    H237992   1.670   2.897  14.881 -1.3419 -0.4606  0.0853
 5501TIP3   OH237993   5.082   2.443   2.786  0.3359 -0.3630 -0.1397
 5501TIP3    H137994   5.163   2.393   2.789 -0.0076 -1.1401 -2.2946
 5501TIP3    H237995   5.017   2.383   2.750 -1.0818  0.4467  0.9182
 5502TIP3   OH237996   4.141   5.349  10.809 -0.7449  0.5965 -0.2026
 5502TIP3    H137997   4.191   5.353  10.890  1.1074 -0.2636 -1.2441
 5502TIP3    H237998   4.105   5.437  10.799  1.6750  1.6960 -0.0201
 5503TIP3   OH237999   2.068   4.799  13.233  0.1517 -0.5712 -0.2235
 5503TIP3    H138000   2.064   4.783  13.139 -2.4798  2.2414 -0.7307
 5503TIP3    H238001   2.133   4.737  13.265  0.4715 -2.2689 -3.7266
 5504TIP3   OH238002   6.737   6.724  14.419 -0.0484  0.1666 -0.9561
 5504TIP3    H138003   6.763   6.772  14.340 -0.2060  1.0753 -0.4554
 5504TIP3    H238004   6.641   6.716  14.411  0.1943 -2.7082 -2.5273
 5505TIP3   OH238005   2.795   6.150  12.643  0.4034 -0.3446 -0.0495
 5505TIP3    H138006   2.872   6.136  12.698  3.3142  0.4073 -3.4983
 5505TIP3    H238007   2.813   6.099  12.564 -1.7650  1.3146 -1.7426
 5506TIP3   OH238008   4.285   2.630  11.816  0.2691 -0.0908 -0.5453
 5506TIP3    H138009   4.222   2.693  11.849  0.3918 -0.3630  0.2138
 5506TIP3    H238010   4.299   2.656  11.725  1.3735  1.8572  0.1216
 5507TIP3   OH238011   1.404   5.095   5.989  0.4262 -0.0749 -0.2262
 5507TIP3    H138012   1.489   5.111   5.948 -0.0840 -1.0762 -1.7356
 5507TIP3    H238013   1.367   5.021   5.941 -0.5744 -0.7769  1.5273
 5508TIP3   OH238014   6.477   0.075   0.567 -0.4707  0.0109  0.6114
 5508TIP3    H138015   6.492   0.053   0.659 -2.0459  0.6760  1.0567
 5508TIP3    H238016   6.542   0.143   0.547 -1.3356  1.2529  1.8259
 5509TIP3   OH238017   4.381   4.350  15.526 -0.4469  0.6406 -0.2263
 5509TIP3    H138018   4.471   4.380  15.518 -0.7796  1.7763  0.0357
 5509TIP3    H238019   4.387   4.256  15.539  0.5996  0.2138 -3.0570
 5510TIP3   OH238020   2.916   2.974   3.991  0.1099 -0.3562  0.5747
 5510TIP3    H138021   2.962   3.039   4.044  1.9656 -0.1101 -1.2467
 5510TIP3    H238022   2.836   3.019   3.963  1.5072  1.3373 -0.9118
 5511TIP3   OH238023   1.770   4.986   5.114 -0.2866 -0.3162  0.0875
 5511TIP3    H138024   1.716   5.049   5.066  1.7627  0.5684 -1.1579
 5511TIP3    H238025   1.730   4.901   5.094 -1.7791  0.3624  0.0162
 5512TIP3   OH238026   0.460   0.378  12.466  0.3221  0.3935 -0.2712
 5512TIP3    H138027   0.552   0.354  12.453 -0.3894 -2.4040 -0.9117
 5512TIP3    H238028   0.433   0.416  12.382  0.0279 -2.2735 -1.5057
 5513TIP3   OH238029   6.553   1.413   1.173 -0.2031 -0.6151 -0.2624
 5513TIP3    H138030   6.470   1.458   1.163  0.5665  0.9031 -0.0545
 5513TIP3    H238031   6.619   1.479   1.153  1.0225 -1.2074  1.5511
 5514TIP3   OH238032   4.416   2.110   4.755  0.0978  0.3688  0.0462
 5514TIP3    H138033   4.397   2.183   4.815  0.5810 -0.2384  0.9642
 5514TIP3    H238034   4.401   2.147   4.668  2.7465  2.4078  0.2958
 5515TIP3   OH238035   5.418   4.847  15.255 -0.2352  0.2225 -0.2883
 5515TIP3    H138036   5.508   4.816  15.250 -0.6975 -1.1722 -0.4437
 5515TIP3    H238037   5.385   4.811  15.338 -1.5172 -1.8145 -1.5992
 5516TIP3   OH238038   4.886   1.181  13.920 -0.5218  0.0061  0.6952
 5516TIP3    H138039   4.966   1.216  13.881 -0.7244  1.2194  1.3227
 5516TIP3    H238040   4.849   1.125  13.852  0.6028 -0.1912  0.2214
 5517TIP3   OH238041   0.151   3.079   2.445 -0.5014 -0.0974  0.2989
 5517TIP3    H138042   0.146   2.984   2.455  0.6849 -0.0677  1.4442
 5517TIP3    H238043   0.245   3.099   2.450 -0.7360  1.1392  0.0922
 5518TIP3   OH238044   4.759   5.277   4.543  0.3193  0.1967 -0.4422
 5518TIP3    H138045   4.702   5.350   4.518  1.9394  1.3516 -0.9850
 5518TIP3    H238046   4.839   5.320   4.574  2.0065 -1.3450 -2.4197
 5519TIP3   OH238047   3.455   4.029  12.510  0.3103 -0.9913 -0.4747
 5519TIP3    H138048   3.393   4.101  12.527  2.3891  0.8510 -0.2324
 5519TIP3    H238049   3.401   3.950  12.513 -1.7744  0.3683  1.2470
 5520TIP3   OH238050   0.546   6.066  11.557 -0.1796  0.7650  0.6426
 5520TIP3    H138051   0.578   6.041  11.644  1.8339 -0.1555 -0.2993
 5520TIP3    H238052   0.488   6.141  11.573  0.9442  1.2601  2.6732
 5521TIP3   OH238053   0.589   1.605  16.279 -0.3040  0.0565 -0.2419
 5521TIP3    H138054   0.604   1.534  16.341  0.6880  0.4140 -0.0483
 5521TIP3    H238055   0.584   1.683  16.334 -2.1524  0.0772 -0.3792
 5522TIP3   OH238056   5.905   2.066   5.608 -0.1034  0.4040 -0.2698
 5522TIP3    H138057   5.977   2.048   5.669 -0.9397 -1.5428  0.2421
 5522TIP3    H238058   5.907   1.992   5.546 -2.3794 -0.4220  0.5207
 5523TIP3   OH238059   1.794   1.521  16.381 -0.2119 -0.0319 -0.0324
 5523TIP3    H138060   1.768   1.431  16.396 -2.2932  0.6312  0.7041
 5523TIP3    H238061   1.877   1.515  16.334  0.0662 -2.2967  0.6484
 5524TIP3   OH238062   1.340   2.455  13.706  0.3527  0.0253  0.1982
 5524TIP3    H138063   1.316   2.448  13.799  0.4930  0.6719  0.2879
 5524TIP3    H238064   1.430   2.489  13.708  0.5654 -0.5035 -0.1673
 5525TIP3   OH238065   6.556   2.499  17.274  0.4559  0.8079  0.6809
 5525TIP3    H138066   6.554   2.413  17.230  0.1844  1.3650 -0.4341
 5525TIP3    H238067   6.514   2.483  17.359  1.3046 -0.3765  0.9059
 5526TIP3   OH238068   3.549   2.403  12.289  0.3376  0.1228 -0.0260
 5526TIP3    H138069   3.532   2.460  12.364 -0.0533  0.9625 -0.7408
 5526TIP3    H238070   3.639   2.423  12.264  1.1659 -1.5210  1.3435
 5527TIP3   OH238071   2.254   1.150  12.075 -0.0779 -0.3710 -0.5938
 5527TIP3    H138072   2.240   1.064  12.115 -1.4732 -0.4759 -1.2482
 5527TIP3    H238073   2.347   1.153  12.056  0.5070 -0.6448  1.8800
 5528TIP3   OH238074   1.717   2.575  12.277  0.2404  0.2308 -0.3377
 5528TIP3    H138075   1.657   2.611  12.342 -1.4741 -0.8419 -1.2578
 5528TIP3    H238076   1.779   2.646  12.260 -0.4204  1.1838  1.0455
 5529TIP3   OH238077   6.234   6.592   2.288 -0.0648 -0.2600 -0.0898
 5529TIP3    H138078   6.255   6.580   2.380 -0.9515  0.6363  0.2446
 5529TIP3    H238079   6.318   6.584   2.243  0.2563 -1.5496  0.6903
 5530TIP3   OH238080   2.649   6.019   1.601  0.1457  0.5609  0.6494
 5530TIP3    H138081   2.639   6.063   1.517 -1.8174  0.6052  0.8733
 5530TIP3    H238082   2.639   6.089   1.666  1.8293  0.5642  0.9697
 5531TIP3   OH238083   3.508   3.841  15.408  0.1006  0.5375 -0.0835
 5531TIP3    H138084   3.555   3.765  15.373  0.6521  0.6781  0.3264
 5531TIP3    H238085   3.573   3.886  15.462  0.7147  2.8717 -2.5261
 5532TIP3   OH238086   3.171   1.769  11.941 -0.8693 -0.2964  0.1342
 5532TIP3    H138087   3.173   1.854  11.898 -1.2491 -1.2358 -1.8741
 5532TIP3    H238088   3.262   1.739  11.941 -0.8451 -0.2224  0.1209
 5533TIP3   OH238089   4.930   0.360   1.008  0.0638  0.1268 -0.1349
 5533TIP3    H138090   5.011   0.403   0.981  1.7871 -1.9163  1.5484
 5533TIP3    H238091   4.926   0.372   1.103 -1.3038 -0.3646 -0.0962
 5534TIP3   OH238092   1.768   1.729  16.615  0.0445 -0.3876  0.2940
 5534TIP3    H138093   1.722   1.715  16.533 -1.5924  0.7429  0.9722
 5534TIP3    H238094   1.859   1.709  16.595 -0.6553 -2.4556 -1.1678
 5535TIP3   OH238095   3.030   0.777   2.886  0.2779  0.2546 -0.3812
 5535TIP3    H138096   3.124   0.780   2.906  0.0909 -1.2890  0.8755
 5535TIP3    H238097   3.017   0.694   2.841 -0.4812  0.4881 -0.6089
 5536TIP3   OH238098   3.860   0.738  15.630  0.4221 -0.2851 -0.5061
 5536TIP3    H138099   3.851   0.655  15.676  1.3648 -0.3180 -0.3611
 5536TIP3    H238100   3.892   0.799  15.697  1.6783 -0.2986 -1.0726
 5537TIP3   OH238101   1.485   5.101  13.078 -0.0908  0.5101  0.4787
 5537TIP3    H138102   1.425   5.028  13.063  1.0645 -0.1228 -1.3156
 5537TIP3    H238103   1.472   5.159  13.004  0.5531  1.0459  0.7712
 5538TIP3   OH238104   4.890   3.770  17.176  0.2135 -0.3985 -0.0379
 5538TIP3    H138105   4.963   3.833  17.173  1.6137 -1.9466  0.0194
 5538TIP3    H238106   4.861   3.762  17.085 -1.3975  1.8470  0.2050
 5539TIP3   OH238107   2.058   1.370   3.000 -0.3417  0.7914  0.1607
 5539TIP3    H138108   2.120   1.392   3.069  0.7484 -0.4850 -0.3800
 5539TIP3    H238109   2.032   1.280   3.019 -0.1225  0.4699 -1.0186
 5540TIP3   OH238110   2.838   6.696   4.424  0.3056 -0.4350 -0.7832
 5540TIP3    H138111   2.782   6.764   4.461  1.1571  0.6778 -1.4901
 5540TIP3    H238112   2.839   6.715   4.330  1.8249 -0.4773 -0.7851
 5541TIP3   OH238113   1.654   6.191  15.389 -0.5108  0.2137 -0.6125
 5541TIP3    H138114   1.657   6.096  15.391 -0.7222  0.2182  0.6106
 5541TIP3    H238115   1.563   6.212  15.369 -1.0814  0.1344  1.6517
 5542TIP3   OH238116   1.900   1.046   0.841  0.3091  0.5061  0.3927
 5542TIP3    H138117   1.814   1.057   0.800  0.5853  1.7329  0.0996
 5542TIP3    H238118   1.883   0.998   0.923 -0.6444  0.7738  0.3508
 5543TIP3   OH238119   1.561   5.228   2.551  0.5954 -0.0352 -0.3889
 5543TIP3    H138120   1.469   5.217   2.527  0.6206  1.0521 -1.0592
 5543TIP3    H238121   1.596   5.288   2.485  1.2285  1.3158  1.1192
 5544TIP3   OH238122   3.821   4.027   1.345  0.7337  0.5792  0.2826
 5544TIP3    H138123   3.788   4.097   1.289 -2.4665 -0.7018  0.3622
 5544TIP3    H238124   3.832   3.952   1.287 -0.1226 -0.0487  0.9125
 5545TIP3   OH238125   1.938   1.118  11.571 -0.2407  0.1550  0.1821
 5545TIP3    H138126   1.986   1.067  11.636  0.3675  0.9439  0.3672
 5545TIP3    H238127   2.004   1.176  11.532 -0.5828 -0.3083 -1.1487
 5546TIP3   OH238128   3.190   2.528   0.335  0.5735 -0.1850 -0.9233
 5546TIP3    H138129   3.165   2.502   0.247 -2.3898 -0.8794  0.0178
 5546TIP3    H238130   3.246   2.457   0.367  1.3479 -0.1056 -2.0530
 5547TIP3   OH238131   0.746   3.963  14.345 -0.8312  0.6619  0.5378
 5547TIP3    H138132   0.814   3.936  14.407 -0.8327  0.7578  0.5813
 5547TIP3    H238133   0.694   4.028  14.393 -1.5530 -0.1262  0.8435
 5548TIP3   OH238134   6.235   0.807  17.018 -0.2023  0.7757 -0.1634
 5548TIP3    H138135   6.168   0.793  17.085 -0.9532  2.5921 -0.4815
 5548TIP3    H238136   6.188   0.805  16.935  0.4132  0.4156 -0.5155
 5549TIP3   OH238137   4.207   0.635   5.547 -0.3794 -0.1561 -0.1358
 5549TIP3    H138138   4.237   0.622   5.637  2.0338 -0.8757 -0.9840
 5549TIP3    H238139   4.234   0.725   5.527 -1.4716  0.2234  0.0223
 5550TIP3   OH238140   1.950   3.844  12.367 -0.3618 -0.0971 -0.2771
 5550TIP3    H138141   2.001   3.798  12.300  0.5137 -0.3696  0.5603
 5550TIP3    H238142   1.924   3.776  12.428 -0.8701  0.2035 -0.1600
 5551TIP3   OH238143   4.701   5.255   5.116  0.2201 -0.6790  0.1646
 5551TIP3    H138144   4.660   5.302   5.044 -1.2085 -1.9219  0.1112
 5551TIP3    H238145   4.637   5.260   5.187  0.9897 -0.7005  0.8748
 5552TIP3   OH238146   3.317   2.732  11.446  0.3844  0.0397 -0.0637
 5552TIP3    H138147   3.334   2.638  11.450 -0.9367 -0.2018  0.5164
 5552TIP3    H238148   3.343   2.765  11.532 -0.3823 -0.0332  0.2030
 5553TIP3   OH238149   2.627   4.326  14.183  0.3355 -0.4495  0.4349
 5553TIP3    H138150   2.589   4.285  14.105 -0.4686  0.0991  0.5228
 5553TIP3    H238151   2.710   4.362  14.153 -0.0747 -0.0304 -0.2382
 5554TIP3   OH238152   5.429   1.229   5.195 -0.0297  0.6897 -0.0682
 5554TIP3    H138153   5.353   1.229   5.137 -0.9939 -0.2903  1.1599
 5554TIP3    H238154   5.395   1.252   5.281  0.8527 -0.8779  0.7420
 5555TIP3   OH238155   5.240   2.143   4.833  0.1434 -0.9670 -0.0136
 5555TIP3    H138156   5.324   2.168   4.872  0.6232 -1.3786 -0.7584
 5555TIP3    H238157   5.224   2.210   4.767 -1.4831  0.6843  1.9257
 5556TIP3   OH238158   5.731   3.710  11.036  0.1408 -0.0638 -0.3874
 5556TIP3    H138159   5.704   3.753  10.955 -0.0100  0.3165 -0.1375
 5556TIP3    H238160   5.701   3.620  11.026 -3.5025  0.8390  0.8923
 5557TIP3   OH238161   5.920   0.239  13.637 -0.3480  0.1840 -0.3819
 5557TIP3    H138162   5.888   0.310  13.692  1.7041  0.5586  0.4499
 5557TIP3    H238163   5.997   0.206  13.684 -0.8745 -2.2096 -1.0379
 5558TIP3   OH238164   6.694   2.332   4.916 -0.0954  0.0929  0.2293
 5558TIP3    H138165   6.639   2.409   4.930 -0.6592 -0.0963 -0.8629
 5558TIP3    H238166   6.635   2.258   4.930  0.6939 -0.2032  2.3492
 5559TIP3   OH238167   0.359   2.439  12.400 -0.7820  0.2311  0.3665
 5559TIP3    H138168   0.397   2.485  12.325 -1.9072 -2.1741 -1.8441
 5559TIP3    H238169   0.288   2.495  12.431 -1.2843  0.6117 -1.3908
 5560TIP3   OH238170   0.452   1.789   3.486  0.1019 -0.0523 -0.0253
 5560TIP3    H138171   0.457   1.695   3.505 -0.5578  0.1377  1.2270
 5560TIP3    H238172   0.376   1.819   3.536  1.1792  1.4232  0.8266
 5561TIP3   OH238173   0.931   2.560   2.347  0.0493  0.1426 -0.0957
 5561TIP3    H138174   0.906   2.473   2.379 -2.6223  0.4110 -1.1893
 5561TIP3    H238175   0.996   2.543   2.278  0.3534 -0.8817  0.4262
 5562TIP3   OH238176   3.526   2.896   0.212 -0.2950 -0.2920 -0.6083
 5562TIP3    H138177   3.606   2.893   0.265 -1.1678 -1.0935  0.7055
 5562TIP3    H238178   3.458   2.859   0.268 -1.6348  0.4687 -1.6610
 5563TIP3   OH238179   3.482   0.933  15.271 -0.3376  0.5212  0.6835
 5563TIP3    H138180   3.523   0.863  15.322 -0.2092 -0.0730 -0.2223
 5563TIP3    H238181   3.389   0.926  15.294 -0.6506 -1.2665 -0.8739
 5564TIP3   OH238182   5.067   3.407   2.620  0.1907  0.3133 -0.2370
 5564TIP3    H138183   5.101   3.426   2.707 -1.4923  1.4240  0.2273
 5564TIP3    H238184   4.972   3.407   2.631 -0.0364 -0.0658 -1.9719
 5565TIP3   OH238185   4.941   0.302   0.552 -0.2632 -0.3531 -0.3421
 5565TIP3    H138186   4.948   0.377   0.492 -1.2566 -1.3353 -1.7278
 5565TIP3    H238187   4.848   0.293   0.568 -0.2302 -1.7761 -0.8443
 5566TIP3   OH238188   3.998   1.344   0.453  0.1103  0.3372  0.1298
 5566TIP3    H138189   3.910   1.338   0.491  0.2262  0.0269  0.3542
 5566TIP3    H238190   4.040   1.261   0.477 -0.0111 -0.1161 -1.1653
 5567TIP3   OH238191   5.203   6.446  15.859  0.5424 -0.1266 -0.0652
 5567TIP3    H138192   5.183   6.487  15.775  2.2450 -0.0774 -0.4734
 5567TIP3    H238193   5.258   6.509  15.904 -0.8656  0.1201  1.3794
 5568TIP3   OH238194   3.885   6.061   1.996  0.0893 -0.2045 -0.5351
 5568TIP3    H138195   3.970   6.103   1.992 -0.4610  0.8116 -2.6465
 5568TIP3    H238196   3.879   6.010   1.915 -1.3683 -0.1423 -0.4947
 5569TIP3   OH238197   3.778   5.488   0.107 -0.3040 -0.4627  0.0721
 5569TIP3    H138198   3.771   5.484   0.202  1.1663 -1.4052  0.1727
 5569TIP3    H238199   3.706   5.434   0.076 -1.0138  0.1452  0.6345
 5570TIP3   OH238200   1.060   2.212  14.001 -0.2108  0.5911 -0.0276
 5570TIP3    H138201   1.000   2.254  13.940  0.8060  1.1400 -0.6863
 5570TIP3    H238202   1.116   2.157  13.946 -0.1041  0.0936  0.5676
 5571TIP3   OH238203   2.948   3.537   4.333  0.7070 -0.1417 -0.4110
 5571TIP3    H138204   2.961   3.621   4.288 -0.4543 -0.6622 -1.8050
 5571TIP3    H238205   2.954   3.558   4.426 -0.8352  1.7308 -0.6714
 5572TIP3   OH238206   2.347   3.540  15.894 -0.0148 -0.8367  0.0902
 5572TIP3    H138207   2.260   3.565  15.863  0.2614 -1.0979 -0.9298
 5572TIP3    H238208   2.357   3.448  15.868  1.2715 -0.3054 -1.5162
 5573TIP3   OH238209   2.552   2.161  14.654 -0.4284 -0.3926  0.1148
 5573TIP3    H138210   2.634   2.171  14.702  1.2208 -0.6160 -2.4370
 5573TIP3    H238211   2.517   2.076  14.681 -0.4199  0.1753  2.0191
 5574TIP3   OH238212   6.467   1.955  16.763 -0.1493 -0.4120 -0.1013
 5574TIP3    H138213   6.428   1.902  16.694  0.0110 -0.1122 -0.4286
 5574TIP3    H238214   6.530   2.011  16.717  2.4611 -2.5287  0.6610
 5575TIP3   OH238215   3.807   2.373   3.485  0.3925 -1.1199  0.2261
 5575TIP3    H138216   3.892   2.415   3.474  0.2248 -0.8751 -0.1647
 5575TIP3    H238217   3.744   2.443   3.475  0.0593 -1.6358 -1.6202
 5576TIP3   OH238218   5.990   3.665   4.175  0.3424  0.3452 -0.4252
 5576TIP3    H138219   6.069   3.651   4.227 -0.2512  0.5156  0.5389
 5576TIP3    H238220   5.982   3.760   4.169 -0.2737  0.3461  0.2516
 5577TIP3   OH238221   4.167   0.705  11.951 -0.2925 -0.0811 -0.4852
 5577TIP3    H138222   4.082   0.742  11.974  0.4747 -0.3113  3.6061
 5577TIP3    H238223   4.222   0.723  12.028  1.7807 -4.5016 -0.6084
 5578TIP3   OH238224   0.870   5.342   3.115  0.0438 -0.1781 -0.0772
 5578TIP3    H138225   0.782   5.313   3.137 -0.2512  0.2638 -0.6278
 5578TIP3    H238226   0.897   5.285   3.042  1.1542 -1.8757  1.5697
 5579TIP3   OH238227   6.477   1.836  11.353 -0.0170  0.5441 -0.4602
 5579TIP3    H138228   6.539   1.791  11.295 -0.7675 -0.9544 -0.1550
 5579TIP3    H238229   6.505   1.814  11.441 -1.2085 -0.5352 -0.3196
 5580TIP3   OH238230   6.598   0.927   5.139 -0.1266  0.6585 -0.0369
 5580TIP3    H138231   6.564   0.960   5.223  1.5227 -0.9686  1.3361
 5580TIP3    H238232   6.678   0.881   5.161  0.6486  0.6036 -2.6169
 5581TIP3   OH238233   2.403   1.557   3.732  0.5558 -0.0514 -0.6199
 5581TIP3    H138234   2.324   1.610   3.728  1.8236  1.9206 -1.0860
 5581TIP3    H238235   2.373   1.471   3.761 -1.6089  0.9026  0.1762
 5582TIP3   OH238236   5.000   0.428  12.953  0.3624  0.8837  0.0665
 5582TIP3    H138237   5.075   0.486  12.966 -1.4259  3.0702  1.2052
 5582TIP3    H238238   5.016   0.355  13.014  0.0728  2.9256  2.7531
 5583TIP3   OH238239   0.709   6.306  13.341  0.0119  0.2944  0.1302
 5583TIP3    H138240   0.697   6.284  13.249  0.5916  0.5679 -0.0100
 5583TIP3    H238241   0.718   6.221  13.385 -4.2276 -0.1916  0.5713
 5584TIP3   OH238242   2.463   0.241  11.258 -0.5994  0.3339  0.0035
 5584TIP3    H138243   2.414   0.250  11.176  0.4471  0.5824 -0.6166
 5584TIP3    H238244   2.402   0.271  11.325 -1.9393 -1.0878 -0.5124
 5585TIP3   OH238245   4.090   2.877  11.840 -0.1218 -0.4313  0.1212
 5585TIP3    H138246   4.092   2.960  11.792  1.0810 -0.4397  0.1246
 5585TIP3    H238247   4.003   2.841  11.823 -0.3083  0.3659 -0.6688
 5586TIP3   OH238248   5.373   4.250   1.700 -0.0274  0.3577 -0.3165
 5586TIP3    H138249   5.366   4.215   1.611 -1.6394  0.1460 -0.1352
 5586TIP3    H238250   5.302   4.313   1.708  0.0989  0.3908  0.8205
 5587TIP3   OH238251   3.441   4.325   5.572  0.3293 -0.4233  0.2306
 5587TIP3    H138252   3.385   4.403   5.570 -0.5796 -0.9576  2.1565
 5587TIP3    H238253   3.530   4.358   5.563 -0.1714  0.6211 -1.1146
 5588TIP3   OH238254   2.911   0.920   3.337 -0.7199  0.1370 -0.1833
 5588TIP3    H138255   2.848   0.849   3.354  1.1377 -1.0698  2.1030
 5588TIP3    H238256   2.949   0.897   3.252 -0.8694 -1.0549  0.0510
 5589TIP3   OH238257   2.841   2.401   2.857  0.3209 -0.4816 -0.0326
 5589TIP3    H138258   2.890   2.443   2.927 -1.3750  0.5866  0.5791
 5589TIP3    H238259   2.805   2.322   2.896  1.3644 -1.1729 -0.4308
 5590TIP3   OH238260   1.175   6.161  10.771 -0.4468 -0.4818  0.7635
 5590TIP3    H138261   1.123   6.191  10.697  2.0032  0.2163 -0.7957
 5590TIP3    H238262   1.139   6.075  10.793  0.0045 -1.7133 -2.6502
 5591TIP3   OH238263   4.708   6.479   1.681 -0.0110 -0.2089 -0.2729
 5591TIP3    H138264   4.781   6.416   1.678 -0.4091 -0.6943  0.0658
 5591TIP3    H238265   4.750   6.564   1.669  0.6566 -0.4559  0.2061
 5592TIP3   OH238266   1.515   5.225   2.199 -0.0278 -0.1903 -0.4218
 5592TIP3    H138267   1.503   5.313   2.233  0.4973  0.0008 -0.7188
 5592TIP3    H238268   1.442   5.175   2.235 -1.3897  0.7860 -1.7050
 5593TIP3   OH238269   0.696   0.193  15.799  0.1710 -0.8689 -0.0069
 5593TIP3    H138270   0.606   0.190  15.766  0.4236  1.0193 -0.9753
 5593TIP3    H238271   0.685   0.195  15.895 -0.8975  0.4293 -0.1192
 5594TIP3   OH238272   1.141   5.328   1.810 -0.4423 -0.1147  0.0451
 5594TIP3    H138273   1.196   5.335   1.888 -1.4388  0.5567  0.7091
 5594TIP3    H238274   1.158   5.408   1.761  1.1512 -1.0969 -1.1274
 5595TIP3   OH238275   1.699   3.620   6.647 -0.0729  0.6068 -0.1357
 5595TIP3    H138276   1.704   3.589   6.556 -1.5424 -0.3482  0.0742
 5595TIP3    H238277   1.768   3.687   6.653  2.2497 -1.5540 -1.0186
 5596TIP3   OH238278   0.305   3.253   4.044 -0.0786 -0.0458  0.5325
 5596TIP3    H138279   0.336   3.212   4.124  0.1367 -0.6951  0.1198
 5596TIP3    H238280   0.278   3.341   4.071 -1.5527 -0.7902  1.6433
 5597TIP3   OH238281   2.228   4.616  10.842 -0.2345  0.0670 -0.0969
 5597TIP3    H138282   2.233   4.699  10.794  0.4219  0.4772  0.6355
 5597TIP3    H238283   2.308   4.570  10.818 -0.4781 -0.2486 -0.3072
 5598TIP3   OH238284   6.234   2.937   1.412 -0.8715  0.1800  0.3090
 5598TIP3    H138285   6.231   2.841   1.420 -2.6744  0.1101 -0.7599
 5598TIP3    H238286   6.163   2.968   1.468 -0.8720  0.8457 -0.0590
 5599TIP3   OH238287   5.911   3.918  10.820  0.2030 -0.0523  0.5247
 5599TIP3    H138288   5.827   3.963  10.825 -1.0674 -2.1470 -0.5926
 5599TIP3    H238289   5.940   3.931  10.730  0.1558 -0.8664  0.3859
 5600TIP3   OH238290   2.232   1.781   0.365  0.3552 -0.0141  0.5399
 5600TIP3    H138291   2.175   1.858   0.363  0.7297  0.2609  0.3187
 5600TIP3    H238292   2.317   1.814   0.337  0.2373 -0.7592 -0.7428
 5601TIP3   OH238293   4.003   2.785  15.686 -0.4249  0.4009  0.1990
 5601TIP3    H138294   4.083   2.775  15.635 -0.3080  0.4404  0.3709
 5601TIP3    H238295   3.951   2.707  15.665 -1.2443  1.3510 -1.4765
 5602TIP3   OH238296   2.272   1.599   5.117  0.3661 -0.0667 -0.3935
 5602TIP3    H138297   2.356   1.555   5.108  0.5770  0.6485 -2.1913
 5602TIP3    H238298   2.288   1.668   5.182  0.8431 -0.6298  0.1022
 5603TIP3   OH238299   1.409   1.934  12.271  0.0256  0.0247  0.2530
 5603TIP3    H138300   1.343   1.961  12.336 -0.5182  2.3896 -1.1428
 5603TIP3    H238301   1.358   1.915  12.192  0.7654 -1.7719  0.1662
 5604TIP3   OH238302   3.118   0.638   5.785 -0.4609 -0.3523 -0.0004
 5604TIP3    H138303   3.211   0.627   5.764 -0.3124  1.9335 -0.7961
 5604TIP3    H238304   3.118   0.687   5.867 -1.0146 -1.4774  0.6973
 5605TIP3   OH238305   2.890   5.599   5.166  0.1605 -0.4908 -0.0950
 5605TIP3    H138306   2.933   5.523   5.127  0.1747 -0.6301  0.1837
 5605TIP3    H238307   2.896   5.583   5.261 -1.1137 -0.8585 -0.0605
 5606TIP3   OH238308   4.766   6.600   1.434  0.0598  0.1462  0.2100
 5606TIP3    H138309   4.748   6.507   1.447 -0.4032  0.2215  0.1279
 5606TIP3    H238310   4.759   6.638   1.522 -1.9241  0.4608 -0.0370
 5607TIP3   OH238311   6.709   6.616   6.060 -0.6799  0.3699  0.2841
 5607TIP3    H138312   6.718   6.700   6.104  0.0123  0.2597  0.3655
 5607TIP3    H238313   6.649   6.566   6.115  0.5772  0.0409  1.4279
 5608TIP3   OH238314   0.020   3.541  14.828 -0.1518 -0.8702  0.3402
 5608TIP3    H138315  -0.025   3.625  14.839 -1.5751 -1.6061  0.4545
 5608TIP3    H238316   0.074   3.532  14.907 -1.0459 -0.6627  1.0000
 5609TIP3   OH238317   3.199   5.828   1.406 -0.1586  0.0660  0.4321
 5609TIP3    H138318   3.116   5.784   1.386 -0.6753  1.9212 -2.0452
 5609TIP3    H238319   3.174   5.901   1.463 -0.2093  0.4741 -0.1062
 5610TIP3   OH238320   5.510   1.161   3.626  0.0881 -0.1357 -0.2124
 5610TIP3    H138321   5.572   1.090   3.641  0.7550  0.4505 -0.1652
 5610TIP3    H238322   5.564   1.237   3.606 -0.4846  0.9520  2.0212
 5611TIP3   OH238323   1.331   0.937  15.949  0.0784 -0.3869 -0.4532
 5611TIP3    H138324   1.375   1.020  15.968 -0.8739 -0.2796  1.5836
 5611TIP3    H238325   1.260   0.961  15.889 -0.3070  0.3395  0.2701
 5612TIP3   OH238326   1.627   0.952  11.907  0.0324  0.1850 -0.3075
 5612TIP3    H138327   1.652   0.882  11.967 -0.1383  1.2216  1.0244
 5612TIP3    H238328   1.562   1.003  11.956  0.5640  1.5886 -1.0135
 5613TIP3   OH238329   3.108   3.735  11.915 -0.1028 -0.0262  0.4516
 5613TIP3    H138330   3.167   3.792  11.963  1.5101 -0.0792 -1.3733
 5613TIP3    H238331   3.045   3.795  11.873 -0.7690  0.0953  1.5784
 5614TIP3   OH238332   0.287   1.579  14.242 -0.0124 -0.0227  0.1691
 5614TIP3    H138333   0.381   1.593  14.227  0.2183 -0.1597  1.4060
 5614TIP3    H238334   0.266   1.635  14.317 -0.5473 -1.2026  0.9361
 5615TIP3   OH238335   3.093   2.799  16.693 -0.1111 -0.3433  0.1095
 5615TIP3    H138336   3.031   2.796  16.620  1.2734 -2.6034 -1.1037
 5615TIP3    H238337   3.151   2.873  16.672 -0.8687  0.2053 -0.0692
 5616TIP3   OH238338   0.598   2.639   2.397  0.2593  0.1402 -0.5408
 5616TIP3    H138339   0.691   2.633   2.375  0.5403 -1.5634  0.9040
 5616TIP3    H238340   0.585   2.732   2.415  1.9612  0.2612  0.3262
 5617TIP3   OH238341   4.714   4.610  13.931 -0.4548 -0.7025 -0.4329
 5617TIP3    H138342   4.749   4.600  13.842  2.4646  0.5165  0.4335
 5617TIP3    H238343   4.758   4.541  13.981 -1.2619 -0.7102  0.2758
 5618TIP3   OH238344   5.751   4.638  15.729  0.1476  0.4854 -0.3485
 5618TIP3    H138345   5.738   4.689  15.649  1.7932  0.2314 -0.8001
 5618TIP3    H238346   5.735   4.547  15.703  0.1376  0.4592 -0.2523
 5619TIP3   OH238347   0.681   6.674   2.390 -0.2563  0.5608  0.1118
 5619TIP3    H138348   0.619   6.688   2.318  0.9071 -0.3352 -1.1254
 5619TIP3    H238349   0.758   6.725   2.366  1.0055 -1.4839 -0.4839
 5620TIP3   OH238350   4.552   2.945   0.729 -0.2660  0.2920  0.5165
 5620TIP3    H138351   4.641   2.961   0.697 -0.2089  1.8708  1.3178
 5620TIP3    H238352   4.560   2.950   0.824 -1.0855 -0.3610  0.6293
 5621TIP3   OH238353   2.834   4.533   2.673 -0.5560 -0.5229  0.3680
 5621TIP3    H138354   2.810   4.450   2.714  0.1806 -0.4643  0.9288
 5621TIP3    H238355   2.928   4.542   2.688 -0.7357  0.7282  0.9009
 5622TIP3   OH238356   2.287   1.614  10.946 -0.0545 -0.0263  0.1020
 5622TIP3    H138357   2.286   1.525  10.980  2.1923 -1.2789 -2.7695
 5622TIP3    H238358   2.218   1.616  10.880 -0.1005  0.4080  0.1558
 5623TIP3   OH238359   1.663   5.839  11.900 -0.4980 -0.4993  0.3506
 5623TIP3    H138360   1.609   5.917  11.913  0.8664  0.1462  2.6969
 5623TIP3    H238361   1.712   5.856  11.819  0.0059  1.2343  0.9982
 5624TIP3   OH238362   6.583   0.665  16.543 -0.1082  0.2915  0.1657
 5624TIP3    H138363   6.659   0.610  16.563 -1.8569 -2.1593  0.4624
 5624TIP3    H238364   6.615   0.754  16.557  2.9366 -0.5452 -0.5366
 5625TIP3   OH238365   0.245   0.604   2.860 -0.4489 -0.3143  0.0089
 5625TIP3    H138366   0.270   0.584   2.770  0.3724  1.4030 -0.1807
 5625TIP3    H238367   0.149   0.599   2.859 -0.8423  3.6171 -2.0796
 5626TIP3   OH238368   2.653   2.746  15.210 -0.5009 -0.3910 -0.1477
 5626TIP3    H138369   2.708   2.724  15.285  0.0698  0.5356 -0.2747
 5626TIP3    H238370   2.618   2.662  15.180  0.6921 -0.9901  0.0659
 5627TIP3   OH238371   3.209   5.784  13.904  0.1654  0.0429  0.0322
 5627TIP3    H138372   3.258   5.833  13.970  0.9319  1.3078 -1.4021
 5627TIP3    H238373   3.131   5.837  13.888 -0.6933 -0.9463  0.8666
 5628TIP3   OH238374   2.653   1.717  15.713  0.2426  0.1668  0.7637
 5628TIP3    H138375   2.672   1.635  15.759  2.0890  0.9112  1.4268
 5628TIP3    H238376   2.652   1.694  15.621 -4.5655 -1.5866  0.9602
 5629TIP3   OH238377   1.292   1.757   4.987 -0.2176  0.7298  0.0583
 5629TIP3    H138378   1.367   1.699   4.997  0.5880  1.7867  0.3553
 5629TIP3    H238379   1.216   1.699   4.990  0.6194 -0.6096 -2.1781
 5630TIP3   OH238380   6.684   4.664   2.303 -0.4829 -0.4128  0.0338
 5630TIP3    H138381   6.751   4.650   2.370 -0.6691 -0.9978  0.0969
 5630TIP3    H238382   6.603   4.680   2.352 -0.2924  0.8762 -0.0311
 5631TIP3   OH238383   3.441   5.592  10.807 -0.4220 -0.3483 -0.3176
 5631TIP3    H138384   3.457   5.608  10.714 -1.4881  0.4696 -0.3881
 5631TIP3    H238385   3.413   5.501  10.811  0.1626 -0.5521 -0.7159
 5632TIP3   OH238386   3.708   0.853  11.605 -0.1045  0.1595 -0.2944
 5632TIP3    H138387   3.717   0.774  11.553 -0.5779  0.1109 -0.3135
 5632TIP3    H238388   3.694   0.923  11.540  0.4868  0.2873 -0.2857
 5633TIP3   OH238389   6.610   2.518   3.968  0.2721 -0.2666  0.1570
 5633TIP3    H138390   6.584   2.555   4.053  2.2302 -0.1192  0.7431
 5633TIP3    H238391   6.547   2.448   3.952 -0.7228  0.3349  1.2458
 5634TIP3   OH238392   4.648   5.769   6.216 -0.1122  0.4020 -0.6960
 5634TIP3    H138393   4.640   5.792   6.123 -1.4589 -0.0454 -0.7144
 5634TIP3    H238394   4.735   5.729   6.224  0.0877  0.6057 -1.7237
 5635TIP3   OH238395   4.363   5.404  13.690  0.2759  0.3415 -0.1144
 5635TIP3    H138396   4.297   5.366  13.748  0.5716 -1.6619 -0.9896
 5635TIP3    H238397   4.320   5.408  13.604  0.7685  0.4939 -0.3598
 5636TIP3   OH238398   6.401   2.354  14.830 -0.7959 -0.2285  0.0459
 5636TIP3    H138399   6.331   2.410  14.796 -2.4983 -2.6918 -0.7964
 5636TIP3    H238400   6.436   2.310  14.752  0.9104  0.0396  0.6073
 5637TIP3   OH238401   3.901   0.436   6.038 -0.3453 -0.5672 -0.2429
 5637TIP3    H138402   3.872   0.522   6.006  0.7754 -0.0282  0.1166
 5637TIP3    H238403   3.938   0.454   6.124 -2.4098 -1.8399  1.0019
 5638TIP3   OH238404   3.966   1.319  15.943  0.5583 -0.1736 -0.0177
 5638TIP3    H138405   4.044   1.302  15.890 -0.4213  0.4976 -1.7774
 5638TIP3    H238406   3.917   1.384  15.893 -1.5453 -1.1854  0.6084
 5639TIP3   OH238407   1.055   5.522  13.981  0.0766 -0.2914 -0.0145
 5639TIP3    H138408   1.141   5.526  14.023  0.2000  1.3374 -0.3402
 5639TIP3    H238409   1.063   5.578  13.904 -1.1646 -0.4070 -0.2533
 5640TIP3   OH238410   3.065   3.002   6.240  0.2823 -0.1823 -0.3015
 5640TIP3    H138411   3.022   3.053   6.309  0.6992  0.8871 -0.8272
 5640TIP3    H238412   3.141   2.962   6.283 -0.3399 -0.8152  0.2407
 5641TIP3   OH238413   2.595   5.239  16.068  0.5372 -0.5023 -0.5787
 5641TIP3    H138414   2.508   5.213  16.098  0.3812 -1.7718 -2.0164
 5641TIP3    H238415   2.637   5.276  16.146 -1.3557  0.3875  0.0790
 5642TIP3   OH238416   5.539   4.223   5.888 -0.0314 -0.1087  0.7535
 5642TIP3    H138417   5.581   4.298   5.845  1.3816 -0.0837  2.0940
 5642TIP3    H238418   5.450   4.221   5.851  1.1483 -0.3024 -2.3359
 5643TIP3   OH238419   4.470   4.543  13.834  0.0560  0.1640 -0.0895
 5643TIP3    H138420   4.538   4.606  13.858 -0.1422  0.5143 -0.4348
 5643TIP3    H238421   4.388   4.585  13.860 -0.1732  0.6042 -1.4729
 5644TIP3   OH238422   4.402   6.779   3.327 -0.4022 -0.0414  0.4624
 5644TIP3    H138423   4.367   6.868   3.329 -0.5207 -0.0427 -0.6413
 5644TIP3    H238424   4.445   6.773   3.241  0.2479 -0.8052  0.8348
 5645TIP3   OH238425   5.268   5.586   4.116 -0.4625  0.0176  0.2078
 5645TIP3    H138426   5.295   5.496   4.100  1.4029  0.6663 -0.5232
 5645TIP3    H238427   5.182   5.578   4.158 -0.8504 -2.0472 -0.8595
 5646TIP3   OH238428   4.779   2.506  13.803 -0.2155  0.4218 -0.2374
 5646TIP3    H138429   4.739   2.583  13.844  0.1886  0.5295 -0.0463
 5646TIP3    H238430   4.873   2.522  13.807 -0.0739 -0.4929  0.6441
 5647TIP3   OH238431   4.446   5.904   0.490 -0.4426 -0.1466 -0.1116
 5647TIP3    H138432   4.470   5.819   0.455  1.1755  1.4332 -3.2905
 5647TIP3    H238433   4.522   5.960   0.473 -1.6840  2.1147  1.1743
 5648TIP3   OH238434   2.064   2.356   4.728 -0.4651  0.4507 -0.3398
 5648TIP3    H138435   2.065   2.438   4.777 -0.8538  0.3490 -0.1559
 5648TIP3    H238436   1.984   2.312   4.757 -1.6032  1.1163 -2.2422
 5649TIP3   OH238437   3.153   6.469  15.289  0.5896 -0.2903  0.6504
 5649TIP3    H138438   3.128   6.401  15.351 -0.1591 -1.1470 -0.5497
 5649TIP3    H238439   3.092   6.541  15.306  0.1985 -0.6361  0.7221
 5650TIP3   OH238440   5.957   3.002   4.547  0.5664  0.1296 -0.2273
 5650TIP3    H138441   5.998   3.069   4.493 -3.0993  2.2681 -0.6635
 5650TIP3    H238442   5.975   3.029   4.637  1.0823  0.3388 -0.3925
 5651TIP3   OH238443   1.590   0.283   1.291  0.4834 -0.4500 -0.2781
 5651TIP3    H138444   1.528   0.227   1.245  1.7412 -0.5207 -1.9874
 5651TIP3    H238445   1.566   0.275   1.383 -2.0724 -0.3773 -0.8682
 5652TIP3   OH238446   1.675   4.617  13.702 -0.1267  0.0054 -0.5484
 5652TIP3    H138447   1.614   4.633  13.773 -0.2726  1.2624 -0.9377
 5652TIP3    H238448   1.719   4.701  13.688  0.8455 -0.5653 -1.0654
 5653TIP3   OH238449   3.846   6.816   1.604  0.4690  0.3448  0.4508
 5653TIP3    H138450   3.921   6.873   1.619  1.6703 -0.9119 -0.4286
 5653TIP3    H238451   3.821   6.832   1.513  1.0270 -0.7100  0.0908
 5654TIP3   OH238452   3.615   6.253  11.273  0.4560  0.1552  0.1970
 5654TIP3    H138453   3.710   6.263  11.277  0.6177 -0.0942 -1.8921
 5654TIP3    H238454   3.583   6.306  11.346  2.1723  0.3211  0.8975
 5655TIP3   OH238455   2.426   3.459   6.017  0.4371  0.0645 -0.3474
 5655TIP3    H138456   2.433   3.550   5.990 -1.1557 -0.1566 -1.6132
 5655TIP3    H238457   2.464   3.457   6.105 -1.1283  2.2987  0.4652
 5656TIP3   OH238458   0.165   0.975  16.561  0.3207 -0.2798  0.0114
 5656TIP3    H138459   0.088   1.025  16.533 -0.1058 -0.5363  0.7185
 5656TIP3    H238460   0.212   1.035  16.619 -0.5304 -0.8939  1.3865
 5657TIP3   OH238461   3.034   1.407   4.941 -0.0074  0.1781 -0.1351
 5657TIP3    H138462   3.055   1.352   4.866  1.9344  0.6922 -0.0235
 5657TIP3    H238463   3.045   1.350   5.017 -1.0475 -0.0887 -0.1739
 5658TIP3   OH238464   0.616   2.534   5.600  0.0569 -1.1021  0.0795
 5658TIP3    H138465   0.520   2.537   5.600  0.0431  1.6579 -0.9012
 5658TIP3    H238466   0.640   2.548   5.508  1.3717 -0.1624  0.5383
 5659TIP3   OH238467   4.135   5.112   1.097  0.0684 -0.0174 -0.0816
 5659TIP3    H138468   4.046   5.121   1.131  0.0783 -1.2431  0.3101
 5659TIP3    H238469   4.124   5.076   1.009  0.1905 -0.9982  0.2916
 5660TIP3   OH238470   0.950   5.765  11.626 -0.5381 -0.5698  0.1297
 5660TIP3    H138471   0.954   5.705  11.700 -1.9184 -1.5856 -0.5727
 5660TIP3    H238472   0.931   5.850  11.666 -1.8293 -1.2058  0.9358
 5661TIP3   OH238473   5.110   1.631   5.776  0.0062  0.1508  0.0268
 5661TIP3    H138474   5.146   1.632   5.688  0.5901  0.1816  0.2639
 5661TIP3    H238475   5.135   1.716   5.813 -0.6985  0.3579  0.0376
 5662TIP3   OH238476   0.377   1.275  11.042 -0.2800  0.3590  0.0740
 5662TIP3    H138477   0.440   1.345  11.060 -0.2613  0.6090 -0.9178
 5662TIP3    H238478   0.292   1.317  11.050 -0.2518  0.6798 -1.2427
 5663TIP3   OH238479   4.647   4.613   0.415 -0.1299  0.2757 -0.0240
 5663TIP3    H138480   4.665   4.698   0.456 -0.8879  0.2395  0.4178
 5663TIP3    H238481   4.554   4.597   0.434 -0.5968  0.3682 -1.9613
 5664TIP3   OH238482   1.349   3.139   6.206 -0.2249 -0.2083  0.2696
 5664TIP3    H138483   1.260   3.104   6.201 -0.6535  0.8543  0.1372
 5664TIP3    H238484   1.346   3.220   6.154  1.3581 -1.2116 -1.5515
 5665TIP3   OH238485   4.505   4.942   5.764  0.1730  0.3553  0.3296
 5665TIP3    H138486   4.512   4.865   5.708 -1.2391  0.4863 -0.0597
 5665TIP3    H238487   4.506   5.016   5.703  0.8236  0.6153  0.6507
 5666TIP3   OH238488   6.489   5.474  11.587 -0.2565 -0.4271  0.3817
 5666TIP3    H138489   6.583   5.467  11.571 -0.6057  0.6764 -2.7852
 5666TIP3    H238490   6.461   5.384  11.600  0.8659 -1.1306 -1.5851
 5667TIP3   OH238491   0.013   0.510  11.089  0.2336 -0.4167  0.0003
 5667TIP3    H138492   0.030   0.424  11.049  1.8118 -0.2615  0.2994
 5667TIP3    H238493   0.015   0.571  11.015 -1.4266 -0.6648 -0.2936
 5668TIP3   OH238494   5.843   4.454   4.142  0.0234 -0.0441 -0.3263
 5668TIP3    H138495   5.794   4.519   4.192 -0.2549 -0.8112  0.4221
 5668TIP3    H238496   5.776   4.397   4.105  0.2669  0.0692 -0.9581
 5669TIP3   OH238497   5.335   6.713   6.280  0.3510  0.0789 -0.1814
 5669TIP3    H138498   5.336   6.695   6.186  1.2581  0.8141 -0.3249
 5669TIP3    H238499   5.406   6.776   6.293 -0.7473  1.1529  0.7758
 5670TIP3   OH238500   0.262   2.916  15.665  0.3047  0.8805  0.1563
 5670TIP3    H138501   0.349   2.925  15.625 -0.3863  2.4522 -1.1035
 5670TIP3    H238502   0.278   2.921  15.759  1.5725  1.1268 -0.0518
 5671TIP3   OH238503   0.092   0.361  14.629  0.1545 -0.0342 -0.1680
 5671TIP3    H138504   0.084   0.323  14.717 -0.2531  1.3552  0.4197
 5671TIP3    H238505   0.145   0.298  14.581  0.9128 -0.5320  1.2568
 5672TIP3   OH238506   5.402   2.553  17.050  0.0236 -0.5390 -0.0195
 5672TIP3    H138507   5.363   2.545  16.963 -0.9303  0.8636  0.2403
 5672TIP3    H238508   5.394   2.646  17.071  1.1792 -0.6723  1.1479
 5673TIP3   OH238509   3.367   4.438  11.940 -0.1832  0.0979  0.0866
 5673TIP3    H138510   3.345   4.389  12.019  0.5603 -0.7139 -0.1939
 5673TIP3    H238511   3.327   4.524  11.953 -1.7329 -0.6535  0.4760
 5674TIP3   OH238512   5.046   5.540   0.916 -0.2644 -0.0516  0.8174
 5674TIP3    H138513   5.050   5.583   0.831 -0.5912 -1.7260 -0.0973
 5674TIP3    H238514   5.109   5.588   0.970  1.7523 -0.3957 -1.0660
 5675TIP3   OH238515   6.057   4.513   6.104  0.6179  0.2484 -0.2554
 5675TIP3    H138516   6.139   4.508   6.154 -0.5768 -3.1582  1.6652
 5675TIP3    H238517   5.988   4.516   6.170 -0.9281 -1.1489 -1.7139
 5676TIP3   OH238518   6.183   5.198   2.584 -0.3968 -0.1992 -1.0700
 5676TIP3    H138519   6.214   5.288   2.569 -1.7225  0.0508 -2.7111
 5676TIP3    H238520   6.087   5.205   2.579 -0.5696 -1.5517 -0.1690
 5677TIP3   OH238521   6.636   1.418   2.859  0.0255  0.4639  0.1887
 5677TIP3    H138522   6.564   1.463   2.814 -0.0004  0.7022  0.4590
 5677TIP3    H238523   6.597   1.387   2.941 -0.6433 -2.3038 -1.0606
 5678TIP3   OH238524   2.927   6.678   4.733  0.0912  0.1328  0.9641
 5678TIP3    H138525   2.852   6.719   4.689  1.1287  0.0121 -1.0611
 5678TIP3    H238526   2.909   6.689   4.826 -2.7941 -0.5687  0.5822
 5679TIP3   OH238527   1.764   4.043   0.025  0.2565 -0.7758 -0.2298
 5679TIP3    H138528   1.806   4.047   0.111  0.7306 -1.4504 -0.4281
 5679TIP3    H238529   1.733   4.132   0.010 -0.4345 -0.7922  0.9404
 5680TIP3   OH238530   2.358   0.112  15.490 -0.0810  0.4181 -0.2202
 5680TIP3    H138531   2.371   0.061  15.410 -0.9214 -0.5721  0.2595
 5680TIP3    H238532   2.420   0.074  15.553  1.6781  2.1672 -0.7750
 5681TIP3   OH238533   4.803   3.822   4.264  0.3750 -0.7743 -0.2853
 5681TIP3    H138534   4.806   3.822   4.359 -0.6423 -1.8163 -0.2377
 5681TIP3    H238535   4.825   3.732   4.239  1.3701 -0.3349 -1.0820
 5682TIP3   OH238536   2.630   3.896   5.327 -0.2419  0.6737  0.2991
 5682TIP3    H138537   2.628   3.977   5.378  2.7764  0.4782  0.9575
 5682TIP3    H238538   2.568   3.838   5.372 -0.7040  1.8673  1.2478
 5683TIP3   OH238539   1.641   2.408  13.712 -0.2162  0.2076  0.1180
 5683TIP3    H138540   1.651   2.385  13.805 -1.6810 -0.1285  0.2251
 5683TIP3    H238541   1.729   2.401  13.676  0.0377 -1.9290  0.9817
 5684TIP3   OH238542   5.675   3.657  12.127 -0.2970  0.6088  0.2990
 5684TIP3    H138543   5.750   3.708  12.158  0.4850 -0.5500  0.4206
 5684TIP3    H238544   5.697   3.567  12.151 -0.8519 -0.0026 -1.3556
 5685TIP3   OH238545   0.958   0.795  12.876  0.1359 -0.0487  0.2462
 5685TIP3    H138546   0.994   0.730  12.936  1.9525 -0.8123 -1.5611
 5685TIP3    H238547   0.923   0.744  12.803  1.7748  0.9307 -1.2996
 5686TIP3   OH238548   0.057   5.360   2.673  0.1732 -0.4209 -0.3133
 5686TIP3    H138549   0.041   5.283   2.729  1.9923  0.8396  2.1230
 5686TIP3    H238550   0.025   5.434   2.725  1.3161  0.7689 -1.2443
 5687TIP3   OH238551   0.426   2.837   3.981 -0.5971 -0.1561 -0.1072
 5687TIP3    H138552   0.403   2.920   3.940 -0.5898  0.1159  0.4291
 5687TIP3    H238553   0.514   2.818   3.950  0.5936  1.4820  1.9424
 5688TIP3   OH238554   3.354   3.342  15.924  0.1672  0.4030 -0.0469
 5688TIP3    H138555   3.269   3.341  15.880 -0.0582 -0.6809  0.3891
 5688TIP3    H238556   3.368   3.251  15.951  1.4923  0.5580 -0.1567
 5689TIP3   OH238557   4.976   6.560   3.015  0.0828  0.2063  0.0207
 5689TIP3    H138558   4.906   6.516   3.063  0.1372 -0.5473 -0.5653
 5689TIP3    H238559   5.014   6.621   3.078 -0.0012 -0.5939  0.8648
 5690TIP3   OH238560   1.567   3.416   0.216 -0.0288  0.4797 -0.0628
 5690TIP3    H138561   1.618   3.383   0.142 -0.8041 -2.6455  0.6523
 5690TIP3    H238562   1.632   3.452   0.276  0.9270  0.1790 -0.8934
 5691TIP3   OH238563   0.371   4.364   4.817  0.3351  0.0706 -0.1817
 5691TIP3    H138564   0.282   4.380   4.849  0.2581 -2.2042  0.9381
 5691TIP3    H238565   0.383   4.427   4.746 -1.8985  0.8965  0.1021
 5692TIP3   OH238566   6.059   6.655   1.820 -0.0056  0.0782 -0.1130
 5692TIP3    H138567   6.001   6.588   1.783 -0.5015  0.2116  0.4012
 5692TIP3    H238568   6.140   6.646   1.771 -0.2257 -0.5865 -0.3756
 5693TIP3   OH238569   3.119   3.942   0.840  0.2688  1.1899 -0.1194
 5693TIP3    H138570   3.075   4.027   0.837 -0.5399  0.7616 -0.5654
 5693TIP3    H238571   3.148   3.934   0.931 -1.4122  1.0656  0.4335
 5694TIP3   OH238572   2.229   6.098  12.120  0.0563 -0.0812 -0.3376
 5694TIP3    H138573   2.308   6.081  12.069  0.5707  3.3736 -0.9713
 5694TIP3    H238574   2.157   6.082  12.060  0.2913 -1.6755 -0.2479
 5695TIP3   OH238575   5.634   1.719   0.021  1.0248  0.1290  0.2024
 5695TIP3    H138576   5.701   1.694  -0.041  2.2083  0.0656  1.4472
 5695TIP3    H238577   5.638   1.652   0.089 -0.2044  0.2108  0.3729
 5696TIP3   OH238578   4.514   2.368   5.867  0.5442  0.0261 -0.1123
 5696TIP3    H138579   4.607   2.347   5.876  0.6446 -0.0018 -1.1222
 5696TIP3    H238580   4.507   2.408   5.780 -0.0774  1.7963  0.6967
 5697TIP3   OH238581   0.196   4.903  12.834  0.0099  0.9119  0.2741
 5697TIP3    H138582   0.105   4.884  12.808 -0.6855  2.3103  1.5226
 5697TIP3    H238583   0.239   4.817  12.834 -0.7317  0.4519 -2.2864
 5698TIP3   OH238584   5.950   6.156   5.687 -0.0435 -0.2433  0.0303
 5698TIP3    H138585   5.989   6.182   5.771  0.1375  0.5251 -0.2740
 5698TIP3    H238586   5.962   6.233   5.631 -1.5537 -0.1709 -0.2327
 5699TIP3   OH238587   0.713   0.371  14.989  0.2976 -0.2277 -0.3951
 5699TIP3    H138588   0.728   0.283  14.955  0.0752  0.5184 -2.5573
 5699TIP3    H238589   0.788   0.422  14.959 -0.5403  0.7534 -0.9138
 5700TIP3   OH238590   0.550   4.257  11.384  0.3799 -0.1524  0.3229
 5700TIP3    H138591   0.638   4.232  11.357  0.5743  0.2354  0.5909
 5700TIP3    H238592   0.509   4.292  11.304  0.6368  0.1304  0.3166
 5701TIP3   OH238593   3.825   6.131   2.537 -0.6601 -0.0645 -0.0108
 5701TIP3    H138594   3.899   6.071   2.541 -0.1777  0.5375  0.2523
 5701TIP3    H238595   3.853   6.202   2.479 -0.3244  1.0696  1.4527
 5702TIP3   OH238596   2.995   2.439   2.091 -0.5148 -0.5133 -0.3484
 5702TIP3    H138597   2.933   2.461   2.021 -0.0912 -0.2735 -0.6493
 5702TIP3    H238598   2.960   2.358   2.128 -1.0842 -0.3099 -0.4274
 5703TIP3   OH238599   6.607   0.307   0.528 -0.4435  0.2600  0.4853
 5703TIP3    H138600   6.669   0.290   0.600 -0.1913  0.5903  0.3492
 5703TIP3    H238601   6.616   0.400   0.511  0.5588 -0.0806 -0.9517
 5704TIP3   OH238602   5.965   3.575   0.024  0.7516 -0.2386  0.2852
 5704TIP3    H138603   6.014   3.533   0.095  1.3463 -0.7473 -0.4083
 5704TIP3    H238604   5.896   3.512   0.002  0.2677  0.1290  0.7238
 5705TIP3   OH238605   1.933   4.294   3.971  0.2548  0.2133 -0.2120
 5705TIP3    H138606   2.000   4.289   4.040  0.4396 -1.5228 -0.4811
 5705TIP3    H238607   1.867   4.355   4.006  1.1917  0.7247  0.7291
 5706TIP3   OH238608   2.784   1.458  15.012 -0.5015  0.1293  0.0443
 5706TIP3    H138609   2.824   1.379  15.049  3.2158  0.8856 -1.7956
 5706TIP3    H238610   2.825   1.467  14.925 -1.9353  3.2183 -0.4480
 5707TIP3   OH238611   2.865   3.557   2.860 -0.1753 -0.3197 -0.5447
 5707TIP3    H138612   2.823   3.546   2.774 -2.3911  1.2744  0.2225
 5707TIP3    H238613   2.929   3.627   2.847 -0.4030 -0.1788 -0.9289
 5708TIP3   OH238614   1.382   2.286  13.229  0.6598 -0.2367 -0.0955
 5708TIP3    H138615   1.423   2.323  13.307  2.4369  2.1257 -1.9724
 5708TIP3    H238616   1.452   2.241  13.183  0.0194 -0.3201 -1.0308
 5709TIP3   OH238617   5.861   1.389  16.532 -0.1554 -0.2106  0.3931
 5709TIP3    H138618   5.949   1.356  16.550  0.4399  1.6735  1.1623
 5709TIP3    H238619   5.809   1.360  16.607  0.0232 -0.5112  0.4028
 5710TIP3   OH238620   2.173   1.673  12.744 -0.4181 -0.1933 -0.3291
 5710TIP3    H138621   2.114   1.665  12.819 -1.1845 -0.1276 -0.9137
 5710TIP3    H238622   2.199   1.584  12.723  0.2096 -0.1779  0.3181
 5711TIP3   OH238623   3.105   2.219  14.869 -0.3194 -0.4918 -0.4310
 5711TIP3    H138624   3.180   2.162  14.848  1.5876  0.7188  2.4305
 5711TIP3    H238625   3.137   2.308  14.853 -1.7541 -0.0001 -0.6948
 5712TIP3   OH238626   6.215   4.868   4.816 -0.0857 -0.7266  0.2037
 5712TIP3    H138627   6.208   4.773   4.828 -0.5169 -0.8110 -0.6576
 5712TIP3    H238628   6.193   4.883   4.724 -2.2176  0.3932  0.8019
 5713TIP3   OH238629   4.675   2.416  11.209  0.0002  0.2469  0.7057
 5713TIP3    H138630   4.687   2.490  11.149 -0.8284 -0.0331  0.1773
 5713TIP3    H238631   4.668   2.457  11.296 -0.5104  0.7999  0.4135
 5714TIP3   OH238632   0.540   4.135   3.964 -0.5698  0.1828  0.6309
 5714TIP3    H138633   0.447   4.133   3.942 -0.0671 -0.9030 -1.7302
 5714TIP3    H238634   0.584   4.135   3.879  1.6029 -1.0185  1.6860
 5715TIP3   OH238635   4.727   5.376  14.964 -0.3231  0.4365  0.2192
 5715TIP3    H138636   4.817   5.376  14.997  0.3453  0.4105 -1.4856
 5715TIP3    H238637   4.735   5.407  14.874 -1.8434 -0.8416 -0.4114
 5716TIP3   OH238638   6.646   0.898  15.257 -0.3255 -0.0254  0.0933
 5716TIP3    H138639   6.731   0.868  15.226 -0.6076  0.3891 -1.1141
 5716TIP3    H238640   6.635   0.856  15.342  1.2379  0.1911  0.4288
 5717TIP3   OH238641   1.453   4.730   4.136  0.1173 -0.9629  0.2573
 5717TIP3    H138642   1.548   4.721   4.143  0.2214 -0.1607  0.0605
 5717TIP3    H238643   1.420   4.703   4.222  0.8431  2.2215  1.7159
 5718TIP3   OH238644   5.069   4.505   3.596 -0.1697  0.2703 -0.5619
 5718TIP3    H138645   5.114   4.444   3.655  1.3426  0.3244 -1.5898
 5718TIP3    H238646   5.133   4.575   3.581 -0.0004 -0.3517 -3.1821
 5719TIP3   OH238647   0.042   2.887   2.147  0.2802 -0.4024 -0.0524
 5719TIP3    H138648   0.019   2.820   2.083 -0.1017 -1.2475  0.9527
 5719TIP3    H238649   0.007   2.968   2.110 -2.4979 -1.2989  0.4230
 5720TIP3   OH238650   0.286   0.016   0.854 -0.1490 -0.4309 -0.5529
 5720TIP3    H138651   0.283  -0.075   0.826 -1.1250  0.0227 -2.0664
 5720TIP3    H238652   0.201   0.030   0.897  0.0801 -0.2779 -0.1452
 5721TIP3   OH238653   3.273   5.022   2.504  0.2913  0.0897  0.5616
 5721TIP3    H138654   3.187   4.979   2.501 -1.6360  3.5962 -1.4108
 5721TIP3    H238655   3.283   5.049   2.595 -0.9058 -0.0305  0.7428
 5722TIP3   OH238656   6.709   2.249  16.855 -0.2042  0.0564 -0.4252
 5722TIP3    H138657   6.754   2.263  16.938 -0.3696  0.5843 -0.4173
 5722TIP3    H238658   6.678   2.159  16.859 -0.1923  0.0710  0.0740
 5723TIP3   OH238659   6.798   2.396   0.226 -0.3802 -0.5592 -0.0324
 5723TIP3    H138660   6.711   2.399   0.266 -0.7171 -1.0612 -0.7059
 5723TIP3    H238661   6.854   2.354   0.291 -0.6845 -0.4020  0.3319
 5724TIP3   OH238662   2.399   4.838  14.370 -0.3485  0.3030 -0.0713
 5724TIP3    H138663   2.343   4.821  14.445 -1.2365  0.9958 -0.5621
 5724TIP3    H238664   2.485   4.805  14.396 -0.2847  1.7740  1.7773
 5725TIP3   OH238665   5.413   6.731   5.214  0.6606 -0.4017 -0.3735
 5725TIP3    H138666   5.380   6.742   5.303 -0.0669  0.6417 -0.7529
 5725TIP3    H238667   5.427   6.820   5.182  1.0348 -0.7669 -1.2649
 5726TIP3   OH238668   0.153   4.859   0.572 -0.6982 -0.3763 -0.1034
 5726TIP3    H138669   0.111   4.931   0.618 -0.6447 -0.3006 -0.1729
 5726TIP3    H238670   0.246   4.881   0.571 -0.6568 -0.5439  0.0507
 5727TIP3   OH238671   5.097   3.492   4.366 -0.0044 -0.4397  0.0527
 5727TIP3    H138672   5.033   3.488   4.294 -1.2676  0.8737  1.0372
 5727TIP3    H238673   5.052   3.452   4.440  0.5361 -0.0263  0.6101
 5728TIP3   OH238674   0.789   1.169  16.339  0.7109  0.0021 -0.2713
 5728TIP3    H138675   0.749   1.195  16.256  1.2695  0.0652 -0.5295
 5728TIP3    H238676   0.759   1.080  16.354 -1.3249  0.7888  0.6836
 5729TIP3   OH238677   4.460   3.827   6.478  0.1507  0.2236  0.4037
 5729TIP3    H138678   4.498   3.898   6.530  1.1336  1.3170 -1.7219
 5729TIP3    H238679   4.367   3.847   6.473  0.2869  0.8861  0.5130
 5730TIP3   OH238680   0.913   6.148  14.059  0.3646 -0.1290  0.7179
 5730TIP3    H138681   0.822   6.139  14.085  0.0202  2.5979  0.6886
 5730TIP3    H238682   0.911   6.157  13.964  0.8125 -1.2047  0.5851
 5731TIP3   OH238683   3.220   0.665   1.079 -0.1752  0.2190 -0.2389
 5731TIP3    H138684   3.191   0.639   1.167 -1.9621  0.8233 -0.6133
 5731TIP3    H238685   3.145   0.710   1.041  0.4872 -0.2165 -2.1831
 5732TIP3   OH238686   5.688   4.685  14.138  0.1032 -0.0590  0.0770
 5732TIP3    H138687   5.624   4.614  14.135 -0.1490  0.1040  1.1501
 5732TIP3    H238688   5.726   4.687  14.050  0.6037 -1.9398  0.2059
 5733TIP3   OH238689   5.813   0.780   2.439  0.0787 -0.3210 -0.2257
 5733TIP3    H138690   5.748   0.720   2.475 -0.9379  0.8795  0.0069
 5733TIP3    H238691   5.845   0.830   2.514  0.9769 -0.6100 -0.4017
 5734TIP3   OH238692   4.806   5.503  12.181  0.2249  0.3342  0.0359
 5734TIP3    H138693   4.784   5.416  12.214  1.1075 -0.1377 -0.5739
 5734TIP3    H238694   4.855   5.544  12.251 -0.9194  0.6833  0.6620
 5735TIP3   OH238695   0.492   1.113   5.000 -0.2274  0.1138 -0.5450
 5735TIP3    H138696   0.489   1.144   4.910 -0.5922  1.9197  0.0598
 5735TIP3    H238697   0.519   1.189   5.051 -3.5907  0.2286  1.3088
 5736TIP3   OH238698   5.935   3.961   0.603  0.2495  0.0972 -0.3944
 5736TIP3    H138699   6.002   3.897   0.579 -1.5750 -1.4374 -1.6688
 5736TIP3    H238700   5.871   3.912   0.653 -2.6897  0.0293 -3.8267
 5737TIP3   OH238701   0.074   3.513  16.843  0.0552 -0.2482  0.3774
 5737TIP3    H138702   0.137   3.441  16.852 -1.0106 -1.4735 -1.3567
 5737TIP3    H238703  -0.011   3.471  16.857 -0.5013  1.0409  0.9811
 5738TIP3   OH238704   2.596   6.658   5.152  0.5277  0.3398 -0.4067
 5738TIP3    H138705   2.540   6.713   5.097  0.3065 -0.5032 -1.0483
 5738TIP3    H238706   2.543   6.640   5.230  0.0504 -0.1356 -0.8368
 5739TIP3   OH238707   2.143   1.213   2.210 -0.8112 -0.4420  0.2153
 5739TIP3    H138708   2.072   1.149   2.202  0.5737 -2.0368 -0.0522
 5739TIP3    H238709   2.100   1.293   2.239 -2.7053 -1.3480  0.0832
 5740TIP3   OH238710   0.239   2.875  14.581 -0.6306 -0.2443 -0.1401
 5740TIP3    H138711   0.320   2.857  14.629 -0.4245 -1.6388 -0.9711
 5740TIP3    H238712   0.182   2.802  14.602 -2.5044  1.6591  2.0277
 5741TIP3   OH238713   4.234   2.815  16.984  0.1217  0.2570 -0.1328
 5741TIP3    H138714   4.315   2.863  16.968  1.8342 -2.5583 -0.7750
 5741TIP3    H238715   4.175   2.841  16.914  2.2473 -1.0295 -2.5745
 5742TIP3   OH238716   1.285   1.820  15.519 -0.3000  0.1330  0.0994
 5742TIP3    H138717   1.210   1.761  15.504 -1.0172  1.0969 -0.1766
 5742TIP3    H238718   1.261   1.901  15.474  1.0890  0.3335 -0.3121
 5743TIP3   OH238719   6.307   3.106   5.077 -0.6216 -0.2474 -0.1413
 5743TIP3    H138720   6.350   3.084   5.159 -0.8746 -0.2269 -0.0031
 5743TIP3    H238721   6.268   3.191   5.092 -3.0709 -1.4218  0.6803
 5744TIP3   OH238722   4.790   3.347   2.627 -0.9295  0.2782  0.2214
 5744TIP3    H138723   4.720   3.412   2.633 -0.3245  0.8298  2.3362
 5744TIP3    H238724   4.771   3.285   2.698 -0.9565 -1.3705 -1.1394
 5745TIP3   OH238725   0.170   2.500  14.916  0.1128 -0.3515  0.2675
 5745TIP3    H138726   0.103   2.531  14.977 -1.4365  0.1892 -1.5768
 5745TIP3    H238727   0.253   2.511  14.963 -0.7814  2.1107  1.4710
 5746TIP3   OH238728   0.766   5.338   4.150  0.2460  0.7488  0.2653
 5746TIP3    H138729   0.701   5.316   4.084  0.8492 -1.6683  0.3892
 5746TIP3    H238730   0.754   5.273   4.219  2.9123  0.0359  0.1762
 5747TIP3   OH238731   6.254   5.952   2.731 -0.2799 -0.2716  1.0271
 5747TIP3    H138732   6.176   5.915   2.773  1.5469 -5.4115  0.6400
 5747TIP3    H238733   6.239   5.940   2.638  0.8439 -1.2846  0.9477
 5748TIP3   OH238734   0.224   0.138  11.600 -0.1579  0.3910 -0.6666
 5748TIP3    H138735   0.208   0.102  11.688  0.1381  0.0986 -0.7312
 5748TIP3    H238736   0.137   0.142  11.560 -0.2006 -0.2134 -0.6412
 5749TIP3   OH238737   6.819   6.759  11.588 -0.1640 -0.0018  0.3374
 5749TIP3    H138738   6.802   6.742  11.495  1.0261  2.2185 -0.3620
 5749TIP3    H238739   6.756   6.828  11.611 -0.3515 -0.4350  1.1582
 5750TIP3   OH238740   2.741   4.241   3.126  0.0236  0.0087  0.1187
 5750TIP3    H138741   2.799   4.316   3.112 -0.8436  0.5529 -0.6091
 5750TIP3    H238742   2.801   4.168   3.144  0.8587  0.9102  1.0442
 5751TIP3   OH238743   6.341   3.810   1.952  0.1299 -0.1442  0.5931
 5751TIP3    H138744   6.393   3.833   2.029  0.2373 -0.4520  0.6104
 5751TIP3    H238745   6.400   3.823   1.878 -0.0721  0.4717  0.5320
 5752TIP3   OH238746   5.704   4.741  11.084 -0.4448  0.1220 -0.3380
 5752TIP3    H138747   5.723   4.780  11.170 -0.6281  0.1121 -0.2927
 5752TIP3    H238748   5.629   4.791  11.051  0.4472  1.0359 -1.0909
 5753TIP3   OH238749   1.014   0.162  15.476  0.2496  0.3393 -0.0547
 5753TIP3    H138750   1.013   0.254  15.501 -0.5201  0.4815 -0.5907
 5753TIP3    H238751   0.928   0.146  15.438 -0.9297 -1.4437  2.9957
 5754TIP3   OH238752   4.130   3.881   5.965 -0.3693  0.7814  0.0553
 5754TIP3    H138753   4.209   3.854   5.919  0.1746 -0.0638  1.4055
 5754TIP3    H238754   4.064   3.816   5.940 -0.3861  0.9624 -0.3740
 5755TIP3   OH238755   1.891   5.913  11.421  0.0049  0.9893  0.6445
 5755TIP3    H138756   1.897   6.008  11.409  1.5565  0.9147  0.6972
 5755TIP3    H238757   1.960   5.878  11.365  0.8833  0.0331  2.2602
 5756TIP3   OH238758   0.892   0.444   1.495  0.0637  0.8606 -0.7406
 5756TIP3    H138759   0.923   0.429   1.585 -0.2500 -0.0433 -0.7690
 5756TIP3    H238760   0.969   0.430   1.441  0.6734  3.0614 -0.5270
 5757TIP3   OH238761   2.053   0.394   1.418  0.5958  0.1829  0.9227
 5757TIP3    H138762   1.969   0.378   1.374 -0.0461  0.3646  2.0381
 5757TIP3    H238763   2.089   0.307   1.432  0.2581  0.0610  1.0550
 5758TIP3   OH238764   0.364   6.097   1.615  0.3565 -0.0807 -0.2976
 5758TIP3    H138765   0.405   6.047   1.545  0.0401 -0.8839  0.0812
 5758TIP3    H238766   0.406   6.183   1.611 -1.0651  0.6220 -2.7949
 5759TIP3   OH238767   0.275   2.617   0.074 -0.0252  0.4099 -0.4182
 5759TIP3    H138768   0.271   2.552   0.144  0.5972 -0.5664 -1.2796
 5759TIP3    H238769   0.354   2.667   0.093  1.1210 -0.9899 -1.3877
 5760TIP3   OH238770   0.412   6.098   1.156 -0.4890  0.5776  0.1906
 5760TIP3    H138771   0.373   6.010   1.148  0.0070  0.3092  0.6672
 5760TIP3    H238772   0.449   6.115   1.069  0.6519 -0.2896  0.4832
 5761TIP3   OH238773   5.792   4.893  14.796 -0.1389 -0.1108  0.9510
 5761TIP3    H138774   5.792   4.961  14.728 -1.2497  0.5531  1.5844
 5761TIP3    H238775   5.863   4.919  14.855  0.7882 -0.6547  0.0945
 5762TIP3   OH238776   2.137   5.684   4.325 -0.1416  0.0759  0.2622
 5762TIP3    H138777   2.127   5.719   4.414  0.2637 -0.4120  0.5051
 5762TIP3    H238778   2.207   5.738   4.287  0.9173 -0.8351  0.8464
 5763TIP3   OH238779   5.347   0.824   2.213 -0.1138  0.7030  0.6436
 5763TIP3    H138780   5.421   0.857   2.263 -0.3205  1.0531  0.7252
 5763TIP3    H238781   5.270   0.845   2.267 -0.3723  1.4097  0.0235
 5764TIP3   OH238782   3.651   0.883  15.901  0.2373  0.2838 -0.0134
 5764TIP3    H138783   3.721   0.839  15.852  0.7700  2.2418 -1.1096
 5764TIP3    H238784   3.684   0.972  15.915 -1.7024  1.0283  0.1552
 5765TIP3   OH238785   6.064   3.267  10.678  0.5207 -0.0006  0.6798
 5765TIP3    H138786   6.045   3.175  10.661  0.0959 -0.4841  3.3423
 5765TIP3    H238787   6.001   3.292  10.746 -0.4628  2.7616 -1.0716
 5766TIP3   OH238788   5.426   4.597  12.609 -0.4926 -0.8068 -0.3222
 5766TIP3    H138789   5.396   4.668  12.553  3.4152  0.3087 -1.3338
 5766TIP3    H238790   5.399   4.517  12.564  0.0772  0.0898 -2.3517
 5767TIP3   OH238791   4.105   4.898  12.096  0.4248  0.4868 -0.0847
 5767TIP3    H138792   4.061   4.980  12.073  0.1651  0.0536 -1.1990
 5767TIP3    H238793   4.084   4.885  12.188 -0.0851  1.3333 -0.0659
 5768TIP3   OH238794   1.462   6.151  10.848  0.0313  0.0529  0.3918
 5768TIP3    H138795   1.474   6.233  10.799 -0.1668 -0.7415 -1.0329
 5768TIP3    H238796   1.369   6.130  10.838  0.7460 -2.4239 -2.8206
 5769TIP3   OH238797   6.298   0.705  17.312 -0.2335 -0.2320  0.1534
 5769TIP3    H138798   6.380   0.737  17.274  0.2019 -3.1993 -1.6584
 5769TIP3    H238799   6.231   0.765  17.278  0.9902  1.6821  0.9156
 5770TIP3   OH238800   4.714   6.170   2.587  0.2784 -0.1257 -0.4238
 5770TIP3    H138801   4.667   6.095   2.624  1.7047 -0.8302  0.0215
 5770TIP3    H238802   4.673   6.247   2.627 -0.9802 -0.6741 -0.6302
 5771TIP3   OH238803   6.060   5.798  11.120  0.3290 -0.4294  0.0401
 5771TIP3    H138804   6.059   5.797  11.024 -0.2185 -1.7819  0.0325
 5771TIP3    H238805   6.066   5.706  11.145  1.3481 -0.0519  1.3164
 5772TIP3   OH238806   6.633   5.668  10.612 -0.0292 -0.1790 -0.0992
 5772TIP3    H138807   6.690   5.665  10.535  0.3373  0.1073  0.1595
 5772TIP3    H238808   6.670   5.736  10.667  0.5230 -1.3127  0.9616
 5773TIP3   OH238809   1.032   4.308   2.959  0.8420  0.3987 -0.2290
 5773TIP3    H138810   0.941   4.333   2.973  1.5551  3.8459 -0.7689
 5773TIP3    H238811   1.032   4.263   2.875 -0.6691 -2.3516  1.1176
 5774TIP3   OH238812   1.728   5.730   1.217  0.0497 -0.4391 -0.1417
 5774TIP3    H138813   1.729   5.679   1.136  0.8807 -0.7098  0.0269
 5774TIP3    H238814   1.820   5.754   1.231 -0.4364  2.1477 -0.8670
 5775TIP3   OH238815   3.111   0.062   5.890  0.0064  0.0265  0.2375
 5775TIP3    H138816   3.042   0.113   5.933 -2.3057 -1.8929 -0.9100
 5775TIP3    H238817   3.063  -0.003   5.838  2.7297 -1.9899  0.0259
 5776TIP3   OH238818   4.705   4.794   6.439  0.1567 -0.5845  0.2292
 5776TIP3    H138819   4.787   4.843   6.451 -0.3301 -0.0999  1.8149
 5776TIP3    H238820   4.640   4.845   6.487 -0.9877 -1.2336 -0.5884
 5777TIP3   OH238821   0.514   5.778  14.811  0.0624 -0.1392  0.4491
 5777TIP3    H138822   0.528   5.716  14.882 -0.2002  1.9058  2.4039
 5777TIP3    H238823   0.542   5.863  14.846  3.1947  0.5840 -3.0295
 5778TIP3   OH238824   3.414   1.005   6.176 -0.1204  0.1588  0.1888
 5778TIP3    H138825   3.416   0.939   6.107 -0.3062 -1.7747  1.9252
 5778TIP3    H238826   3.342   0.977   6.233 -0.5700  2.2093  0.7035
 5779TIP3   OH238827   6.117   6.693  10.630 -0.5214  0.5430 -0.4371
 5779TIP3    H138828   6.043   6.751  10.613 -0.2743  0.7549 -0.7928
 5779TIP3    H238829   6.098   6.614  10.579 -1.2945 -0.0598  0.7377
 5780TIP3   OH238830   5.650   5.391   1.256 -0.5338  0.2941 -0.1144
 5780TIP3    H138831   5.584   5.324   1.273  1.0630 -1.2891  0.1873
 5780TIP3    H238832   5.700   5.398   1.337  0.0424  1.0393 -0.5142
 5781TIP3   OH238833   0.190   1.138  14.963 -0.5208  0.9396  0.7301
 5781TIP3    H138834   0.165   1.216  14.914 -1.3192 -0.1566 -0.6707
 5781TIP3    H238835   0.130   1.070  14.933 -0.7227  0.0899  2.9090
 5782TIP3   OH238836   0.895   2.290   5.193  0.5922 -0.1598 -0.2066
 5782TIP3    H138837   0.891   2.369   5.140 -0.4822 -0.8177 -1.1307
 5782TIP3    H238838   0.924   2.321   5.279  0.8166  1.1357 -0.7263
 5783TIP3   OH238839   5.787   2.861  12.942  0.7188  0.3963  0.2947
 5783TIP3    H138840   5.872   2.898  12.967  1.4876 -1.2675  0.3193
 5783TIP3    H238841   5.809   2.780  12.896 -0.8618 -0.9362  1.7089
 5784TIP3   OH238842   2.486   0.675   5.747 -0.1484  0.2535  0.6433
 5784TIP3    H138843   2.574   0.642   5.725  1.4671  1.8813  3.9222
 5784TIP3    H238844   2.433   0.596   5.758  0.9351 -0.7921 -1.1596
 5785TIP3   OH238845   3.633   0.188  15.263  0.2987  0.5923 -0.1500
 5785TIP3    H138846   3.557   0.238  15.233  0.5971  0.7024 -0.7368
 5785TIP3    H238847   3.616   0.099  15.232  0.6498  0.7247 -0.7497
 5786TIP3   OH238848   3.808   4.659  15.966 -0.4506 -0.2383 -0.1009
 5786TIP3    H138849   3.754   4.589  15.929 -0.3327  0.0919 -0.9254
 5786TIP3    H238850   3.811   4.726  15.897 -0.7900  0.7110  0.7835
 5787TIP3   OH238851   2.158   3.881   5.253  0.3690 -0.7427 -0.2418
 5787TIP3    H138852   2.099   3.815   5.289 -1.7490  0.7865 -0.7335
 5787TIP3    H238853   2.148   3.873   5.158  1.1300 -0.5926 -0.3444
 5788TIP3   OH238854   2.627   5.571  14.774 -0.3588 -0.4615  0.9101
 5788TIP3    H138855   2.661   5.542  14.689  0.6168 -1.8451  1.7243
 5788TIP3    H238856   2.702   5.567  14.833 -1.0708  0.2528  1.9023
 5789TIP3   OH238857   2.051   3.486   5.054  0.1311 -0.3045  0.1462
 5789TIP3    H138858   2.114   3.416   5.073  0.6094 -0.2050 -1.0082
 5789TIP3    H238859   1.989   3.447   4.993  0.4905  0.3149 -0.6289
 5790TIP3   OH238860   5.274   1.119  13.022 -0.2468  0.0482 -0.7858
 5790TIP3    H138861   5.227   1.195  13.059 -0.7304 -0.5806 -0.0718
 5790TIP3    H238862   5.366   1.140  13.034 -0.3798 -0.2635  1.1125
 5791TIP3   OH238863   5.693   3.264   0.536 -0.0787  0.1233  0.0949
 5791TIP3    H138864   5.778   3.228   0.512  0.9631  1.8997  0.9561
 5791TIP3    H238865   5.713   3.346   0.582 -2.2860  2.2553 -2.3661
 5792TIP3   OH238866   3.175   6.593  13.597 -0.1110 -0.4327 -0.0527
 5792TIP3    H138867   3.135   6.618  13.681 -0.0405  0.1033 -0.1753
 5792TIP3    H238868   3.157   6.667  13.539 -0.2859 -0.8720 -0.5555
 5793TIP3   OH238869   3.843   4.831   2.774 -0.1594  0.1655 -0.3963
 5793TIP3    H138870   3.933   4.801   2.787 -0.0657 -0.2111 -1.8070
 5793TIP3    H238871   3.822   4.809   2.684 -1.7420  0.0930 -0.0502
 5794TIP3   OH238872   5.016   4.720  13.816 -0.4296 -0.2907 -0.4770
 5794TIP3    H138873   5.007   4.804  13.862  0.1676 -0.7759  0.5572
 5794TIP3    H238874   5.007   4.743  13.723 -1.0599  0.8012 -0.1679
 5795TIP3   OH238875   5.655   0.016  14.396 -0.5589  0.0339 -0.1047
 5795TIP3    H138876   5.734   0.036  14.446  0.6482 -2.3000 -0.8925
 5795TIP3    H238877   5.655   0.080  14.325  0.7873 -0.0377 -0.2123
 5796TIP3   OH238878   2.898   6.640   2.631 -0.7354  0.3623 -0.0378
 5796TIP3    H138879   2.881   6.675   2.544  0.7766  0.9715 -0.1203
 5796TIP3    H238880   2.827   6.674   2.686 -1.3754  0.4391 -0.8959
 5797TIP3   OH238881   0.453   2.081   5.047  0.3993 -0.5117  0.2036
 5797TIP3    H138882   0.375   2.110   5.000 -0.1053 -1.5884  0.3436
 5797TIP3    H238883   0.523   2.138   5.015 -0.7657  1.7648  1.4718
 5798TIP3   OH238884   1.243   3.318   1.803 -0.3494 -0.2347 -0.3014
 5798TIP3    H138885   1.306   3.378   1.762  1.3620 -0.6011  1.6111
 5798TIP3    H238886   1.211   3.264   1.731  0.1666  1.1388 -1.6241
 5799TIP3   OH238887   2.761   2.649   4.163 -0.2349  0.5910  0.4688
 5799TIP3    H138888   2.830   2.682   4.106  0.3911  0.0112  0.8794
 5799TIP3    H238889   2.763   2.706   4.240  1.0566 -0.5271  1.3205
 5800TIP3   OH238890   6.088   0.747   4.550 -0.5395 -0.1483  0.2007
 5800TIP3    H138891   6.082   0.832   4.594 -0.2168  1.2958 -2.3533
 5800TIP3    H238892   6.182   0.728   4.546 -0.5608 -0.2260  0.0587
 5801TIP3   OH238893   6.183   5.904  11.912  0.1291  0.4809 -0.2139
 5801TIP3    H138894   6.106   5.933  11.960  0.4694  1.8192 -0.4370
 5801TIP3    H238895   6.155   5.824  11.868 -0.6340  0.0548  0.9957
 5802TIP3   OH238896   3.322   1.373   5.283 -0.1693  0.4269  0.3600
 5802TIP3    H138897   3.357   1.283   5.285 -1.1819 -0.0397 -1.3699
 5802TIP3    H238898   3.351   1.411   5.367  1.4353 -1.0515  0.5436
 5803TIP3   OH238899   2.860   6.392  16.729 -0.2519  0.7002  0.2229
 5803TIP3    H138900   2.910   6.332  16.784  0.3607 -0.1080 -1.1671
 5803TIP3    H238901   2.784   6.417  16.782 -0.1733 -0.7913  1.0727
 5804TIP3   OH238902   4.921   4.520   3.383 -0.4962 -0.1047 -0.7096
 5804TIP3    H138903   4.966   4.504   3.466 -0.9712  2.9258  0.2447
 5804TIP3    H238904   4.988   4.503   3.316  0.1406 -1.7885  0.2784
 5805TIP3   OH238905   6.481   3.633  15.008  0.0631  0.3797  0.1321
 5805TIP3    H138906   6.408   3.663  14.954  0.9157 -0.0810 -1.3494
 5805TIP3    H238907   6.557   3.639  14.950  0.8542 -1.1429  0.9536
 5806TIP3   OH238908   3.564   2.329  15.866  0.2575 -0.2413  0.3981
 5806TIP3    H138909   3.493   2.380  15.905 -1.0254 -0.3907 -1.5720
 5806TIP3    H238910   3.635   2.393  15.852  0.0377  0.1947  1.2051
 5807TIP3   OH238911   0.814   4.919  15.459 -0.4462 -0.2319  0.2821
 5807TIP3    H138912   0.760   4.989  15.424  0.4429  0.4856  0.3068
 5807TIP3    H238913   0.802   4.846  15.397 -1.7781 -0.2535  0.5398
 5808TIP3   OH238914   0.981   0.463   1.820  0.1639 -0.4364 -0.4426
 5808TIP3    H138915   1.037   0.523   1.770 -0.8500 -0.7490 -1.9977
 5808TIP3    H238916   1.036   0.386   1.834  0.6708 -0.0933 -0.4983
 5809TIP3   OH238917   3.319   0.352   5.689 -0.9464  0.4167  0.4576
 5809TIP3    H138918   3.379   0.294   5.641 -2.0210  2.0682 -3.2687
 5809TIP3    H238919   3.372   0.426   5.715 -0.5020 -0.1519  1.2062
 5810TIP3   OH238920   5.072   1.265   1.372 -0.2524 -0.0110 -0.4383
 5810TIP3    H138921   5.000   1.214   1.335  1.1898 -2.1241 -0.5082
 5810TIP3    H238922   5.108   1.314   1.298 -0.1870 -0.7463 -0.9015
 5811TIP3   OH238923   3.294   6.715  16.311  0.3402  0.3786 -0.5516
 5811TIP3    H138924   3.326   6.630  16.281 -1.0051 -0.3637  0.0133
 5811TIP3    H238925   3.217   6.732  16.256  0.8444  1.4544 -0.9530
 5812TIP3   OH238926   0.732   5.101   0.684 -0.6872 -0.2710 -0.2573
 5812TIP3    H138927   0.821   5.080   0.712 -1.1633 -4.0240 -0.9969
 5812TIP3    H238928   0.738   5.111   0.589 -1.1729 -2.1918 -0.5491
 5813TIP3   OH238929   2.326   0.016   4.830 -0.3528 -0.5869 -0.1708
 5813TIP3    H138930   2.419   0.004   4.852  0.2004  2.5713 -0.3798
 5813TIP3    H238931   2.281  -0.049   4.884  1.7784 -0.2917  2.1724
 5814TIP3   OH238932   1.002   5.091   1.746 -0.0547  0.4155  0.5717
 5814TIP3    H138933   1.075   5.152   1.738 -0.0438  0.3975  0.5337
 5814TIP3    H238934   1.034   5.022   1.803 -0.6239  1.3027  2.0320
 5815TIP3   OH238935   4.041   1.479   5.384 -0.0610  0.4355  0.1998
 5815TIP3    H138936   4.106   1.408   5.392 -0.6066 -0.2196 -0.9525
 5815TIP3    H238937   3.986   1.453   5.310 -1.9832  0.7121  1.4568
 5816TIP3   OH238938   2.033   3.349  14.576 -0.1966  0.2978  0.6879
 5816TIP3    H138939   1.956   3.328  14.629 -0.3714 -1.1254 -0.0638
 5816TIP3    H238940   2.025   3.442  14.558 -0.3792  0.7076  2.7338
 5817TIP3   OH238941   1.827   1.535  13.162 -0.3131  0.3967  0.3822
 5817TIP3    H138942   1.764   1.476  13.121  1.1124 -0.3502 -0.8069
 5817TIP3    H238943   1.781   1.569  13.239 -2.2200  0.0121 -0.5265
 5818TIP3   OH238944   1.594   6.783   1.546 -0.5901  0.3286 -0.4686
 5818TIP3    H138945   1.548   6.866   1.558 -1.1194  0.0783 -0.7226
 5818TIP3    H238946   1.538   6.733   1.486 -2.3101 -1.7347  2.5203
 5819TIP3   OH238947   5.240   4.106  16.786  0.2565 -0.1418  0.0450
 5819TIP3    H138948   5.183   4.168  16.831  1.6295  0.5638  0.8741
 5819TIP3    H238949   5.287   4.158  16.721 -0.3114 -0.7884 -0.9008
 5820TIP3   OH238950   3.486   4.558  14.425 -0.5379  0.2981  0.0153
 5820TIP3    H138951   3.432   4.637  14.429 -1.8911 -0.5638  5.2180
 5820TIP3    H238952   3.436   4.491  14.471  2.6623 -2.2166  0.2242
 5821TIP3   OH238953   4.436   2.100  11.380  0.1811 -0.2786 -0.2696
 5821TIP3    H138954   4.443   2.097  11.475  0.1941  1.2422 -0.1972
 5821TIP3    H238955   4.499   2.167  11.353  0.4975 -1.0009 -1.3931
 5822TIP3   OH238956   1.001   4.167  14.546  0.5525  0.1138  0.0502
 5822TIP3    H138957   0.951   4.124  14.615  1.0665  0.0791  0.4043
 5822TIP3    H238958   0.935   4.211  14.492 -0.1458 -2.2286 -1.1315
 5823TIP3   OH238959   0.779   6.225  14.506  0.5889  0.3804 -0.1448
 5823TIP3    H138960   0.867   6.219  14.546  0.0509  0.4583  1.1106
 5823TIP3    H238961   0.764   6.319  14.498  0.1537  0.4052  0.7780
 5824TIP3   OH238962   2.435   1.727  15.227  0.1133 -0.0997  0.2964
 5824TIP3    H138963   2.393   1.783  15.162  0.2896 -0.0393  0.2337
 5824TIP3    H238964   2.434   1.639  15.188 -1.1050 -0.3509  0.8314
 5825TIP3   OH238965   6.324   0.005  15.169  0.2495 -0.0661  0.3900
 5825TIP3    H138966   6.397  -0.023  15.114  0.3799  0.4666  0.2820
 5825TIP3    H238967   6.250  -0.047  15.139  0.5920 -0.6283  0.5177
 5826TIP3   OH238968   3.324   3.696   6.906  0.7498 -0.5069  0.3084
 5826TIP3    H138969   3.368   3.625   6.860  0.7556  0.2199 -0.8777
 5826TIP3    H238970   3.369   3.775   6.875  0.2433  0.0615  0.9996
 5827TIP3   OH238971   4.751   3.547  15.438  0.3023 -0.1650  0.5135
 5827TIP3    H138972   4.714   3.460  15.424  0.6825 -0.3015  0.3466
 5827TIP3    H238973   4.681   3.596  15.481  0.2265 -0.6694  0.9708
 5828TIP3   OH238974   1.391   4.266  16.871  0.0037  0.2266  0.1346
 5828TIP3    H138975   1.454   4.338  16.867 -2.7798  2.9566  1.0440
 5828TIP3    H238976   1.388   4.243  16.964 -1.4563  1.3569  0.4182
 5829TIP3   OH238977   0.518   4.388   4.444  0.0792  0.2269  0.0787
 5829TIP3    H138978   0.472   4.468   4.469 -1.6546 -0.9114  0.7079
 5829TIP3    H238979   0.580   4.372   4.515  0.8099  1.2452 -0.2999
 5830TIP3   OH238980   5.624   5.376   2.313 -0.1542 -0.1641 -0.0292
 5830TIP3    H138981   5.612   5.362   2.407  1.7832  1.3578  0.5188
 5830TIP3    H238982   5.714   5.348   2.295 -0.1013  0.6482 -1.1735
 5831TIP3   OH238983   4.638   6.229   1.941  0.2400 -0.2007 -0.1346
 5831TIP3    H138984   4.643   6.241   2.036  0.9776 -2.4693  0.1680
 5831TIP3    H238985   4.714   6.277   1.907  0.4243 -0.0286  0.5018
 5832TIP3   OH238986   0.858   3.524   1.629  0.1647  0.2428  0.1598
 5832TIP3    H138987   0.910   3.460   1.580 -1.6800 -0.0822 -1.5038
 5832TIP3    H238988   0.844   3.596   1.569 -2.0885 -0.1227  0.1402
 5833TIP3   OH238989   1.599   2.445  15.121  0.3907 -0.3895  0.6818
 5833TIP3    H138990   1.662   2.511  15.150 -0.2367  0.8678 -0.6715
 5833TIP3    H238991   1.522   2.460  15.176  0.5113 -0.5052  0.8841
 5834TIP3   OH238992   6.325   5.141  13.857 -0.2065 -0.2970 -0.3962
 5834TIP3    H138993   6.237   5.123  13.890  0.0965  0.9924  1.2560
 5834TIP3    H238994   6.355   5.058  13.821 -1.2287 -1.3602  1.1053
 5835TIP3   OH238995   5.927   4.351  10.555 -0.3354  0.2192 -0.1493
 5835TIP3    H138996   5.997   4.340  10.491 -0.1551 -2.0279  0.3415
 5835TIP3    H238997   5.850   4.313  10.512 -0.1966 -1.3827  0.9229
 5836TIP3   OH238998   0.374   3.983   0.584 -0.4882 -0.1636  0.2248
 5836TIP3    H138999   0.458   3.948   0.553 -0.9433  0.1139 -1.4431
 5836TIP3    H239000   0.308   3.935   0.532 -1.3764 -0.4637  1.5845
 5837TIP3   OH239001   6.298   1.027   5.034 -0.2991 -0.3031  0.4408
 5837TIP3    H139002   6.265   0.977   5.109  1.5727 -0.8257  0.9685
 5837TIP3    H239003   6.389   1.046   5.056  0.0367  0.3264 -1.3177
 5838TIP3   OH239004   1.976   0.830  16.574  0.2267 -0.2139 -0.3225
 5838TIP3    H139005   2.034   0.766  16.535 -0.0385  0.4101 -1.8232
 5838TIP3    H239006   1.898   0.780  16.599  1.2268 -0.9885  1.3893
 5839TIP3   OH239007   5.418   0.277   2.125 -0.3721  0.0969  0.1662
 5839TIP3    H139008   5.470   0.290   2.046  1.0160 -0.2212  0.9973
 5839TIP3    H239009   5.449   0.193   2.161 -0.2822  0.6858  1.5482
 5840TIP3   OH239010   4.665   0.009  15.860  0.1219  0.0886 -0.0210
 5840TIP3    H139011   4.599   0.076  15.842  0.1468  0.0264 -0.3584
 5840TIP3    H239012   4.695   0.028  15.949 -1.0763 -0.4926  0.5329
 5841TIP3   OH239013   5.593   6.751  15.223  0.3955 -0.2543 -0.1328
 5841TIP3    H139014   5.602   6.660  15.250 -2.3693 -0.3038  0.9434
 5841TIP3    H239015   5.589   6.800  15.306 -1.4664  0.4007 -0.5671
 5842TIP3   OH239016   0.871   3.022   1.793 -0.3682 -0.3037 -0.4408
 5842TIP3    H139017   0.925   3.010   1.715 -1.3673 -1.8615 -0.9567
 5842TIP3    H239018   0.838   3.111   1.786  1.0635  0.2183 -0.7912
 5843TIP3   OH239019   2.904   3.060   3.139 -0.2189  0.1803 -0.3437
 5843TIP3    H139020   2.967   3.002   3.182 -0.1451 -0.2809 -1.0559
 5843TIP3    H239021   2.955   3.107   3.074 -0.3585  0.7713 -0.0348
 5844TIP3   OH239022   4.631   3.898   1.839 -0.1834 -0.3153 -0.0716
 5844TIP3    H139023   4.700   3.859   1.785 -0.9494 -0.3797 -1.0450
 5844TIP3    H239024   4.634   3.991   1.817 -1.1990 -0.4926 -1.0907
 5845TIP3   OH239025   3.969   0.682  13.237  0.2082 -0.0145  0.5939
 5845TIP3    H139026   4.046   0.626  13.228 -0.4158 -0.7674 -0.1304
 5845TIP3    H239027   3.914   0.638  13.302  0.1237  0.2327  0.6936
 5846TIP3   OH239028   0.477   0.915  12.286 -0.1328 -0.0149 -0.4155
 5846TIP3    H139029   0.432   0.835  12.258  3.0874 -1.3435 -2.3544
 5846TIP3    H239030   0.484   0.967  12.206  2.1529 -0.1601 -0.3852
 5847TIP3   OH239031   4.405   2.972  14.067  0.1144 -0.0066 -0.6487
 5847TIP3    H139032   4.485   2.966  14.118 -0.8841 -1.4223  0.8843
 5847TIP3    H239033   4.352   3.037  14.112  0.4323  1.0268 -1.7355
 5848TIP3   OH239034   0.342   6.049   6.152  0.5349 -0.9871  0.2129
 5848TIP3    H139035   0.350   6.090   6.067 -1.3870  0.2805  0.5840
 5848TIP3    H239036   0.333   5.955   6.133  1.2513 -0.8428 -0.8836
 5849TIP3   OH239037   2.845   5.740   5.963 -0.0997  0.2862 -0.1010
 5849TIP3    H139038   2.790   5.667   5.993  0.4673 -0.3527 -0.5763
 5849TIP3    H239039   2.808   5.817   6.005 -1.0047 -0.2137  0.0432
 5850TIP3   OH239040   0.921   5.405   4.441 -0.1684  0.4098 -0.1848
 5850TIP3    H139041   0.965   5.356   4.510 -1.4126 -0.1989  0.2040
 5850TIP3    H239042   0.869   5.340   4.394 -1.0946  1.1841 -0.2639
 5851TIP3   OH239043   4.893   1.850   1.261 -0.0845  0.4451  0.1476
 5851TIP3    H139044   4.901   1.768   1.311  1.1480  1.1828  1.2508
 5851TIP3    H239045   4.803   1.878   1.275 -0.4429 -0.5822 -0.0176
 5852TIP3   OH239046   1.316   6.597   5.325 -0.7746 -0.1456 -0.2540
 5852TIP3    H139047   1.274   6.529   5.377 -0.5195 -1.3825 -1.5821
 5852TIP3    H239048   1.359   6.653   5.389 -1.6528 -0.7755  0.9319
 5853TIP3   OH239049   2.151   1.233   7.127 -0.5769 -0.1218 -0.9114
 5853TIP3    H139050   2.075   1.197   7.081  0.2695 -0.1975 -2.2722
 5853TIP3    H239051   2.152   1.326   7.103 -0.5949  0.0221 -0.3789
 5854TIP3   OH239052   3.014   3.948  15.470  0.6130 -0.2233 -0.2847
 5854TIP3    H139053   3.098   3.919  15.435  0.2729 -1.9908  0.2829
 5854TIP3    H239054   2.956   3.873  15.460 -0.0656 -0.0977  2.1000
 5855TIP3   OH239055   5.002   5.348  14.821  0.0864 -0.6954  0.1187
 5855TIP3    H139056   5.034   5.258  14.820 -0.5669 -0.9801  1.5694
 5855TIP3    H239057   5.060   5.393  14.883 -0.3558 -0.4390  0.3527
 5856TIP3   OH239058   1.511   3.582   5.142  0.0138  0.3938  0.2072
 5856TIP3    H139059   1.458   3.662   5.130 -1.4253 -0.7666 -1.6512
 5856TIP3    H239060   1.579   3.609   5.204 -0.8905  2.8394  0.2871
 5857TIP3   OH239061   0.920   6.570   1.753  0.5332 -0.0098 -0.0217
 5857TIP3    H139062   0.905   6.498   1.815 -0.2259  0.0335 -0.1384
 5857TIP3    H239063   1.014   6.569   1.737  0.4356 -1.4851 -0.6390
 5858TIP3   OH239064   5.144   1.929   1.159  0.2218 -0.0301 -0.0484
 5858TIP3    H139065   5.106   1.977   1.085  0.8139 -0.8687 -0.9175
 5858TIP3    H239066   5.068   1.900   1.210 -0.1937  0.5202 -0.3335
 5859TIP3   OH239067   2.461   4.212  12.283 -0.2838 -0.0450  0.1398
 5859TIP3    H139068   2.442   4.300  12.314 -1.7925 -0.2697 -0.0461
 5859TIP3    H239069   2.391   4.193  12.221  0.7367 -0.9049 -0.7844
 5860TIP3   OH239070   4.631   0.164   0.664 -0.4403 -0.0991 -0.2268
 5860TIP3    H139071   4.614   0.257   0.681 -1.5349  0.1887 -2.4691
 5860TIP3    H239072   4.564   0.117   0.713  1.1177  0.0837  2.2940
 5861TIP3   OH239073   0.426   4.510  10.844  0.0524  0.2438  0.1405
 5861TIP3    H139074   0.488   4.563  10.794 -0.9506  1.2642 -0.0713
 5861TIP3    H239075   0.434   4.422  10.807 -0.5721  0.9415 -1.7562
 5862TIP3   OH239076   3.580   4.574   2.369 -0.7901 -0.6751  0.0886
 5862TIP3    H139077   3.599   4.631   2.294  0.2485  0.2141  0.9812
 5862TIP3    H239078   3.666   4.542   2.397 -1.1747 -1.1108  0.8026
 5863TIP3   OH239079   4.476   4.115   1.283  0.4571 -0.1064 -0.0556
 5863TIP3    H139080   4.555   4.113   1.229 -1.2386  2.3127 -2.8941
 5863TIP3    H239081   4.467   4.206   1.309  0.4609 -0.9546  3.4347
 5864TIP3   OH239082   4.049   4.357  12.813 -0.6620 -0.3355 -0.0690
 5864TIP3    H139083   3.967   4.310  12.832 -0.9630  0.6909  1.3249
 5864TIP3    H239084   4.060   4.348  12.718 -1.5379 -1.8452 -0.0634
 5865TIP3   OH239085   3.537   6.654   2.221  0.4321  0.0799 -0.1630
 5865TIP3    H139086   3.625   6.617   2.215  1.4288  1.8097  2.0270
 5865TIP3    H239087   3.478   6.580   2.207  2.2607 -1.4076 -0.3055
 5866TIP3   OH239088   3.076   1.016  13.511 -0.1305  0.1779  0.1903
 5866TIP3    H139089   3.146   0.952  13.522  0.8050  1.2246  0.5678
 5866TIP3    H239090   3.119   1.092  13.473 -1.2685  0.5012 -0.5120
 5867TIP3   OH239091   1.012   6.398   4.964  0.1306  0.1123 -0.2093
 5867TIP3    H139092   0.921   6.407   4.993  0.3569  0.0379  0.5653
 5867TIP3    H239093   1.058   6.470   5.009  0.9399 -1.4362  1.5815
 5868TIP3   OH239094   3.482   3.914   0.383 -0.6527  0.1057 -0.1371
 5868TIP3    H139095   3.517   3.977   0.446 -0.8526 -0.0144  0.0923
 5868TIP3    H239096   3.520   3.940   0.299  0.0897 -0.1008  0.1326
 5869TIP3   OH239097   1.051   1.177   4.123  0.6265  0.0512 -0.4765
 5869TIP3    H139098   1.078   1.091   4.154  1.1591 -0.2719 -1.7606
 5869TIP3    H239099   1.131   1.215   4.085 -0.1595  0.0399 -2.2340
 5870TIP3   OH239100   2.243   3.512   3.055  0.1297  0.0703  0.3869
 5870TIP3    H139101   2.297   3.557   2.989  0.0890  0.1581  0.4135
 5870TIP3    H239102   2.173   3.574   3.075  0.3289  0.1806  0.7591
 5871TIP3   OH239103   1.851   1.200  16.819  0.1110 -0.4029  0.3342
 5871TIP3    H139104   1.805   1.134  16.766  1.5146  0.1519 -1.7025
 5871TIP3    H239105   1.840   1.281  16.770  1.5894  0.1052  0.7985
 5872TIP3   OH239106   2.398   1.260  13.617  0.2480 -0.2441  0.1409
 5872TIP3    H139107   2.447   1.205  13.679  1.9721  2.0160  0.9437
 5872TIP3    H239108   2.446   1.343  13.617 -2.1670  1.2430 -1.0747
 5873TIP3   OH239109   1.867   0.730   0.922 -0.1627 -0.0945  0.6023
 5873TIP3    H139110   1.809   0.661   0.953  0.4084 -0.1148  1.6634
 5873TIP3    H239111   1.871   0.716   0.827 -0.4319 -1.2278  0.7399
 5874TIP3   OH239112   0.051   6.602  11.345  0.3480 -0.3760  0.0974
 5874TIP3    H139113   0.103   6.576  11.269  0.2230  0.9790 -0.4870
 5874TIP3    H239114  -0.018   6.535  11.351 -0.1738 -0.0380 -1.5527
 5875TIP3   OH239115   4.772   2.095  16.951 -0.4028  0.1105 -0.6503
 5875TIP3    H139116   4.765   2.151  17.029  1.6519 -0.8063  0.2607
 5875TIP3    H239117   4.829   2.023  16.978 -0.8189 -1.0101 -2.5917
 5876TIP3   OH239118   4.734   3.307  15.835  0.2930  0.5605  0.4701
 5876TIP3    H139119   4.786   3.301  15.755  0.1461  1.3357  0.3058
 5876TIP3    H239120   4.723   3.217  15.864 -2.5188 -0.1409 -2.2049
 5877TIP3   OH239121   0.869   0.109  16.290  0.0433 -0.0242  0.2966
 5877TIP3    H139122   0.951   0.061  16.301 -0.4409 -0.7551  0.7650
 5877TIP3    H239123   0.818   0.087  16.367 -1.4730 -1.2976 -1.0172
 5878TIP3   OH239124   4.613   3.865  16.880 -0.2107 -0.0604 -0.1317
 5878TIP3    H139125   4.556   3.915  16.821 -1.1349  0.2065  0.9309
 5878TIP3    H239126   4.624   3.923  16.956  0.2851 -0.7149  0.3015
 5879TIP3   OH239127   5.955   5.633  11.560  0.1345 -0.2560 -0.5709
 5879TIP3    H139128   6.005   5.606  11.483  1.7486  0.1966  0.2732
 5879TIP3    H239129   5.874   5.671  11.524  1.1042  0.4859 -2.0657
 5880TIP3   OH239130   2.551   2.446  14.012 -0.5412 -0.1191  0.3103
 5880TIP3    H139131   2.572   2.535  13.984 -1.0254  0.3612  1.4040
 5880TIP3    H239132   2.456   2.441  14.006 -0.4663 -0.8301 -0.4642
 5881TIP3   OH239133   5.757   0.825   4.478 -0.1911  0.0281 -0.0500
 5881TIP3    H139134   5.791   0.788   4.559 -1.3045  1.1887  0.9794
 5881TIP3    H239135   5.785   0.917   4.479 -1.4337  0.4344 -0.2430
 5882TIP3   OH239136   5.172   4.520  14.754  0.5980  0.2936 -0.2045
 5882TIP3    H139137   5.162   4.567  14.837 -0.3410  0.3210 -0.3167
 5882TIP3    H239138   5.087   4.479  14.740  0.5669  0.7341 -1.4290
 5883TIP3   OH239139   5.024   1.419  17.130  0.1430  0.0508 -0.4117
 5883TIP3    H139140   4.983   1.384  17.051  2.0100  0.8973 -1.8513
 5883TIP3    H239141   5.100   1.363  17.144  0.5591  0.6983 -0.0138
 5884TIP3   OH239142   5.737   3.077  17.246  0.2829 -0.4123  0.3564
 5884TIP3    H139143   5.694   3.121  17.319 -0.1104 -0.2322  0.0124
 5884TIP3    H239144   5.683   3.096  17.170  0.5364 -0.8371  0.0644
 5885TIP3   OH239145   1.629   1.746   2.265 -0.0756 -0.3055 -0.2137
 5885TIP3    H139146   1.652   1.654   2.277 -2.3688 -0.6896  2.1965
 5885TIP3    H239147   1.548   1.757   2.315 -1.1519  2.5008 -2.2856
 5886TIP3   OH239148   6.348   5.354  15.985 -0.3890  0.3325  1.1425
 5886TIP3    H139149   6.258   5.323  15.992 -0.6701  0.6595 -0.5998
 5886TIP3    H239150   6.396   5.280  15.948 -0.3787  0.8608  0.0928
 5887TIP3   OH239151   3.518   3.769   1.217 -0.1197  0.0883 -0.0842
 5887TIP3    H139152   3.523   3.865   1.210  0.4416  0.1978  1.5144
 5887TIP3    H239153   3.605   3.738   1.194 -0.3705 -0.0781 -0.8520
 5888TIP3   OH239154   6.001   6.767   1.368  0.4400  0.5028  0.2084
 5888TIP3    H139155   5.906   6.775   1.367  0.4358  0.3570 -0.5532
 5888TIP3    H239156   6.017   6.675   1.389  0.3832  0.0764 -1.4987
 5889TIP3   OH239157   3.514   0.563   6.036  0.7450  0.1843  0.0518
 5889TIP3    H139158   3.593   0.581   5.985  0.0132 -1.5536 -1.8352
 5889TIP3    H239159   3.498   0.470   6.024 -1.0594  0.2924  1.1785
 5890TIP3   OH239160   5.966   5.238   5.350 -0.0520  0.8932  0.0633
 5890TIP3    H139161   6.019   5.317   5.336 -0.9307  1.6978  1.1355
 5890TIP3    H239162   5.979   5.217   5.442 -2.3636  1.7342  0.6614
 5891TIP3   OH239163   2.665   4.433  12.465  0.5929  0.0599  0.1702
 5891TIP3    H139164   2.682   4.527  12.473 -0.0318  0.2056 -0.1944
 5891TIP3    H239165   2.575   4.422  12.495 -0.5632  0.0994 -2.9912
 5892TIP3   OH239166   1.350   4.056  12.243 -0.0354  0.2669  0.2648
 5892TIP3    H139167   1.326   4.007  12.322  0.2174  0.2914  0.3585
 5892TIP3    H239168   1.400   4.131  12.275 -0.6249  0.7235  0.1400
 5893TIP3   OH239169   5.025   3.024  13.890  0.0526 -0.2593  0.0340
 5893TIP3    H139170   4.935   2.991  13.881  0.5129 -1.1851 -1.6069
 5893TIP3    H239171   5.014   3.114  13.921 -1.4076 -0.6384  0.7142
 5894TIP3   OH239172   1.058   1.428   2.321  0.1276 -0.1191  0.1692
 5894TIP3    H139173   1.044   1.507   2.374  1.0198  1.2361 -1.5174
 5894TIP3    H239174   0.970   1.399   2.297 -0.3968  3.6297 -3.6825
 5895TIP3   OH239175   3.703   5.922   0.681 -0.2395 -0.1572 -0.0904
 5895TIP3    H139176   3.790   5.884   0.697 -0.9852 -1.3571  1.4765
 5895TIP3    H239177   3.716   5.983   0.610  1.4319 -2.1122 -1.5933
 5896TIP3   OH239178   1.391   1.983  10.805  0.0562 -0.1496 -0.4932
 5896TIP3    H139179   1.355   2.048  10.745 -0.9685 -0.4880 -0.2683
 5896TIP3    H239180   1.465   1.946  10.758 -0.0400  0.3844 -1.0867
 5897TIP3   OH239181   1.200   6.472  11.916  0.1294 -0.3385 -0.6375
 5897TIP3    H139182   1.202   6.431  11.829 -0.1707 -0.4910 -0.5754
 5897TIP3    H239183   1.238   6.558  11.903 -1.0060  0.0976 -1.1741
 5898TIP3   OH239184   6.351   2.698   2.401 -0.2784 -0.4156  0.1429
 5898TIP3    H139185   6.292   2.758   2.354  2.3019  2.1450 -0.1311
 5898TIP3    H239186   6.356   2.621   2.344 -0.8759  0.6581 -1.4537
 5899TIP3   OH239187   2.917   3.076  13.184 -0.0833  0.5106  0.1938
 5899TIP3    H139188   2.931   3.072  13.089  1.0428 -0.5014  0.3763
 5899TIP3    H239189   2.872   3.159  13.198 -0.1106  0.7592 -1.2133
 5900TIP3   OH239190   6.611   0.306  16.032 -0.2149  0.3637 -0.0895
 5900TIP3    H139191   6.599   0.231  15.973  1.1589  0.4618 -0.5267
 5900TIP3    H239192   6.536   0.301  16.092  0.8455 -2.5816  1.2073
 5901TIP3   OH239193   0.083   3.963   0.658 -0.0210  0.1019 -0.4857
 5901TIP3    H139194   0.010   3.998   0.708  0.4257  1.8482 -0.9815
 5901TIP3    H239195   0.050   3.955   0.569 -0.4527 -1.8709 -0.1892
 5902TIP3   OH239196   5.039   6.233   2.064 -0.5780  0.1008  0.3177
 5902TIP3    H139197   5.129   6.228   2.032  0.1751 -0.6575  2.4189
 5902TIP3    H239198   5.016   6.326   2.058  0.4030  0.3299 -0.0724
 5903TIP3   OH239199   0.567   4.738  13.000 -0.0078  0.1201  0.3284
 5903TIP3    H139200   0.500   4.712  13.062 -0.0892  0.7448  0.5088
 5903TIP3    H239201   0.650   4.714  13.043 -0.1100 -0.9447 -0.0320
 5904TIP3   OH239202   3.479   5.020   3.713  0.4494 -0.0508  0.2934
 5904TIP3    H139203   3.562   5.040   3.669  1.1666  2.3548  2.4706
 5904TIP3    H239204   3.481   4.925   3.727  2.0947 -0.2545 -1.0772
 5905TIP3   OH239205   3.080   1.755  17.119 -0.4160 -0.0910 -0.2575
 5905TIP3    H139206   3.017   1.803  17.172  0.7164 -0.9935  2.0334
 5905TIP3    H239207   3.027   1.705  17.057 -2.0344 -1.3904  2.0561
 5906TIP3   OH239208   5.352   2.527  14.570  0.4984 -0.4870 -1.1190
 5906TIP3    H139209   5.306   2.524  14.487  1.0521 -3.9544 -1.4488
 5906TIP3    H239210   5.287   2.501  14.635  0.7585 -0.5562 -0.8841
 5907TIP3   OH239211   3.804   2.630  12.999 -0.3513 -1.2286  0.1636
 5907TIP3    H139212   3.889   2.651  12.961 -0.4629 -1.0967 -0.0105
 5907TIP3    H239213   3.740   2.652  12.931 -0.5625 -0.8516  0.4815
 5908TIP3   OH239214   6.626   3.343  16.813  0.5233 -0.2422 -0.4315
 5908TIP3    H139215   6.663   3.255  16.805  0.7222 -0.0967 -1.2048
 5908TIP3    H239216   6.568   3.338  16.889  1.0564 -0.8538 -0.0598
 5909TIP3   OH239217   1.856   6.107  13.119  0.3635 -0.5443  0.9947
 5909TIP3    H139218   1.868   6.195  13.154  0.7539  0.6535 -1.8919
 5909TIP3    H239219   1.769   6.109  13.078  0.0278 -1.7783  1.5930
 5910TIP3   OH239220   2.783   0.219   0.907 -0.3576  0.2854 -0.7258
 5910TIP3    H139221   2.714   0.179   0.961  0.4170  0.0830  0.1488
 5910TIP3    H239222   2.841   0.146   0.885  0.2605  0.6624 -0.3733
 5911TIP3   OH239223   2.631   2.244  13.842  0.0437  0.4514  0.3463
 5911TIP3    H139224   2.611   2.310  13.908  0.6566  0.8468  0.1422
 5911TIP3    H239225   2.691   2.288  13.781 -1.1028  0.3500 -0.9093
 5912TIP3   OH239226   2.470   4.253  15.630  0.4433  0.0518 -0.3257
 5912TIP3    H139227   2.445   4.162  15.646 -0.5327 -0.2023 -2.7615
 5912TIP3    H239228   2.386   4.298  15.615  1.0130  0.8806 -1.1537
 5913TIP3   OH239229   3.541   3.796   4.058 -0.3759 -0.2108  0.2325
 5913TIP3    H139230   3.471   3.840   4.009  0.1547 -0.2805 -0.5896
 5913TIP3    H239231   3.507   3.708   4.075 -0.8468  0.0375  0.6247
 5914TIP3   OH239232   0.437   0.214   1.577  0.2544  0.6676 -0.6896
 5914TIP3    H139233   0.379   0.196   1.503  0.5318  0.5895 -0.8940
 5914TIP3    H239234   0.519   0.242   1.536  0.5730  0.1527 -0.4289
 5915TIP3   OH239235   6.419   1.297   5.398  0.0151 -0.2124  0.6718
 5915TIP3    H139236   6.472   1.230   5.355 -0.4306  0.3246 -0.7940
 5915TIP3    H239237   6.358   1.248   5.453 -0.3813 -1.0360 -0.4688
 5916TIP3   OH239238   6.579   0.353  11.011 -0.4161 -0.0543 -0.1702
 5916TIP3    H139239   6.567   0.448  11.008  1.4434  0.1984 -0.7426
 5916TIP3    H239240   6.619   0.337  11.097  0.0971 -0.1986 -0.4320
 5917TIP3   OH239241   4.733   4.787  11.360 -0.3055  0.1389  0.2912
 5917TIP3    H139242   4.798   4.857  11.357 -0.9850  0.7761  0.5067
 5917TIP3    H239243   4.705   4.776  11.269  1.2275 -1.2167 -0.0684
 5918TIP3   OH239244   5.273   2.128   0.828 -0.5160  0.0993 -0.2546
 5918TIP3    H139245   5.258   2.149   0.920 -3.0284  1.2448 -0.8495
 5918TIP3    H239246   5.254   2.035   0.820 -2.2432  0.3995  0.0676
 5919TIP3   OH239247   2.789   2.777   1.503 -0.0365 -0.6754  0.3485
 5919TIP3    H139248   2.884   2.771   1.512 -0.1280 -0.5820  1.4954
 5919TIP3    H239249   2.755   2.749   1.588 -1.1023 -2.1795 -0.5199
 5920TIP3   OH239250   4.861   6.324   4.634 -0.1115  0.3487 -0.5870
 5920TIP3    H139251   4.772   6.359   4.638 -0.9994 -1.8396  2.4843
 5920TIP3    H239252   4.893   6.327   4.725  2.3111 -0.4782 -1.3159
 5921TIP3   OH239253   4.020   6.825   5.890  0.1824 -0.0443 -0.9563
 5921TIP3    H139254   3.954   6.845   5.823  0.7264 -0.5132 -1.6492
 5921TIP3    H239255   3.969   6.796   5.965 -0.5786  2.7580 -0.2856
 5922TIP3   OH239256   5.054   0.253  11.174 -0.1260  0.9377  0.1267
 5922TIP3    H139257   5.092   0.285  11.256 -1.0936 -0.2734  1.0712
 5922TIP3    H239258   5.087   0.314  11.108  3.0886  0.2688  0.9234
 5923TIP3   OH239259   1.680   5.269  16.303 -0.2686 -0.0096 -0.1657
 5923TIP3    H139260   1.621   5.235  16.235 -0.3664 -0.9100  0.3515
 5923TIP3    H239261   1.698   5.359  16.277  0.0853 -0.4824 -1.6605
 5924TIP3   OH239262   3.405   5.672   5.812 -0.7249 -0.1643  0.1875
 5924TIP3    H139263   3.329   5.656   5.869 -0.5841 -0.9296  0.1754
 5924TIP3    H239264   3.480   5.645   5.865 -0.5650 -0.5808 -0.2471
 5925TIP3   OH239265   3.915   2.657  14.893 -0.1730  0.0755  0.2377
 5925TIP3    H139266   3.989   2.670  14.835 -0.5957  1.0892 -0.1007
 5925TIP3    H239267   3.877   2.574  14.866  0.0337  0.2103 -0.4860
 5926TIP3   OH239268   6.570   2.651   5.386 -0.0699  0.0905 -0.2465
 5926TIP3    H139269   6.617   2.626   5.466  0.6416  0.2159 -0.6178
 5926TIP3    H239270   6.561   2.570   5.337  0.2916  0.1751 -0.4514
 5927TIP3   OH239271   3.360   1.043  11.434  1.1937 -0.4887  0.5156
 5927TIP3    H139272   3.294   1.045  11.365  2.6558 -2.7411 -1.0884
 5927TIP3    H239273   3.395   1.133  11.435 -0.2886  0.1353 -0.1676
 5928TIP3   OH239274   2.345   0.318   4.203  0.2320  0.3739  0.4379
 5928TIP3    H139275   2.425   0.329   4.151  0.8810  0.2513  1.3846
 5928TIP3    H239276   2.360   0.238   4.253 -0.0338  0.8954  1.3890
 5929TIP3   OH239277   6.602   6.202   1.877  0.5256 -0.4046  0.0162
 5929TIP3    H139278   6.632   6.276   1.824 -1.2876  0.9406  0.7542
 5929TIP3    H239279   6.663   6.199   1.950 -1.2350  2.6599  1.8181
 5930TIP3   OH239280   4.723   1.018  16.638  0.2040 -0.2073  0.3812
 5930TIP3    H139281   4.651   1.051  16.691  0.2856  2.3928 -0.9527
 5930TIP3    H239282   4.695   1.033  16.548  0.8092 -2.8554 -0.3446
 5931TIP3   OH239283   3.276   3.391   1.489  0.4773 -0.8686  0.8902
 5931TIP3    H139284   3.195   3.411   1.442  0.8712 -0.7829  0.2316
 5931TIP3    H239285   3.250   3.383   1.580 -0.3301 -1.1523  0.6429
 5932TIP3   OH239286   0.212   5.243   0.634  0.0779  0.4493  0.7376
 5932TIP3    H139287   0.271   5.277   0.567  1.8742 -0.7038  1.6404
 5932TIP3    H239288   0.240   5.287   0.715 -0.9578  0.5864  1.0452
 5933TIP3   OH239289   2.906   1.887   2.519  0.3062 -0.0639 -0.4251
 5933TIP3    H139290   2.971   1.957   2.513 -0.5112  0.6044 -2.0977
 5933TIP3    H239291   2.904   1.849   2.431 -0.2853 -1.2584  0.0874
 5934TIP3   OH239292   2.344   0.653  14.907  0.0565 -0.3428 -0.2695
 5934TIP3    H139293   2.288   0.674  14.832  0.0808  1.1724  0.1112
 5934TIP3    H239294   2.345   0.732  14.960  0.5423 -1.1822  1.0343
 5935TIP3   OH239295   3.744   5.716   4.593 -0.3454 -0.7352 -0.1965
 5935TIP3    H139296   3.687   5.642   4.615 -1.4172 -0.3810 -1.6505
 5935TIP3    H239297   3.694   5.793   4.620  1.1510 -0.5072  2.1751
 5936TIP3   OH239298   3.188   5.321   3.948  0.1343  0.0780  0.4056
 5936TIP3    H139299   3.273   5.296   3.913 -0.2423  0.9550 -1.2343
 5936TIP3    H239300   3.134   5.338   3.871 -0.8413  1.7970  1.4015
 5937TIP3   OH239301   4.346   3.404   0.882  0.3262  0.5747 -0.3319
 5937TIP3    H139302   4.261   3.380   0.847  0.4404 -1.3833  0.5771
 5937TIP3    H239303   4.393   3.320   0.890  0.8606  1.0429  2.9353
 5938TIP3   OH239304   6.764   0.822   5.343 -0.1705 -0.8781 -0.0698
 5938TIP3    H139305   6.709   0.847   5.416  0.1087  0.4366 -0.2829
 5938TIP3    H239306   6.733   0.735   5.318 -1.8092 -0.3790  0.1222
 5939TIP3   OH239307   1.246   4.748   5.318  0.0744 -0.2851 -0.3499
 5939TIP3    H139308   1.243   4.825   5.375  0.4146  0.3966 -1.2325
 5939TIP3    H239309   1.207   4.678   5.370 -0.9825  0.6701  0.1759
 5940TIP3   OH239310   2.556   2.730  14.280  0.0029  0.3332  0.0679
 5940TIP3    H139311   2.532   2.811  14.324 -1.4335 -0.5510  1.0221
 5940TIP3    H239312   2.484   2.670  14.299  1.3494 -1.3992 -0.0025
 5941TIP3   OH239313   2.922   0.971  12.414 -0.3912 -0.5008 -0.3474
 5941TIP3    H139314   2.981   0.998  12.484  0.1539  0.9188 -1.2991
 5941TIP3    H239315   2.835   0.967  12.454 -0.1942  0.9561  0.2640
 5942TIP3   OH239316   3.354   5.337   2.009  0.0653  0.0516 -0.1145
 5942TIP3    H139317   3.286   5.358   2.073  1.5243  0.4397  1.3541
 5942TIP3    H239318   3.305   5.311   1.931 -1.7864  1.6458  0.4208
 5943TIP3   OH239319   4.656   0.971   4.530 -0.4693  0.0423  0.2391
 5943TIP3    H139320   4.570   0.948   4.494 -0.1673  0.5648 -0.8858
 5943TIP3    H239321   4.696   1.026   4.462  1.3788 -1.4654  0.0295
 5944TIP3   OH239322   1.575   4.432   1.496 -0.5805 -0.3573  0.1301
 5944TIP3    H139323   1.643   4.412   1.431 -1.6289 -1.4561 -0.6862
 5944TIP3    H239324   1.594   4.375   1.570 -0.6237 -0.7055 -0.1215
 5945TIP3   OH239325   6.430   3.380  17.008 -0.0036  0.5714  0.1276
 5945TIP3    H139326   6.451   3.324  17.082  0.3774  1.3760  0.6412
 5945TIP3    H239327   6.346   3.348  16.976 -0.1865  0.2410  0.9279
 5946TIP3   OH239328   3.765   0.538  12.785  0.0920 -0.4958  0.2952
 5946TIP3    H139329   3.703   0.488  12.839 -0.0731  0.0780  0.6468
 5946TIP3    H239330   3.851   0.504  12.810 -0.0282 -0.7113  0.4220
 5947TIP3   OH239331   2.740   3.198   4.010  0.3866  0.2647 -0.5269
 5947TIP3    H139332   2.764   3.254   4.084  0.5801  0.8067 -0.9947
 5947TIP3    H239333   2.711   3.259   3.942  0.1276 -0.2360 -0.8730
 5948TIP3   OH239334   5.572   0.234  11.044 -0.0732 -0.3081 -0.0098
 5948TIP3    H139335   5.667   0.230  11.039 -0.0199  0.8166 -0.1226
 5948TIP3    H239336   5.554   0.284  11.123 -0.5036  1.3142 -1.0657
 5949TIP3   OH239337   4.597   4.028  11.285 -0.5070  0.1110 -0.5282
 5949TIP3    H139338   4.687   4.000  11.301 -0.1352  1.5278 -0.0258
 5949TIP3    H239339   4.602   4.080  11.205 -0.2484  2.9090  1.1897
 5950TIP3   OH239340   3.742   5.653   5.132  0.1563 -0.0104  0.0365
 5950TIP3    H139341   3.710   5.738   5.104 -2.6247 -0.9472  0.0649
 5950TIP3    H239342   3.731   5.597   5.054  3.0088 -0.1638 -0.3527
 5951TIP3   OH239343   0.350   6.740  13.394  0.3916 -0.2829  0.1877
 5951TIP3    H139344   0.315   6.681  13.326 -0.2262  0.5783 -0.2719
 5951TIP3    H239345   0.433   6.700  13.420 -0.1560 -1.5270  0.1320
 5952TIP3   OH239346   0.571   5.921  14.209 -0.0294 -0.7839 -0.8716
 5952TIP3    H139347   0.658   5.880  14.215  1.0527  1.4907  0.3398
 5952TIP3    H239348   0.563   5.947  14.117  1.5096  0.7583 -0.6255
 5953TIP3   OH239349   2.019   2.113  11.163 -0.1247 -0.2058  0.3762
 5953TIP3    H139350   1.961   2.146  11.094 -0.3831 -0.2009  0.5972
 5953TIP3    H239351   2.101   2.094  11.118 -0.7010 -1.4680 -0.1851
 5954TIP3   OH239352   6.467   1.287  12.158  0.0762 -0.0928 -0.3555
 5954TIP3    H139353   6.427   1.359  12.208  0.3761  0.9559 -1.5756
 5954TIP3    H239354   6.468   1.214  12.220 -1.0417  0.6823  0.6539
 5955TIP3   OH239355   1.534   5.474   2.363  0.1095 -0.3107 -0.1978
 5955TIP3    H139356   1.603   5.536   2.339  0.0414  0.0155  0.4423
 5955TIP3    H239357   1.453   5.517   2.337  0.0217  0.1221  0.7405
 5956TIP3   OH239358   6.727   3.434  16.076 -0.1154 -0.1853  0.6529
 5956TIP3    H139359   6.785   3.361  16.098 -0.0810  0.3424  2.4080
 5956TIP3    H239360   6.675   3.448  16.155 -2.9301 -0.8511 -0.9309
 5957TIP3   OH239361   3.992   2.280   5.853 -0.4855 -0.0709  0.7101
 5957TIP3    H139362   4.085   2.292   5.871 -0.7052  1.4847  0.9398
 5957TIP3    H239363   3.948   2.330   5.922 -1.4527  0.9563 -0.6219
 5958TIP3   OH239364   0.694   0.750  17.067 -0.0060 -0.2833 -0.6400
 5958TIP3    H139365   0.669   0.659  17.050  0.2644 -0.1906 -1.6293
 5958TIP3    H239366   0.720   0.751  17.159  0.5299 -1.3309 -0.7623
 5959TIP3   OH239367   3.783   4.097  12.474 -0.0192 -0.3512  0.0501
 5959TIP3    H139368   3.832   4.145  12.407  1.0334  0.0214  1.0499
 5959TIP3    H239369   3.703   4.147  12.486 -0.0706 -0.2474 -0.7096
 5960TIP3   OH239370   0.589   5.701   2.948  0.0675 -0.2018 -0.2471
 5960TIP3    H139371   0.656   5.717   3.015 -0.3020  1.0348 -0.1425
 5960TIP3    H239372   0.632   5.723   2.865 -0.0054 -0.0310 -0.2405
 5961TIP3   OH239373   1.040   0.901  14.969  0.1377  0.0660  0.1276
 5961TIP3    H139374   0.993   0.820  14.991  1.9183 -0.9698  0.2634
 5961TIP3    H239375   1.096   0.917  15.045 -0.6449  1.8274  0.3933
 5962TIP3   OH239376   1.423   1.222  17.115  0.0630 -0.1623  0.3396
 5962TIP3    H139377   1.479   1.251  17.186  2.9270 -2.3492 -0.8369
 5962TIP3    H239378   1.426   1.127  17.119 -1.0707 -0.3347 -1.6757
 5963TIP3   OH239379   6.264   0.223  13.035  0.7825  0.0695  0.0594
 5963TIP3    H139380   6.279   0.129  13.026  0.4779  0.0469 -0.2666
 5963TIP3    H239381   6.336   0.255  13.088 -0.2690 -0.7173  2.0562
 5964TIP3   OH239382   0.835   0.357   0.979  0.2836 -0.3491  0.1069
 5964TIP3    H139383   0.778   0.320   0.911  1.0817 -1.2525 -0.0869
 5964TIP3    H239384   0.910   0.391   0.931  1.6505 -2.4703  0.6273
 5965TIP3   OH239385   0.266   5.482  14.487 -1.0783 -0.7624  0.3614
 5965TIP3    H139386   0.287   5.399  14.530 -0.5818  0.5607  2.8726
 5965TIP3    H239387   0.181   5.506  14.522 -1.4190 -0.4054 -0.6812
 5966TIP3   OH239388   4.546   0.430   0.330  0.3471  0.2202  0.5936
 5966TIP3    H139389   4.606   0.424   0.404  0.0786 -0.1934  0.7776
 5966TIP3    H239390   4.591   0.386   0.258  0.1864 -0.2497  0.7814
 5967TIP3   OH239391   0.652   1.013  12.498  0.4240  0.0849  0.4028
 5967TIP3    H139392   0.719   1.051  12.441 -1.7126  1.8619 -1.1043
 5967TIP3    H239393   0.589   0.974  12.438 -0.7039 -0.1452  1.6886
 5968TIP3   OH239394   4.233   4.632   3.503 -0.0165  0.0898  0.1134
 5968TIP3    H139395   4.324   4.629   3.533 -0.1720 -0.7658  0.5331
 5968TIP3    H239396   4.187   4.570   3.560 -0.9432  0.7886  0.1628
 5969TIP3   OH239397   4.786   4.133   2.654 -0.2143 -0.1242 -0.5455
 5969TIP3    H139398   4.721   4.132   2.724  1.3424 -0.7222  0.9660
 5969TIP3    H239399   4.735   4.133   2.573 -2.0728 -1.1069  0.5802
 5970TIP3   OH239400   4.287   2.864   2.721 -0.0077  0.0897  0.4105
 5970TIP3    H139401   4.317   2.828   2.637  0.5745  1.4218  0.0277
 5970TIP3    H239402   4.192   2.859   2.716  0.0390 -0.5213 -0.0215
 5971TIP3   OH239403   1.066   2.624  16.180 -0.2533  0.0764 -0.7804
 5971TIP3    H139404   1.107   2.622  16.093  0.6515  0.9661 -0.3862
 5971TIP3    H239405   1.083   2.537  16.216  1.5172  0.4879 -0.5403
 5972TIP3   OH239406   2.176   4.815  13.606 -0.0557 -0.6664  0.2149
 5972TIP3    H139407   2.163   4.830  13.700  1.8233  2.1615  0.1480
 5972TIP3    H239408   2.266   4.782  13.599  0.2160  0.2016 -0.6318
 5973TIP3   OH239409   0.875   2.414  13.173  0.0396  0.0742  0.1505
 5973TIP3    H139410   0.834   2.328  13.187  1.6552 -1.1182 -1.7353
 5973TIP3    H239411   0.839   2.444  13.090  0.1250  0.8140  0.3768
 5974TIP3   OH239412   3.773   6.533   3.631  0.3168 -0.1768  0.2681
 5974TIP3    H139413   3.687   6.527   3.590 -0.0408  0.3789  0.9289
 5974TIP3    H239414   3.779   6.622   3.664 -0.3211 -1.1421  3.3475
 5975TIP3   OH239415   6.351   4.299   4.802  0.0466  0.3187  0.2763
 5975TIP3    H139416   6.344   4.378   4.748  2.2907 -0.3650 -1.1296
 5975TIP3    H239417   6.443   4.275   4.799 -0.7171 -3.0910 -0.4464
 5976TIP3   OH239418   4.732   5.860  11.792  0.0664  0.2089  0.0145
 5976TIP3    H139419   4.738   5.770  11.825  1.3310 -0.4878 -1.9431
 5976TIP3    H239420   4.700   5.851  11.703 -2.9073  2.0070  0.7888
 5977TIP3   OH239421   3.579   5.653  11.111 -0.0815  0.7387 -0.3179
 5977TIP3    H139422   3.596   5.594  11.185 -1.1011  0.3643 -0.3769
 5977TIP3    H239423   3.637   5.622  11.042  0.8257  1.0424  0.2749
 5978TIP3   OH239424   4.069   0.572  12.833  0.5630  0.1003  0.3729
 5978TIP3    H139425   4.068   0.603  12.923  0.3822  0.9662  0.0823
 5978TIP3    H239426   4.116   0.640  12.785  1.3304 -0.7210 -0.0653
 5979TIP3   OH239427   2.383   3.237   0.823  0.0311  0.5868 -0.0827
 5979TIP3    H139428   2.407   3.282   0.743  0.2233  1.7120  0.5924
 5979TIP3    H239429   2.289   3.251   0.832 -0.1683 -0.3605 -0.6043
 5980TIP3   OH239430   3.556   2.954   4.511  0.6472  0.0295  0.4040
 5980TIP3    H139431   3.558   2.891   4.439  0.2094 -0.4015  0.7592
 5980TIP3    H239432   3.616   2.918   4.576 -0.5128 -0.6775  1.1248
 5981TIP3   OH239433   0.536   5.053   0.390 -0.1444  0.3345 -0.5352
 5981TIP3    H139434   0.479   5.127   0.411  0.4513  0.6722 -0.0522
 5981TIP3    H239435   0.625   5.090   0.393  0.1460 -0.3489 -0.4990
 5982TIP3   OH239436   1.312   5.991   0.362  0.3108 -0.1938  0.2611
 5982TIP3    H139437   1.341   5.991   0.271 -0.5205  1.8427 -0.0727
 5982TIP3    H239438   1.232   5.939   0.361  0.0889  0.1430 -0.2730
 5983TIP3   OH239439   0.528   0.246  14.617  0.1671 -0.1487  0.1278
 5983TIP3    H139440   0.527   0.243  14.712 -0.1615  0.2357  0.1367
 5983TIP3    H239441   0.569   0.163  14.591 -0.4473 -0.6026  0.5790
 5984TIP3   OH239442   1.520   2.473   0.772 -0.5164 -0.2708  0.2287
 5984TIP3    H139443   1.545   2.540   0.836 -0.5730  0.7141 -0.7498
 5984TIP3    H239444   1.428   2.492   0.753 -0.3070 -0.1202 -0.6507
 5985TIP3   OH239445   0.009   4.211   6.325  0.2342  0.9429 -0.0406
 5985TIP3    H139446   0.008   4.243   6.235  0.8359 -2.6583 -1.4860
 5985TIP3    H239447  -0.079   4.178   6.340  0.1224  1.5700  0.7356
 5986TIP3   OH239448   5.812   0.144  12.640  0.2530 -0.5526  0.0725
 5986TIP3    H139449   5.744   0.197  12.600 -0.1039 -1.2984 -0.3352
 5986TIP3    H239450   5.774   0.114  12.722  0.6833  0.3103  0.6021
 5987TIP3   OH239451   1.149   3.312  13.334 -0.9841  0.2074  0.3133
 5987TIP3    H139452   1.150   3.351  13.421  0.0413  0.5449  0.1586
 5987TIP3    H239453   1.152   3.386  13.274  2.1072 -0.0354  0.0129
 5988TIP3   OH239454   2.416   5.925   4.843  0.2145  0.4851 -0.7152
 5988TIP3    H139455   2.462   6.009   4.855 -2.1728  1.8699 -0.5810
 5988TIP3    H239456   2.329   5.950   4.812  0.0497 -2.0992 -2.5858
 5989TIP3   OH239457   5.166   1.001   4.631 -0.1480  0.4000  0.4254
 5989TIP3    H139458   5.242   1.012   4.689  1.2089 -0.0926 -1.1784
 5989TIP3    H239459   5.096   1.050   4.674  1.4320  2.0064  1.2881
 5990TIP3   OH239460   6.097   6.223   1.019  0.0331  0.1482  0.5807
 5990TIP3    H139461   6.052   6.146   1.053  0.5467  0.2380  1.4955
 5990TIP3    H239462   6.045   6.250   0.943  0.5090 -1.7938 -0.4856
 5991TIP3   OH239463   3.337   1.287  17.036  0.1590 -0.3055  0.1130
 5991TIP3    H139464   3.431   1.290  17.054  0.1505  0.7848  0.0455
 5991TIP3    H239465   3.304   1.370  17.070 -0.7598 -0.6132 -0.0076
 5992TIP3   OH239466   6.765   3.497   0.085  0.8147  0.2799 -0.4639
 5992TIP3    H139467   6.701   3.567   0.067 -0.6315 -1.0795 -0.8610
 5992TIP3    H239468   6.795   3.470  -0.002 -1.4902 -2.0680 -0.6717
 5993TIP3   OH239469   5.990   2.733  14.409  0.3065 -0.0668  0.2332
 5993TIP3    H139470   6.041   2.812  14.396 -0.7525  0.5811 -0.1760
 5993TIP3    H239471   5.944   2.720  14.325 -0.7435 -0.1997  0.8110
 5994TIP3   OH239472   5.760   2.820   0.241 -0.0824 -0.1509 -0.1140
 5994TIP3    H139473   5.771   2.845   0.149 -1.1782 -0.4693 -0.3403
 5994TIP3    H239474   5.667   2.832   0.258 -0.0964 -1.2009  0.6302
 5995TIP3   OH239475   4.156   2.576  14.366  0.2576 -0.5265 -0.3656
 5995TIP3    H139476   4.236   2.523  14.360  0.1458 -0.8847  0.9707
 5995TIP3    H239477   4.158   2.631  14.288  3.4012  1.6644  1.0444
 5996TIP3   OH239478   4.717   1.752   1.822  0.4382  0.2475 -0.2800
 5996TIP3    H139479   4.758   1.666   1.831  0.5134 -0.0384 -2.7551
 5996TIP3    H239480   4.623   1.733   1.820  0.4916 -0.1044 -2.8924
 5997TIP3   OH239481   4.344   5.994  14.208 -0.3653  0.2051 -0.1280
 5997TIP3    H139482   4.399   6.065  14.239 -0.1958 -0.3624  0.9264
 5997TIP3    H239483   4.397   5.915  14.219 -1.7958 -0.5425  2.2143
 5998TIP3   OH239484   1.078   3.706  16.726 -0.4565 -0.0113  0.0022
 5998TIP3    H139485   1.024   3.782  16.702  0.0360  1.4215  2.9487
 5998TIP3    H239486   1.163   3.725  16.687 -0.5319  0.6093  0.1256
 5999TIP3   OH239487   5.112   1.783   2.425 -0.1172 -0.4394  0.0066
 5999TIP3    H139488   5.108   1.877   2.443 -0.0617 -0.6100  0.9622
 5999TIP3    H239489   5.038   1.766   2.367 -0.5726  0.0705  0.4324
 6000TIP3   OH239490   3.303   1.708  13.307  1.5108  0.1700  0.2649
 6000TIP3    H139491   3.377   1.763  13.281  0.4618  0.2601 -3.0246
 6000TIP3    H239492   3.330   1.620  13.280  1.1452 -0.0865  0.7408
 6001TIP3   OH239493   1.955   6.294   4.265  0.4537  0.0088  0.3547
 6001TIP3    H139494   1.939   6.204   4.293  1.3036 -1.1363 -2.4562
 6001TIP3    H239495   2.050   6.300   4.258  0.3842  0.9980  0.1120
 6002TIP3   OH239496   5.072   5.129  16.506  0.0050 -0.3174 -0.2122
 6002TIP3    H139497   5.130   5.056  16.483 -1.4978 -1.4618 -0.5339
 6002TIP3    H239498   5.071   5.129  16.601  0.1249 -0.6444 -0.2075
 6003TIP3   OH239499   1.763   0.087  11.591  0.2137 -0.5463 -0.5925
 6003TIP3    H139500   1.764  -0.008  11.581 -0.8765 -0.9101  2.0637
 6003TIP3    H239501   1.827   0.105  11.660 -2.4714  0.1035  1.9241
 6004TIP3   OH239502   3.976   3.891  16.938  0.2550  0.0075 -0.1858
 6004TIP3    H139503   3.994   3.867  16.847  0.4395  0.9331 -0.4080
 6004TIP3    H239504   3.923   3.819  16.971 -1.2324  0.4165 -1.5261
 6005TIP3   OH239505   1.278   1.414   6.458  0.0330 -0.0961 -0.6870
 6005TIP3    H139506   1.256   1.389   6.547 -1.4396 -0.3058 -1.0717
 6005TIP3    H239507   1.209   1.476   6.433  0.8933  0.6162 -1.4022
 6006TIP3   OH239508   5.854   1.310   3.058  0.4707 -0.4737 -0.7928
 6006TIP3    H139509   5.883   1.324   3.148  0.6981 -2.5083 -0.4885
 6006TIP3    H239510   5.936   1.301   3.008  0.3738 -1.1019 -0.8559
 6007TIP3   OH239511   6.519   3.385   0.202 -0.3673 -0.1591 -0.1827
 6007TIP3    H139512   6.495   3.368   0.111 -0.2842  1.3420 -0.5098
 6007TIP3    H239513   6.614   3.396   0.200 -0.3657 -0.1210  0.0832
 6008TIP3   OH239514   0.148   0.962   4.528  0.4121 -0.7975 -0.4104
 6008TIP3    H139515   0.136   1.006   4.611 -0.3837 -2.4121  0.3759
 6008TIP3    H239516   0.165   1.032   4.465  1.0954  0.4427  1.1044
 6009TIP3   OH239517   6.372   6.582  10.686 -0.3163  0.0870 -0.3579
 6009TIP3    H139518   6.316   6.659  10.681  1.9877  1.8613 -0.9887
 6009TIP3    H239519   6.440   6.607  10.748  1.2530 -0.8486 -1.6158
 6010TIP3   OH239520   5.097   4.303   1.164 -0.2531  0.4165  0.1268
 6010TIP3    H139521   5.039   4.372   1.135 -0.6432  0.9897  2.0923
 6010TIP3    H239522   5.039   4.239   1.206  0.1790 -0.7723 -1.0270
 6011TIP3   OH239523   6.094   5.782   2.263  0.1851 -0.1738  0.2182
 6011TIP3    H139524   6.048   5.706   2.228 -2.0564  1.0369  0.3131
 6011TIP3    H239525   6.101   5.842   2.189 -1.6314  1.0718  0.9917
 6012TIP3   OH239526   6.512   2.666  12.431 -0.0712 -0.3885 -0.0199
 6012TIP3    H139527   6.461   2.746  12.440  0.5392  0.1892 -1.3728
 6012TIP3    H239528   6.573   2.684  12.360  0.6944 -1.7447  0.2496
 6013TIP3   OH239529   0.158   0.324   3.439  0.0690 -0.4817  0.0564
 6013TIP3    H139530   0.106   0.402   3.456 -0.6676 -1.4417  2.5634
 6013TIP3    H239531   0.099   0.265   3.392  0.1369 -0.1169 -0.4902
 6014TIP3   OH239532   4.809   6.144  14.571  0.0589  0.0792  0.0981
 6014TIP3    H139533   4.830   6.065  14.521  1.3105  0.9860 -0.8970
 6014TIP3    H239534   4.836   6.216  14.513 -1.3442  1.2490  0.8428
 6015TIP3   OH239535   5.020   2.333  14.978 -0.5200  0.2884  0.1426
 6015TIP3    H139536   4.958   2.406  14.979  0.7878  1.5500  3.6396
 6015TIP3    H239537   5.073   2.348  14.900 -2.3040  1.1660 -0.9747
 6016TIP3   OH239538   2.842   3.284  12.769 -0.3308  0.0450 -0.3754
 6016TIP3    H139539   2.799   3.245  12.845  0.0505  0.8816  0.2820
 6016TIP3    H239540   2.770   3.305  12.709 -0.8887  1.4698  0.7270
 6017TIP3   OH239541   6.447   0.303  10.513 -0.2237 -0.5270  0.4098
 6017TIP3    H139542   6.476   0.389  10.482 -1.3262  0.4401  1.9083
 6017TIP3    H239543   6.356   0.317  10.539 -0.8703 -2.5240 -0.6203
 6018TIP3   OH239544   0.195   4.204  12.334  0.0434  0.3331 -0.0650
 6018TIP3    H139545   0.169   4.276  12.276 -0.6442  0.2396  0.1167
 6018TIP3    H239546   0.134   4.209  12.408  0.7527  0.2976  0.5343
 6019TIP3   OH239547   5.075   3.038   5.340  0.0497 -0.2528 -0.5807
 6019TIP3    H139548   5.124   2.999   5.412 -1.4202  0.7594  1.0511
 6019TIP3    H239549   5.139   3.044   5.268  0.8851 -3.6354 -0.2904
 6020TIP3   OH239550   3.298   1.251   4.503  0.4684 -0.1602 -0.0281
 6020TIP3    H139551   3.304   1.297   4.419  2.4809  0.7590  0.5707
 6020TIP3    H239552   3.382   1.266   4.545 -0.3317 -0.9702  1.9866
 6021TIP3   OH239553   1.759   2.572   0.055  0.5488 -0.6281  0.3092
 6021TIP3    H139554   1.848   2.599   0.080  0.0544  1.8564 -0.3653
 6021TIP3    H239555   1.712   2.568   0.138  1.0136 -0.8670  0.5681
 6022TIP3   OH239556   5.055   2.705   6.336  0.2734  0.0392 -0.3580
 6022TIP3    H139557   4.992   2.710   6.265 -2.5994  2.6240  2.1068
 6022TIP3    H239558   5.071   2.796   6.361  1.4568 -0.7303  2.0164
 6023TIP3   OH239559   1.678   3.285   6.669 -0.5776  0.7165  0.8495
 6023TIP3    H139560   1.644   3.216   6.725 -0.2556  0.2177  0.4387
 6023TIP3    H239561   1.744   3.329   6.723  0.1365 -0.1259  0.6799
 6024TIP3   OH239562   1.956   4.452   1.201 -0.0726 -0.0806 -0.1252
 6024TIP3    H139563   1.963   4.547   1.212  3.0836 -0.1672 -0.5193
 6024TIP3    H239564   1.974   4.437   1.109  0.6409 -1.1206  0.1634
 6025TIP3   OH239565   0.492   6.196  12.061 -0.1015  0.5612  0.2394
 6025TIP3    H139566   0.545   6.274  12.076 -1.4960  1.5968 -0.0124
 6025TIP3    H239567   0.513   6.138  12.135  2.2091  0.4159 -0.4542
 6026TIP3   OH239568   3.545   0.578   1.997  0.2494  0.4060 -0.1804
 6026TIP3    H139569   3.488   0.655   2.007 -1.0822 -0.3028 -1.8110
 6026TIP3    H239570   3.484   0.504   1.992  1.3914 -0.5259 -0.7457
 6027TIP3   OH239571   5.140   0.497   0.087 -0.1879 -0.2790  0.4293
 6027TIP3    H139572   5.232   0.507   0.113 -0.0178 -1.5073  0.3416
 6027TIP3    H239573   5.137   0.413   0.042 -1.6937 -1.0449  1.8969
 6028TIP3   OH239574   3.542   4.682  15.291 -0.3967 -0.0410  0.1484
 6028TIP3    H139575   3.478   4.712  15.356 -1.9724 -1.7570 -0.5106
 6028TIP3    H239576   3.512   4.720  15.209 -1.0534 -1.4494 -0.2914
 6029TIP3   OH239577   2.592   6.791  12.361  0.0268  0.1799  0.5292
 6029TIP3    H139578   2.624   6.880  12.345 -0.4292  0.3676  0.6544
 6029TIP3    H239579   2.668   6.745  12.397  1.0227 -0.1889 -1.8540
 6030TIP3   OH239580   6.097   0.463   0.806  0.5136  0.2249  0.0873
 6030TIP3    H139581   6.072   0.435   0.718 -0.2347  2.0956 -0.3333
 6030TIP3    H239582   6.054   0.400   0.864  1.1980 -1.1712 -0.8361
 6031TIP3   OH239583   3.001   3.249  17.077  0.5144 -0.5452 -0.3025
 6031TIP3    H139584   3.033   3.264  16.988  0.9803 -0.0060 -0.0566
 6031TIP3    H239585   3.081   3.240  17.129  0.2445 -1.0307  0.0375
 6032TIP3   OH239586   4.204   1.496   1.262  0.3013  0.0033 -0.3541
 6032TIP3    H139587   4.260   1.495   1.185  0.5568  2.1542 -0.2547
 6032TIP3    H239588   4.170   1.407   1.268 -0.1200 -0.1194 -3.2352
 6033TIP3   OH239589   5.708   6.729   5.192  0.6264  0.1761 -0.3543
 6033TIP3    H139590   5.755   6.812   5.200 -0.7589  1.2179 -2.2244
 6033TIP3    H239591   5.651   6.726   5.269  1.4648  0.3865  0.2981
 6034TIP3   OH239592   0.906   3.421  14.486  0.0680 -0.3885 -0.4134
 6034TIP3    H139593   0.966   3.349  14.468  0.2793 -0.5892  0.9352
 6034TIP3    H239594   0.901   3.425  14.582 -0.9981  0.5170 -0.4737
 6035TIP3   OH239595   0.704   5.573   1.532 -0.4456  0.2070 -0.2343
 6035TIP3    H139596   0.745   5.632   1.468  0.1609 -0.6975 -0.7064
 6035TIP3    H239597   0.632   5.532   1.483  0.3896 -0.9365 -0.5627
 6036TIP3   OH239598   5.609   6.613   3.211 -0.1757 -0.6328  0.0003
 6036TIP3    H139599   5.536   6.551   3.206 -1.0255  0.4355 -1.9010
 6036TIP3    H239600   5.594   6.673   3.138  1.6864  0.6496  0.6120
 6037TIP3   OH239601   6.413   5.204  11.691 -0.0809  0.0978 -0.1222
 6037TIP3    H139602   6.459   5.131  11.733 -1.5827 -0.3170  0.8874
 6037TIP3    H239603   6.397   5.174  11.601 -1.0079 -0.9876  0.3883
 6038TIP3   OH239604   6.183   0.299  14.749  0.4034 -0.5029  0.7775
 6038TIP3    H139605   6.269   0.339  14.761  0.6711 -1.1397  1.0325
 6038TIP3    H239606   6.125   0.372  14.729  1.0024 -0.0664  0.6119
 6039TIP3   OH239607   4.181   0.781   5.066 -0.3106 -0.1812  0.4841
 6039TIP3    H139608   4.214   0.816   4.983 -0.0689 -1.6986 -0.1080
 6039TIP3    H239609   4.086   0.793   5.061 -0.1964  0.8129  0.5316
 6040TIP3   OH239610   0.484   6.009   3.166 -0.1656 -0.0014  0.3393
 6040TIP3    H139611   0.461   5.976   3.253 -1.6053  1.0353  0.3739
 6040TIP3    H239612   0.460   6.102   3.168  0.5931  0.2491 -0.8917
 6041TIP3   OH239613   2.621   4.011   2.099  0.0723  0.6541 -0.0828
 6041TIP3    H139614   2.634   4.083   2.160 -0.0468  0.0334  0.6954
 6041TIP3    H239615   2.552   4.041   2.040 -0.1217  1.1019  0.3675
 6042TIP3   OH239616   0.499   6.698   2.194 -0.2128  0.2037 -0.2181
 6042TIP3    H139617   0.534   6.703   2.105 -1.7726 -1.1082 -0.9572
 6042TIP3    H239618   0.456   6.782   2.208  0.2848  0.5218 -0.5949
 6043TIP3   OH239619   6.032   3.855   4.788  0.0615 -0.7626 -0.4062
 6043TIP3    H139620   6.063   3.946   4.786  1.7816 -1.3213 -1.2051
 6043TIP3    H239621   6.097   3.809   4.841 -1.2501 -1.4113  0.7017
 6044TIP3   OH239622   5.824   1.071  15.746  0.3425  0.1645 -0.2036
 6044TIP3    H139623   5.764   1.088  15.673  0.0466  1.6563  0.3549
 6044TIP3    H239624   5.766   1.063  15.822  0.6102 -1.8032 -0.1563
 6045TIP3   OH239625   3.804   1.064  12.170 -0.0348 -0.4556  0.0419
 6045TIP3    H139626   3.753   1.003  12.223  0.1162  0.2979  1.1093
 6045TIP3    H239627   3.753   1.145  12.171  0.0303 -0.3974 -0.8881
 6046TIP3   OH239628   5.589   0.228   2.942  0.3627  0.2666  0.2601
 6046TIP3    H139629   5.508   0.274   2.922  0.6936  0.3983 -0.8134
 6046TIP3    H239630   5.618   0.191   2.858  0.5562 -1.1638  0.9283
 6047TIP3   OH239631   6.229   5.890   0.449 -0.7127  0.4824  0.6242
 6047TIP3    H139632   6.195   5.950   0.384 -0.4662  0.7385  0.7274
 6047TIP3    H239633   6.171   5.814   0.446  0.3933 -0.3613 -1.2445
 6048TIP3   OH239634   5.979   5.983   5.322 -0.2840 -0.0409 -0.0175
 6048TIP3    H139635   5.963   5.979   5.417  1.1918  1.7452  0.3572
 6048TIP3    H239636   5.928   6.059   5.293 -0.2328 -0.2099 -0.5548
 6049TIP3   OH239637   5.289   1.392  12.809 -0.2891 -0.1709  0.0175
 6049TIP3    H139638   5.338   1.433  12.738 -0.8829  0.8984  0.2056
 6049TIP3    H239639   5.324   1.433  12.889 -0.3793 -0.5782  0.2699
 6050TIP3   OH239640   3.077   1.595   4.722  0.4600  0.1448 -0.4352
 6050TIP3    H139641   3.022   1.673   4.727  1.3971  0.8701 -1.0974
 6050TIP3    H239642   3.086   1.565   4.813 -0.1349  0.6404 -0.2101
 6051TIP3   OH239643   2.213   1.524   0.962 -0.0500 -0.0267  0.0329
 6051TIP3    H139644   2.213   1.430   0.977 -0.9089  0.2194  1.7128
 6051TIP3    H239645   2.122   1.550   0.973  0.3107  1.1191  0.4111
 6052TIP3   OH239646   2.453   5.425  16.758 -0.0352  0.8541 -0.2554
 6052TIP3    H139647   2.416   5.349  16.713 -0.7290  0.8981  0.2244
 6052TIP3    H239648   2.545   5.403  16.771 -0.7545 -1.1103  2.2679
 6053TIP3   OH239649   4.086   4.660   3.088  0.6735  0.3331 -0.0312
 6053TIP3    H139650   4.004   4.639   3.042 -0.7827  1.2994  1.9876
 6053TIP3    H239651   4.128   4.726   3.033 -0.1597  0.2045 -0.8459
 6054TIP3   OH239652   3.297   1.435   4.276 -0.4200  0.1761  0.4260
 6054TIP3    H139653   3.320   1.517   4.233  4.1567 -0.2769  1.5137
 6054TIP3    H239654   3.241   1.389   4.212 -1.1864  3.0689 -1.1411
 6055TIP3   OH239655   3.649   0.781  15.443  0.3332 -0.7046 -0.1734
 6055TIP3    H139656   3.702   0.765  15.521  0.2275  0.2267  0.1071
 6055TIP3    H239657   3.710   0.768  15.370  0.8783  0.0076  0.1345
 6056TIP3   OH239658   0.341   3.051  13.226 -0.7152 -0.3178 -0.4029
 6056TIP3    H139659   0.308   3.073  13.313  0.9122 -1.0595  0.4632
 6056TIP3    H239660   0.292   2.973  13.200  0.0124 -1.1572  0.6669
 6057TIP3   OH239661   1.357   2.258  11.878  1.0281 -0.2556 -0.4592
 6057TIP3    H139662   1.303   2.211  11.813 -1.1083 -1.5577  2.0735
 6057TIP3    H239663   1.325   2.348  11.875 -0.2616 -0.6807 -0.0833
 6058TIP3   OH239664   5.898   6.456  12.461  0.2589 -0.1084 -0.5733
 6058TIP3    H139665   5.825   6.505  12.501  1.3362  0.4176  0.8282
 6058TIP3    H239666   5.856   6.405  12.392 -1.5598 -0.2433  0.5314
 6059TIP3   OH239667   5.433   6.023  15.828 -0.0361  0.3918 -0.2848
 6059TIP3    H139668   5.360   6.074  15.794  0.3954  0.7569 -0.6675
 6059TIP3    H239669   5.414   5.933  15.802  1.2327  0.8614 -3.2535
 6060TIP3   OH239670   0.840   0.532  11.675 -0.2222  0.1635 -0.0970
 6060TIP3    H139671   0.859   0.624  11.657  1.4213 -0.1997 -0.4588
 6060TIP3    H239672   0.797   0.500  11.595 -2.3833  0.9923  0.6836
 6061TIP3   OH239673   4.916   6.784   4.561  0.3892  0.2887  0.1927
 6061TIP3    H139674   4.996   6.765   4.609  0.5844  0.0449 -0.2238
 6061TIP3    H239675   4.848   6.736   4.607  0.6452 -0.2850 -0.0205
 6062TIP3   OH239676   1.688   3.339   2.348  0.1570 -0.0727  0.2733
 6062TIP3    H139677   1.630   3.330   2.272  0.7654 -2.6407  0.0358
 6062TIP3    H239678   1.733   3.422   2.333 -1.6406  0.7755 -0.7901
 6063TIP3   OH239679   5.110   2.815  14.377 -0.1536 -0.2170 -0.1190
 6063TIP3    H139680   5.184   2.874  14.395  0.0079 -0.7380  1.0466
 6063TIP3    H239681   5.138   2.764  14.302 -0.4131  1.3657 -1.3552
 6064TIP3   OH239682   0.710   2.376  15.083 -0.1988  0.3310  0.1878
 6064TIP3    H139683   0.748   2.292  15.108  1.1947  0.3955 -1.5405
 6064TIP3    H239684   0.627   2.352  15.042 -0.9788  0.0201  1.8382
 6065TIP3   OH239685   5.055   4.345  16.820 -0.1772 -0.2646  0.2482
 6065TIP3    H139686   5.078   4.423  16.869 -2.0338  0.9555 -0.7197
 6065TIP3    H239687   5.028   4.281  16.887 -0.6783  0.6505  0.9360
 6066TIP3   OH239688   3.074   4.548  13.345  0.4969  0.2667  0.0353
 6066TIP3    H139689   3.096   4.495  13.421 -2.4435 -0.2383  0.6559
 6066TIP3    H239690   2.984   4.524  13.324 -0.0068  2.9831 -1.4097
 6067TIP3   OH239691   2.264   1.616  12.415 -0.3799 -0.1941  0.1042
 6067TIP3    H139692   2.264   1.569  12.498 -0.6969 -0.4739 -0.0555
 6067TIP3    H239693   2.327   1.688  12.428  1.4204 -1.6396 -0.1993
 6068TIP3   OH239694   1.311   5.025   4.255  0.1547 -0.4358  0.7097
 6068TIP3    H139695   1.277   5.076   4.182  0.0031 -0.2821  0.8873
 6068TIP3    H239696   1.315   4.935   4.222 -1.3065 -0.6246  0.9704
 6069TIP3   OH239697   2.326   5.208   4.080 -0.5279  0.3179 -0.0984
 6069TIP3    H139698   2.332   5.116   4.053  0.0178  0.3566 -0.1053
 6069TIP3    H239699   2.330   5.258   3.999  3.9171  0.5926  0.0837
 6070TIP3   OH239700   5.695   2.167  15.970  0.4658 -0.4058  0.5415
 6070TIP3    H139701   5.680   2.248  16.019  0.4635 -0.8691  1.3181
 6070TIP3    H239702   5.693   2.098  16.036  3.7351 -0.7673  0.4687
 6071TIP3   OH239703   4.931   4.787  11.014 -0.1508  0.2377 -0.2493
 6071TIP3    H139704   4.840   4.771  11.036 -0.0329 -2.0278 -1.2000
 6071TIP3    H239705   4.928   4.827  10.926 -0.2085 -0.8928 -0.7746
 6072TIP3   OH239706   5.354   6.812  12.659 -0.0302 -0.4665 -0.3770
 6072TIP3    H139707   5.409   6.808  12.738 -0.7151 -0.5478  0.1023
 6072TIP3    H239708   5.412   6.785  12.588  0.3170 -1.3978  0.2492
 6073TIP3   OH239709   3.210   4.235   3.718  0.6701  0.0163  0.2008
 6073TIP3    H139710   3.158   4.240   3.798 -0.7751  1.1191 -0.7648
 6073TIP3    H239711   3.187   4.314   3.669  2.0680 -0.2706 -0.9869
 6074TIP3   OH239712   2.898   1.344  12.895  0.8540 -0.3002 -0.2811
 6074TIP3    H139713   2.969   1.371  12.837  1.3980 -0.1359  0.4326
 6074TIP3    H239714   2.911   1.396  12.975  0.1819 -0.5747  0.0182
 6075TIP3   OH239715   1.569   5.912  16.351 -0.2808 -0.4002 -0.2495
 6075TIP3    H139716   1.484   5.931  16.392  0.2214 -0.3224  0.8065
 6075TIP3    H239717   1.547   5.881  16.264 -1.4895 -2.0231  0.5745
 6076TIP3   OH239718   4.993   2.806   6.085 -0.5978  0.1790 -0.4942
 6076TIP3    H139719   4.915   2.858   6.066 -1.1228 -0.5944 -0.5125
 6076TIP3    H239720   5.065   2.856   6.047 -1.4225 -0.5716 -3.3176
 6077TIP3   OH239721   6.409   6.751  16.420 -0.4892  0.6756  0.0410
 6077TIP3    H139722   6.497   6.754  16.383 -0.6453 -0.1498 -0.4124
 6077TIP3    H239723   6.350   6.753  16.344 -0.8122 -0.8900  0.2138
 6078TIP3   OH239724   5.499   3.764   1.449 -0.0446 -0.4198 -0.1592
 6078TIP3    H139725   5.565   3.744   1.515 -0.0444 -1.3464 -0.4218
 6078TIP3    H239726   5.442   3.829   1.490  1.6919  1.3149 -0.3587
 6079TIP3   OH239727   2.863   4.578  15.749  0.1903 -0.0107  0.6399
 6079TIP3    H139728   2.818   4.661  15.762 -0.9995 -0.6322  0.6341
 6079TIP3    H239729   2.901   4.557  15.835  0.4986  0.5259  0.6390
 6080TIP3   OH239730   6.584   4.114   2.431  0.5218 -0.1898  0.2197
 6080TIP3    H139731   6.676   4.088   2.432  0.6335  0.2049  1.1126
 6080TIP3    H239732   6.539   4.040   2.473  0.9160  1.1907  3.3839
 6081TIP3   OH239733   3.413   3.290   2.249 -0.6121  0.0852  0.0084
 6081TIP3    H139734   3.487   3.342   2.282 -0.4972  0.2899 -0.5520
 6081TIP3    H239735   3.340   3.351   2.247 -1.1784 -0.4792  1.9138
 6082TIP3   OH239736   3.507   0.373   4.270  0.3753 -0.5841  0.3611
 6082TIP3    H139737   3.422   0.356   4.230  0.1739  2.0063 -0.4842
 6082TIP3    H239738   3.510   0.316   4.346 -2.5356 -0.0700  0.9529
 6083TIP3   OH239739   2.321   3.845   1.713  0.0867 -0.3605  0.1236
 6083TIP3    H139740   2.269   3.898   1.774 -2.0999 -0.3065 -1.6157
 6083TIP3    H239741   2.407   3.839   1.752 -1.3357 -0.8392  3.4893
 6084TIP3   OH239742   6.043   5.733  15.061  0.0737  0.3130 -0.0872
 6084TIP3    H139743   5.969   5.673  15.071  1.2072 -0.9064  1.5472
 6084TIP3    H239744   6.012   5.815  15.101  0.3779 -0.9395  3.0176
 6085TIP3   OH239745   6.801   0.550   2.580  0.1504  0.4278  0.6579
 6085TIP3    H139746   6.812   0.455   2.571 -1.8555  0.2532 -0.8455
 6085TIP3    H239747   6.799   0.565   2.674  0.6770 -0.9980  0.9264
 6086TIP3   OH239748   4.081   0.928   2.165  0.0305 -0.5810 -0.0042
 6086TIP3    H139749   4.103   1.021   2.157 -1.1084 -0.3418 -0.5608
 6086TIP3    H239750   4.069   0.899   2.074 -1.9387 -0.6772  0.2480
 6087TIP3   OH239751   2.162   2.903  15.219  0.0376 -0.2051 -0.5659
 6087TIP3    H139752   2.205   2.865  15.295 -0.2983  1.5541  0.5575
 6087TIP3    H239753   2.233   2.922  15.158  0.5170 -0.0359  0.0414
 6088TIP3   OH239754   1.628   5.962   1.593 -0.0502 -0.0654  0.1507
 6088TIP3    H139755   1.583   5.899   1.649 -0.4067  0.3420  0.3305
 6088TIP3    H239756   1.613   6.047   1.635 -0.9238  0.3417 -0.9216
 6089TIP3   OH239757   0.052   3.834  15.212 -0.4961 -0.2014 -0.6760
 6089TIP3    H139758   0.140   3.797  15.206 -0.7913 -1.0049 -0.2948
 6089TIP3    H239759  -0.006   3.760  15.192 -1.0775  0.3723 -1.1426
 6090TIP3   OH239760   0.962   6.472   1.047  0.1250  0.0949 -0.3331
 6090TIP3    H139761   0.913   6.528   1.107 -0.5385 -0.6952 -0.1252
 6090TIP3    H239762   1.003   6.406   1.102  2.1843  1.2224 -0.3933
 6091TIP3   OH239763   3.780   1.629   4.288 -0.2010 -0.0368  0.1537
 6091TIP3    H139764   3.785   1.543   4.332 -0.1888 -2.0373 -3.3740
 6091TIP3    H239765   3.871   1.650   4.267 -0.3199  0.2574 -0.0661
 6092TIP3   OH239766   1.797   6.350   2.968  0.3754  0.2019 -0.6763
 6092TIP3    H139767   1.756   6.275   3.011  0.5556  0.0911 -0.6924
 6092TIP3    H239768   1.818   6.318   2.880 -1.3089  0.8831 -1.3552
 6093TIP3   OH239769   3.433   3.951   1.640  0.3597 -0.1187 -0.2841
 6093TIP3    H139770   3.448   3.866   1.600  1.0551 -0.8205  1.3717
 6093TIP3    H239771   3.520   3.988   1.652  0.1487  0.2227  0.2594
 6094TIP3   OH239772   2.385   6.288  13.385 -0.1824 -0.0231 -0.7828
 6094TIP3    H139773   2.465   6.236  13.385 -0.9472 -1.2481 -1.1491
 6094TIP3    H239774   2.317   6.227  13.357 -1.2791  0.9389 -0.3083
 6095TIP3   OH239775   0.487   5.454   4.862 -0.1223 -0.3451  0.3466
 6095TIP3    H139776   0.420   5.416   4.919 -0.0652 -0.1085  0.5742
 6095TIP3    H239777   0.512   5.535   4.906  0.2717 -0.4018  0.2315
 6096TIP3   OH239778   2.192   5.772   4.667  0.1611  0.1018 -0.1069
 6096TIP3    H139779   2.107   5.754   4.706  0.6125 -0.7642  0.5035
 6096TIP3    H239780   2.222   5.688   4.633  0.7270  0.4185 -0.4192
 6097TIP3   OH239781   0.476   2.763  13.502  0.0548 -0.4642  0.7252
 6097TIP3    H139782   0.392   2.807  13.491  0.2866  0.3006  1.8634
 6097TIP3    H239783   0.533   2.828  13.543  1.2355 -0.9501 -0.0818
 6098TIP3   OH239784   6.418   3.112  16.106  0.3078  0.3612 -0.8781
 6098TIP3    H139785   6.486   3.130  16.170 -0.5857 -0.5208  0.3580
 6098TIP3    H239786   6.348   3.069  16.155 -1.3344  1.5820 -1.9962
 6099TIP3   OH239787   2.229   0.812  11.816 -0.0617  0.3388  0.3735
 6099TIP3    H139788   2.229   0.904  11.788 -2.5720  0.7937  1.6266
 6099TIP3    H239789   2.257   0.764  11.738 -3.3407  1.8312 -1.9585
 6100TIP3   OH239790   3.560   5.422   4.668  0.2058 -0.1261  0.1701
 6100TIP3    H139791   3.472   5.455   4.686  0.0642 -1.2039  1.6419
 6100TIP3    H239792   3.566   5.421   4.572 -0.3390  2.5308  0.0381
 6101TIP3   OH239793   2.507   2.618   1.469  0.2951  0.7538 -0.3046
 6101TIP3    H139794   2.566   2.689   1.444 -0.0209  1.7877  1.6440
 6101TIP3    H239795   2.508   2.558   1.395  2.7964  1.3709 -0.8666
 6102TIP3   OH239796   2.680   2.199   3.249  0.1458 -0.4996 -0.8663
 6102TIP3    H139797   2.742   2.188   3.178 -0.2143 -2.0233 -0.9752
 6102TIP3    H239798   2.734   2.218   3.326  0.7786 -1.9966 -0.9173
 6103TIP3   OH239799   1.678   6.665   0.736 -0.2652 -0.0110 -0.4830
 6103TIP3    H139800   1.724   6.715   0.803  0.9006  0.7443 -1.8046
 6103TIP3    H239801   1.728   6.584   0.728 -1.7362 -1.1647  1.1395
 6104TIP3   OH239802   1.470   0.405  13.621 -0.2314  0.4165 -0.6008
 6104TIP3    H139803   1.460   0.492  13.659  0.2511  0.2312 -0.0301
 6104TIP3    H239804   1.542   0.366  13.670 -1.1069 -0.6925 -0.1532
 6105TIP3   OH239805   0.200   5.324  11.609 -0.0705 -0.1220  0.0054
 6105TIP3    H139806   0.283   5.347  11.650 -0.2175 -0.9551  0.8003
 6105TIP3    H239807   0.222   5.306  11.517  0.2539  1.8275 -0.3385
 6106TIP3   OH239808   2.145   5.365   3.062 -0.2522 -0.0297  0.2676
 6106TIP3    H139809   2.101   5.403   3.137  0.9062  2.1128 -0.0499
 6106TIP3    H239810   2.197   5.437   3.025  0.6206 -1.4688 -1.5131
 6107TIP3   OH239811   0.849   6.596   5.299 -0.2260  0.1985  0.5440
 6107TIP3    H139812   0.766   6.588   5.251 -0.8402  1.7279  1.2899
 6107TIP3    H239813   0.903   6.653   5.245  0.2180 -0.4828  0.2502
 6108TIP3   OH239814   0.476   2.108   6.632 -0.3308 -0.0752 -0.5566
 6108TIP3    H139815   0.433   2.132   6.550 -1.5889 -1.5900 -0.3938
 6108TIP3    H239816   0.421   2.148   6.700 -0.2115 -0.1427 -0.4206
 6109TIP3   OH239817   3.905   4.635   3.841  0.2392  0.4430 -0.0824
 6109TIP3    H139818   3.812   4.655   3.846 -0.0825 -1.0049  0.4460
 6109TIP3    H239819   3.914   4.585   3.760  0.5674  0.6641 -0.1818
 6110TIP3   OH239820   1.531   5.262   5.401  0.7188 -0.4270  0.7515
 6110TIP3    H139821   1.569   5.308   5.326 -0.6911  0.2436  0.4093
 6110TIP3    H239822   1.446   5.305   5.414  0.7570 -0.8355  2.4625
 6111TIP3   OH239823   4.462   0.796   2.060 -0.0328  0.7420 -0.3589
 6111TIP3    H139824   4.537   0.837   2.016 -0.0288  3.7008  2.0273
 6111TIP3    H239825   4.386   0.822   2.008  0.2576  1.4617 -0.4365
 6112TIP3   OH239826   2.058   4.448   0.945  0.3445 -0.0783 -0.2092
 6112TIP3    H139827   2.115   4.376   0.919  1.2131 -0.1894  1.7892
 6112TIP3    H239828   2.095   4.525   0.902  0.6849 -0.5019 -0.6772
 6113TIP3   OH239829   1.145   2.125  15.714  0.5116 -0.3817 -0.0094
 6113TIP3    H139830   1.222   2.171  15.747 -0.4392 -0.7436  3.0022
 6113TIP3    H239831   1.080   2.194  15.699  0.3357 -0.3661  0.7814
 6114TIP3   OH239832   5.548   4.330  12.132  0.1413  0.2691 -0.7138
 6114TIP3    H139833   5.594   4.264  12.184 -0.4119  1.3384  1.2141
 6114TIP3    H239834   5.455   4.310  12.145 -0.0486  1.6839  0.3019
 6115TIP3   OH239835   2.785   3.292   1.921  0.0524  0.4759 -0.1440
 6115TIP3    H139836   2.849   3.314   1.853  0.2271 -3.5785 -1.5270
 6115TIP3    H239837   2.700   3.311   1.881  0.2230 -0.0511 -0.7670
 6116TIP3   OH239838   0.370   0.366  10.873 -0.4232  0.5536  0.6368
 6116TIP3    H139839   0.316   0.418  10.813 -0.4140 -0.4191 -0.2513
 6116TIP3    H239840   0.450   0.417  10.882 -0.0040  0.2634 -1.0178
 6117TIP3   OH239841   6.645   6.343   3.888  0.2166  0.0648 -0.1699
 6117TIP3    H139842   6.614   6.432   3.868  4.4352  1.8610  0.2268
 6117TIP3    H239843   6.633   6.335   3.983  3.1228  1.9266  0.5104
 6118TIP3   OH239844   1.449   6.627   1.368 -0.2837  0.3697  0.5802
 6118TIP3    H139845   1.367   6.641   1.320 -0.9003 -0.6809  1.2975
 6118TIP3    H239846   1.467   6.534   1.358  1.9033  0.8966 -1.2043
 6119TIP3   OH239847   5.565   1.903   6.388  0.2584  0.0199 -0.0342
 6119TIP3    H139848   5.528   1.991   6.400  1.1688  0.3381  0.5349
 6119TIP3    H239849   5.545   1.857   6.469 -1.3951 -0.7658 -0.8402
 6120TIP3   OH239850   5.102   0.563   0.753 -0.1122  0.1133 -0.1131
 6120TIP3    H139851   5.151   0.637   0.717 -0.1141  0.1361 -0.0690
 6120TIP3    H239852   5.039   0.540   0.684  0.4511 -0.3873 -0.4653
 6121TIP3   OH239853   0.326   6.818  12.190  0.7908 -0.1165  0.1015
 6121TIP3    H139854   0.418   6.843  12.183  0.4835  0.5841 -2.5722
 6121TIP3    H239855   0.325   6.725  12.168  0.6474  0.4616 -2.6262
 6122TIP3   OH239856   3.140   6.212  16.038  0.2806  0.2044 -0.1474
 6122TIP3    H139857   3.150   6.181  15.948 -3.5716 -2.5539  0.1189
 6122TIP3    H239858   3.066   6.271  16.035  0.4727  0.5345  1.1540
 6123TIP3   OH239859   2.275   0.745  13.119 -0.0048 -0.1894  0.0769
 6123TIP3    H139860   2.281   0.652  13.101  0.0116  0.0514 -1.2289
 6123TIP3    H239861   2.358   0.781  13.089 -0.1715  0.3042  0.1940
 6124TIP3   OH239862   4.986   0.523  15.768 -0.1212 -0.1257 -0.0356
 6124TIP3    H139863   5.053   0.583  15.735  1.0736 -1.0158  0.6745
 6124TIP3    H239864   4.975   0.458  15.698 -0.3937  0.1414 -0.2396
 6125TIP3   OH239865   6.009   4.899   2.079 -0.3020  0.7455 -0.1954
 6125TIP3    H139866   5.998   4.816   2.126  0.1556  1.2769  0.8865
 6125TIP3    H239867   6.000   4.875   1.987 -2.0201 -0.1963  0.1743
 6126TIP3   OH239868   0.697   3.069  16.870 -0.0803  1.1706  0.2396
 6126TIP3    H139869   0.637   3.060  16.796  1.0487  0.8239 -0.6600
 6126TIP3    H239870   0.728   3.159  16.865  3.9451 -0.0939 -2.9543
 6127TIP3   OH239871   5.846   1.833  12.995  0.2646  0.8548 -0.3019
 6127TIP3    H139872   5.873   1.912  13.042  2.2777  1.1372 -1.7961
 6127TIP3    H239873   5.810   1.864  12.913 -1.6082  0.2930  0.2651
 6128TIP3   OH239874   6.755   4.745  10.950  0.3668  0.0992 -0.1566
 6128TIP3    H139875   6.687   4.783  10.894 -1.6780  0.1006  2.1311
 6128TIP3    H239876   6.763   4.807  11.022  0.4692 -1.4265  1.2054
 6129TIP3   OH239877   1.294   3.605  13.842  0.4788  0.1005 -0.0026
 6129TIP3    H139878   1.290   3.643  13.755 -0.7523 -1.8000 -0.8369
 6129TIP3    H239879   1.387   3.609  13.866  0.5859  2.3180 -0.5574
 6130TIP3   OH239880   0.682   2.669   1.428  0.1962 -0.6215  0.4083
 6130TIP3    H139881   0.685   2.756   1.388 -1.1297 -0.2433  1.0657
 6130TIP3    H239882   0.609   2.625   1.384  0.5811 -1.2586  0.3861
 6131TIP3   OH239883   0.338   3.636  16.987 -0.4586 -0.0382  0.2358
 6131TIP3    H139884   0.394   3.570  17.027 -1.6919  0.1356  2.4107
 6131TIP3    H239885   0.387   3.718  16.996  0.7122 -0.4716 -1.7235
 6132TIP3   OH239886   1.031   1.841   4.277  0.2596  0.0799 -0.0806
 6132TIP3    H139887   0.975   1.763   4.274  1.2499 -0.7436  1.2471
 6132TIP3    H239888   0.999   1.897   4.207 -0.8700 -1.2724 -0.6967
 6133TIP3   OH239889   3.711   5.160  12.240 -0.0928 -0.1645  0.3159
 6133TIP3    H139890   3.714   5.122  12.328  0.7878  0.0495  0.3887
 6133TIP3    H239891   3.658   5.240  12.251 -0.9278 -0.7158  0.4084
 6134TIP3   OH239892   1.958   4.934   1.528 -0.5704  0.6705 -0.6011
 6134TIP3    H139893   1.896   5.001   1.558 -1.6941  0.1008 -1.5375
 6134TIP3    H239894   2.037   4.983   1.505 -0.3538  1.3290  1.3785
 6135TIP3   OH239895   1.116   2.124  16.427  0.9310 -0.1660  0.5503
 6135TIP3    H139896   1.084   2.079  16.505  0.5636  0.6618  0.8847
 6135TIP3    H239897   1.197   2.078  16.405  1.7221  0.3796  2.1602
 6136TIP3   OH239898   2.841   2.153  15.787 -0.5830  0.0275 -0.4139
 6136TIP3    H139899   2.898   2.194  15.721 -1.6740  0.3101 -1.1987
 6136TIP3    H239900   2.791   2.088  15.739 -0.4899 -0.6568  0.3967
 6137TIP3   OH239901   3.913   4.097  16.050 -0.0227  0.3311 -0.6649
 6137TIP3    H139902   3.941   4.180  16.010  1.0486 -0.1950 -1.0529
 6137TIP3    H239903   3.857   4.056  15.984  1.2564 -0.2572 -1.4326
 6138TIP3   OH239904   6.041   0.245   1.336  0.3606 -0.2711  0.0099
 6138TIP3    H139905   6.008   0.156   1.352 -0.1535 -0.0511  0.2311
 6138TIP3    H239906   6.037   0.287   1.422  0.0085  0.1512 -0.2058
 6139TIP3   OH239907   6.440   3.585   3.649  0.3136 -1.0540  0.1795
 6139TIP3    H139908   6.345   3.574   3.649  0.4241 -2.0782  0.2476
 6139TIP3    H239909   6.455   3.660   3.591 -0.5713 -0.4224  0.7422
 6140TIP3   OH239910   0.903   3.985  15.917 -0.4163 -0.3247 -0.1544
 6140TIP3    H139911   0.946   4.069  15.901 -0.2391 -0.5830 -1.0974
 6140TIP3    H239912   0.896   3.979  16.012  0.3260  0.3786 -0.0462
 6141TIP3   OH239913   3.929   4.971   1.489 -0.2181 -0.4979 -0.8495
 6141TIP3    H139914   3.939   4.888   1.442  0.2394 -0.2493 -1.2017
 6141TIP3    H239915   3.960   4.953   1.578 -0.9355 -0.9286 -0.6764
 6142TIP3   OH239916   4.655   1.443   6.218  0.0771 -0.0390  0.1357
 6142TIP3    H139917   4.743   1.404   6.221  0.5740  0.9964 -0.4992
 6142TIP3    H239918   4.603   1.388   6.277  1.0363 -0.9402  0.1782
 6143TIP3   OH239919   1.291   5.496   2.605 -0.1282  0.1183 -0.3671
 6143TIP3    H139920   1.257   5.409   2.626  1.1051 -0.2079  0.3779
 6143TIP3    H239921   1.275   5.506   2.511  0.7986 -1.4228 -0.7140
 6144TIP3   OH239922   5.086   0.701   1.617 -0.3501  0.3105 -0.3826
 6144TIP3    H139923   5.141   0.626   1.641 -0.4798  0.4074  0.2299
 6144TIP3    H239924   5.146   0.760   1.571  0.2609  0.7891  1.0042
 6145TIP3   OH239925   4.080   6.709  17.315 -0.2474 -0.5625  0.3648
 6145TIP3    H139926   4.003   6.654  17.332  1.5233 -2.6528  2.3997
 6145TIP3    H239927   4.146   6.647  17.284  0.6692  1.1788 -1.3485
 6146TIP3   OH239928   0.965   1.760  14.069  0.6322 -0.6567 -0.1827
 6146TIP3    H139929   0.978   1.829  14.004 -2.1487  1.9530  1.7729
 6146TIP3    H239930   1.054   1.731  14.090  1.8171  1.0117 -2.4181
 6147TIP3   OH239931   1.756   1.737  14.937 -0.2653 -0.3264 -0.0006
 6147TIP3    H139932   1.822   1.702  14.877 -0.3006  0.3867 -0.4673
 6147TIP3    H239933   1.772   1.691  15.019 -1.1982 -2.4689 -0.9383
 6148TIP3   OH239934   5.878   5.427  12.065 -0.0651  0.4057 -0.1946
 6148TIP3    H139935   5.857   5.348  12.016 -0.2411  0.9055 -0.9319
 6148TIP3    H239936   5.828   5.496  12.023 -0.4612  0.8009  0.8769
 6149TIP3   OH239937   3.856   4.720   1.418 -0.3947  0.3738 -0.4605
 6149TIP3    H139938   3.820   4.708   1.506  0.6982  1.7024  0.2013
 6149TIP3    H239939   3.931   4.661   1.415  0.3152  1.2274 -0.0226
 6150TIP3   OH239940   1.284   4.500   2.420  0.3080 -0.2017 -0.5131
 6150TIP3    H139941   1.274   4.575   2.479  0.6689 -0.1611 -0.4976
 6150TIP3    H239942   1.270   4.424   2.476 -2.0369 -0.1405 -0.9145
 6151TIP3   OH239943   1.022   4.626   4.230  0.4522  0.0023 -0.7182
 6151TIP3    H139944   1.065   4.541   4.230 -0.9642 -0.8447  1.8150
 6151TIP3    H239945   0.929   4.606   4.239  0.0865  1.7943 -0.0469
 6152TIP3   OH239946   1.121   5.004  12.039 -0.2658 -0.0577  0.4826
 6152TIP3    H139947   1.185   4.959  12.094 -0.5510 -0.5529  0.4134
 6152TIP3    H239948   1.147   5.096  12.043  0.0828 -0.1711  0.9463
 6153TIP3   OH239949   0.741   2.583   1.130 -0.4108  0.4881  0.3117
 6153TIP3    H139950   0.715   2.580   1.038  0.1295  0.0193  0.1678
 6153TIP3    H239951   0.658   2.589   1.178 -0.8101 -0.9771 -0.1375
 6154TIP3   OH239952   5.805   0.466   4.972  0.2833  0.1343  0.5177
 6154TIP3    H139953   5.822   0.411   5.048  0.7642  0.7828  0.8870
 6154TIP3    H239954   5.745   0.533   5.004  1.0980  0.8701  0.5389
 6155TIP3   OH239955   1.865   1.277   2.207 -0.3555 -0.1684  0.0799
 6155TIP3    H139956   1.805   1.298   2.136  0.5300  0.9533 -0.3574
 6155TIP3    H239957   1.879   1.360   2.253  1.8952 -0.0554 -0.6569
 6156TIP3   OH239958   0.721   5.464   0.814  0.1901  0.4686 -0.1234
 6156TIP3    H139959   0.709   5.449   0.908  0.6114  0.4730 -0.0666
 6156TIP3    H239960   0.812   5.492   0.806  0.1009  0.6526 -0.5116
 6157TIP3   OH239961   4.801   1.540  15.956 -0.1553  0.3323  0.0736
 6157TIP3    H139962   4.767   1.506  15.874  0.9591  0.8736 -0.6270
 6157TIP3    H239963   4.811   1.634  15.942  2.2833  0.1261 -0.0297
 6158TIP3   OH239964   2.801   2.798  14.777  0.4604  0.1069 -0.8790
 6158TIP3    H139965   2.867   2.833  14.836 -0.5794 -0.3314  0.6075
 6158TIP3    H239966   2.727   2.858  14.784  0.3187  0.0508 -1.7502
 6159TIP3   OH239967   5.480   6.024  11.480 -0.7124  0.1232 -0.0837
 6159TIP3    H139968   5.554   5.990  11.429  0.0849  0.9013  0.5272
 6159TIP3    H239969   5.432   5.946  11.506 -0.3550 -0.3710 -0.8547
 6160TIP3   OH239970   5.649   3.934  14.121  0.4610  0.0412 -0.3089
 6160TIP3    H139971   5.722   3.982  14.082 -0.6129  2.0687  0.0605
 6160TIP3    H239972   5.650   3.850  14.076  1.8920  0.6914 -1.6082
 6161TIP3   OH239973   4.321   6.616  17.164  0.2888  0.2845 -0.0569
 6161TIP3    H139974   4.321   6.597  17.070 -0.8683  0.5007 -0.1170
 6161TIP3    H239975   4.398   6.670  17.177  1.4987 -1.2240 -0.5558
 6162TIP3   OH239976   5.783   2.316  14.877 -0.6324 -0.1896 -0.3667
 6162TIP3    H139977   5.698   2.273  14.893 -0.4606 -0.3837  0.0541
 6162TIP3    H239978   5.760   2.403  14.845 -1.0152  0.2891  1.1189
 6163TIP3   OH239979   5.785   5.126   4.808 -0.2421 -0.6653 -1.0988
 6163TIP3    H139980   5.719   5.192   4.829 -1.1357 -1.4572 -1.3427
 6163TIP3    H239981   5.840   5.168   4.742  0.5727  0.6336  0.3335
 6164TIP3   OH239982   1.160   0.233   0.034  0.1541  0.0768  0.4612
 6164TIP3    H139983   1.080   0.282   0.057  1.1318  1.5117  0.9741
 6164TIP3    H239984   1.171   0.170   0.105 -0.6458 -0.2868  0.2681
 6165TIP3   OH239985   6.265   6.680  16.923 -0.6540 -0.2892 -0.1545
 6165TIP3    H139986   6.276   6.663  16.829 -0.6344  0.8236 -0.3693
 6165TIP3    H239987   6.349   6.718  16.950 -1.1916  0.8656 -0.0458
 6166TIP3   OH239988   4.747   6.030  12.622 -0.2484 -0.2169 -0.4133
 6166TIP3    H139989   4.704   6.086  12.557 -0.6099  0.7896  0.6407
 6166TIP3    H239990   4.684   6.026  12.695  1.0448  0.5562  0.7906
 6167TIP3   OH239991   3.604   0.813   2.402  0.6722 -0.1353  0.0728
 6167TIP3    H139992   3.593   0.749   2.472  0.9660 -1.6092 -1.1871
 6167TIP3    H239993   3.695   0.804   2.374  0.9596  1.4092  0.3673
 6168TIP3   OH239994   0.155   0.504   0.152  0.4677  0.2364 -0.2599
 6168TIP3    H139995   0.240   0.534   0.121  0.4257  0.8495  0.1997
 6168TIP3    H239996   0.093   0.572   0.123  0.5973  1.5393  2.2219
 6169TIP3   OH239997   3.334   4.114   0.628  0.2840 -0.2653 -0.4416
 6169TIP3    H139998   3.250   4.108   0.583 -0.1436  0.5302  0.2181
 6169TIP3    H239999   3.394   4.151   0.563  0.3027 -1.4307 -1.1152
 6170TIP3   OH240000   5.991   2.477  16.060  0.1969 -0.1653 -0.2647
 6170TIP3    H140001   5.985   2.566  16.094  2.5057  0.3272 -0.9968
 6170TIP3    H240002   5.960   2.422  16.132 -1.7522  1.1911  0.0358
 6171TIP3   OH240003   1.490   2.771   1.256 -0.2906 -0.3310 -0.9418
 6171TIP3    H140004   1.556   2.701   1.253 -0.8223 -1.1956  2.4519
 6171TIP3    H240005   1.411   2.728   1.289 -0.6294  1.7949  1.3322
 6172TIP3   OH240006   5.087   0.021  16.873  0.1397  0.2601  0.0734
 6172TIP3    H140007   5.140  -0.005  16.798  1.0494  1.1512  0.3774
 6172TIP3    H240008   5.010   0.063  16.836  0.1796 -0.0462 -0.3621
 6173TIP3   OH240009   5.765   6.013  15.723  0.4484 -0.0048 -0.2992
 6173TIP3    H140010   5.670   6.008  15.734  0.1511  0.6096 -2.2191
 6173TIP3    H240011   5.792   5.923  15.706  0.0271 -0.0272 -0.8915
 6174TIP3   OH240012   5.550   6.091  15.195 -0.5242 -0.0850  0.4296
 6174TIP3    H140013   5.551   6.061  15.104 -0.2430 -0.0810  0.4301
 6174TIP3    H240014   5.530   6.185  15.188 -1.2158 -0.2285  0.4179
 6175TIP3   OH240015   6.150   1.405  14.605 -0.1025  0.3067  0.3664
 6175TIP3    H140016   6.186   1.441  14.524 -1.3739  0.1345 -0.2918
 6175TIP3    H240017   6.135   1.312  14.585 -0.0668  0.1763  0.9311
 6176TIP3   OH240018   2.210   4.887  16.720 -0.5404  0.2553  0.6413
 6176TIP3    H140019   2.145   4.846  16.663 -0.3552  1.0075 -0.1421
 6176TIP3    H240020   2.238   4.817  16.779  0.6875 -1.1561 -1.4517
 6177TIP3   OH240021   2.687   4.066   5.960 -0.3353 -0.5298 -0.2636
 6177TIP3    H140022   2.596   4.043   5.942 -0.4947  0.1758 -0.3745
 6177TIP3    H240023   2.730   4.065   5.874 -0.9533  2.2054 -0.6914
 6178TIP3   OH240024   3.314   3.846  16.253 -0.2150 -0.1253  0.4010
 6178TIP3    H140025   3.324   3.885  16.166  0.8665  0.9945  1.0007
 6178TIP3    H240026   3.221   3.827  16.260 -0.2077 -0.9966 -1.3076
 6179TIP3   OH240027   3.058   0.983   0.487 -0.0005 -0.0091  0.5738
 6179TIP3    H140028   3.103   1.062   0.519 -0.6460  0.4392  0.3815
 6179TIP3    H240029   2.965   1.005   0.489 -0.2990 -1.2139  1.7536
 6180TIP3   OH240030   2.088   5.762   5.122  0.2506  0.0275 -0.8230
 6180TIP3    H140031   2.142   5.699   5.075 -2.3744 -0.7113 -3.1542
 6180TIP3    H240032   2.071   5.720   5.206 -0.4247 -1.9299 -1.8490
 6181TIP3   OH240033   1.624   4.389   3.107 -0.4116 -0.3229  0.2532
 6181TIP3    H140034   1.594   4.450   3.040 -2.3832 -1.3074  0.1580
 6181TIP3    H240035   1.704   4.351   3.071 -0.5324  0.3564 -0.7920
 6182TIP3   OH240036   2.629   6.179  12.949 -0.0718 -0.0652 -0.6058
 6182TIP3    H140037   2.581   6.118  13.005  1.5514 -0.8205  0.0387
 6182TIP3    H240038   2.716   6.139  12.940  0.4736  1.2794 -1.6501
 6183TIP3   OH240039   1.665   5.126  17.154 -0.4035 -0.2341 -0.1315
 6183TIP3    H140040   1.596   5.063  17.174 -0.0335 -1.2632 -1.9265
 6183TIP3    H240041   1.621   5.211  17.153 -1.5497 -0.8231 -0.7694
 6184TIP3   OH240042   0.723   0.635   5.337 -0.3858  0.0665  0.0413
 6184TIP3    H140043   0.681   0.715   5.368 -1.7514 -0.8569  0.7047
 6184TIP3    H240044   0.745   0.653   5.246 -1.1066  1.0373  0.0378
 6185TIP3   OH240045   5.464   6.031   1.576  0.2093 -0.3990  0.2403
 6185TIP3    H140046   5.444   6.005   1.486 -1.8587  0.8538  0.2735
 6185TIP3    H240047   5.464   6.126   1.574 -3.2635 -0.1788  2.1038
 6186TIP3   OH240048   0.531   0.900   3.477 -0.5085  0.3364 -0.4575
 6186TIP3    H140049   0.602   0.938   3.528 -1.4599  3.4501 -1.2649
 6186TIP3    H240050   0.500   0.827   3.531  1.3101  0.7716  1.3030
 6187TIP3   OH240051   2.157   3.134  16.576  0.0432 -0.3276 -0.3090
 6187TIP3    H140052   2.172   3.109  16.668 -1.0181  1.5346  0.4203
 6187TIP3    H240053   2.242   3.166  16.546 -0.0311  0.8509  0.6535
 6188TIP3   OH240054   2.217   4.335   2.571 -0.2101 -0.9144 -0.3514
 6188TIP3    H140055   2.230   4.390   2.493  0.3049  0.0648  0.3987
 6188TIP3    H240056   2.123   4.321   2.575 -0.2997 -0.5059 -0.8493
 6189TIP3   OH240057   0.103   5.457   3.544 -0.0881 -0.1326  0.0744
 6189TIP3    H140058   0.163   5.467   3.618 -1.3790  0.5421  1.0766
 6189TIP3    H240059   0.051   5.537   3.545 -1.7113 -1.1409 -0.0962
 6190TIP3   OH240060   6.255   3.546  15.153 -0.9728 -0.5611 -0.3627
 6190TIP3    H140061   6.253   3.461  15.111  1.6985 -2.1970  2.3518
 6190TIP3    H240062   6.345   3.577  15.140 -1.7254  1.6012 -0.7871
 6191TIP3   OH240063   6.450   3.850  12.587 -0.1631  0.5868  0.5452
 6191TIP3    H140064   6.392   3.808  12.523  0.0194  0.4462  0.4683
 6191TIP3    H240065   6.461   3.785  12.656 -1.3241  1.1890  1.3233
 6192TIP3   OH240066   2.113   0.872   2.194 -0.3476 -0.5175 -0.4840
 6192TIP3    H140067   2.134   0.912   2.278  1.6182 -1.9272 -0.2476
 6192TIP3    H240068   2.065   0.940   2.147 -1.1593  0.4331  1.6013
 6193TIP3   OH240069   4.612   0.662  13.279 -0.1575 -0.0130  0.0036
 6193TIP3    H140070   4.589   0.731  13.341  0.2339  0.0676  0.0623
 6193TIP3    H240071   4.586   0.696  13.193 -2.2549 -0.7954  0.2750
 6194TIP3   OH240072   3.750   3.800  12.208 -0.3501 -0.2009 -0.0905
 6194TIP3    H140073   3.822   3.760  12.160  0.1335 -0.3114  0.7230
 6194TIP3    H240074   3.776   3.797  12.300 -1.2462  0.0523  0.1874
 6195TIP3   OH240075   0.892   3.118   2.092  0.3064 -0.8562 -0.3646
 6195TIP3    H140076   0.862   3.175   2.021  0.7725  0.3148  0.3579
 6195TIP3    H240077   0.876   3.029   2.059 -0.5095 -0.3243 -1.4802
 6196TIP3   OH240078   4.027   4.341  12.541  0.7952 -0.4188 -0.2562
 6196TIP3    H140079   4.003   4.272  12.479 -1.0250  0.8661 -1.0701
 6196TIP3    H240080   3.945   4.386  12.559  1.6833  0.6330  1.4006
 6197TIP3   OH240081   3.341   3.734   2.374 -0.0976 -0.7111 -0.1488
 6197TIP3    H140082   3.309   3.806   2.319  0.0926 -0.9506 -0.5767
 6197TIP3    H240083   3.428   3.715   2.339 -0.4287 -1.6196 -0.4891
 6198TIP3   OH240084   6.481   3.484  14.686  0.1453  0.2787 -0.7905
 6198TIP3    H140085   6.399   3.437  14.698  0.6089 -0.4493 -0.4071
 6198TIP3    H240086   6.473   3.526  14.600 -1.5374  2.1146  0.1809
 6199TIP3   OH240087   6.263   6.578  13.633 -0.2044  0.2130 -0.2246
 6199TIP3    H140088   6.221   6.505  13.588 -0.1637 -0.6920  1.1352
 6199TIP3    H240089   6.195   6.611  13.693  0.0928  0.6490 -0.1229
 6200TIP3   OH240090   5.657   3.560   3.051 -0.1616 -0.3531  0.4387
 6200TIP3    H140091   5.749   3.584   3.038 -0.1918  2.3390  3.8482
 6200TIP3    H240092   5.610   3.613   2.986  0.5786 -1.5152 -1.1214
 6201TIP3   OH240093   4.713   6.743   5.784  0.5096  0.0471  0.0881
 6201TIP3    H140094   4.641   6.690   5.818 -0.8101  1.2561 -0.7240
 6201TIP3    H240095   4.707   6.826   5.832  0.9978  0.3783 -0.4042
 6202TIP3   OH240096   1.771   6.442   3.788  0.0021  0.2326 -0.5378
 6202TIP3    H140097   1.784   6.524   3.742 -1.5313 -0.1294 -1.6986
 6202TIP3    H240098   1.678   6.423   3.778  0.1309 -1.1695  0.5356
 6203TIP3   OH240099   6.206   4.080   4.819 -0.4403  0.8534  0.0187
 6203TIP3    H140100   6.244   4.166   4.808  0.1263  0.5337 -0.5676
 6203TIP3    H240101   6.268   4.032   4.874  0.6081 -0.0113 -1.8063
 6204TIP3   OH240102   3.699   4.003   4.916  0.3994  0.2222  0.4960
 6204TIP3    H140103   3.774   4.063   4.913 -0.7085  1.8023  2.0280
 6204TIP3    H240104   3.727   3.933   4.976  0.3304  1.3699  1.9386
 6205TIP3   OH240105   4.162   6.679  13.031  0.3124  0.3382 -0.6930
 6205TIP3    H140106   4.088   6.739  13.026 -0.2946 -0.4613 -1.6918
 6205TIP3    H240107   4.236   6.728  12.996  0.8900  1.9894  2.4767
 6206TIP3   OH240108   5.371   3.834   2.543 -0.5701  0.1731  0.3344
 6206TIP3    H140109   5.397   3.806   2.631  0.5607 -0.4502 -0.1830
 6206TIP3    H240110   5.283   3.797   2.532 -1.1779  1.1700  1.5996
 6207TIP3   OH240111   5.204   3.284  16.309 -0.0062 -0.5683 -0.3026
 6207TIP3    H140112   5.213   3.238  16.393 -1.0505  1.6420  1.1275
 6207TIP3    H240113   5.265   3.358  16.316 -1.6339  0.8624 -0.5446
 6208TIP3   OH240114   6.643   1.001   0.956  0.2403  0.1309 -0.0512
 6208TIP3    H140115   6.669   1.014   0.865  0.6633  2.8622  0.3655
 6208TIP3    H240116   6.656   0.908   0.972  3.1945  0.0902 -1.9061
 6209TIP3   OH240117   6.217   5.322  16.919  0.0323 -0.1840 -0.3278
 6209TIP3    H140118   6.282   5.278  16.974  1.4573  0.5327 -1.3717
 6209TIP3    H240119   6.203   5.263  16.845  0.2965  0.1395 -0.6375
 6210TIP3   OH240120   5.881   1.216  14.727  0.0370 -0.3124  0.7009
 6210TIP3    H140121   5.942   1.238  14.797 -0.6043  0.1840  1.1255
 6210TIP3    H240122   5.875   1.121  14.728  2.2680 -0.5227 -0.6388
 6211TIP3   OH240123   0.434   6.323   2.823 -0.6270  0.0730 -0.1758
 6211TIP3    H140124   0.514   6.308   2.773 -0.4672  0.1503  0.0540
 6211TIP3    H240125   0.425   6.419   2.826  0.2566  0.1392  1.3254
 6212TIP3   OH240126   6.577   3.718  13.284  0.8275  0.4248 -0.5221
 6212TIP3    H140127   6.489   3.755  13.287  0.9638  0.7154  1.7174
 6212TIP3    H240128   6.628   3.775  13.342  2.3209 -0.1835 -1.1933
 6213TIP3   OH240129   0.503   2.385  13.200 -0.2176 -0.3052  0.0312
 6213TIP3    H140130   0.428   2.339  13.237  0.5273 -1.7221 -0.1334
 6213TIP3    H240131   0.579   2.336  13.232  0.6502  1.1214  0.2370
 6214TIP3   OH240132   6.338   2.883   2.010  0.0573  0.1990 -0.0621
 6214TIP3    H140133   6.365   2.935   2.086  0.9640 -0.9174  0.4104
 6214TIP3    H240134   6.419   2.870   1.961  0.0938 -1.6669  0.4122
 6215TIP3   OH240135   4.371   2.722   4.112  0.2194 -0.1062 -0.4295
 6215TIP3    H140136   4.337   2.789   4.052 -3.7743 -0.1573  1.4471
 6215TIP3    H240137   4.352   2.639   4.068 -0.2057 -0.0816 -0.3028
 6216TIP3   OH240138   0.438   4.603  17.210 -0.0029  0.2170 -0.3244
 6216TIP3    H140139   0.464   4.540  17.142 -0.2837 -1.1660  0.7851
 6216TIP3    H240140   0.349   4.628  17.187 -0.2355 -0.5354 -0.2906
 6217TIP3   OH240141   0.048   1.927   2.142 -0.5463  0.7035 -0.0842
 6217TIP3    H140142   0.049   2.005   2.197 -0.5142  1.2126 -0.7869
 6217TIP3    H240143   0.083   1.858   2.198 -2.2247  0.7744  1.1373
 6218TIP3   OH240144   3.520   4.464  12.627  0.6761 -0.3835  0.2777
 6218TIP3    H140145   3.464   4.404  12.676  1.0592 -0.3685  0.7405
 6218TIP3    H240146   3.475   4.548  12.631 -0.1132 -0.7215 -0.7877
 6219TIP3   OH240147   2.203   5.548  14.421 -0.3637 -0.0641 -0.4017
 6219TIP3    H140148   2.186   5.454  14.416 -0.2860 -0.1108  0.1353
 6219TIP3    H240149   2.285   5.555  14.470  0.5033  0.2133 -1.8178
 6220TIP3   OH240150   3.644   3.663  14.017 -0.0804 -0.4252 -0.0080
 6220TIP3    H140151   3.575   3.645  14.080  0.2372 -2.9325 -0.2791
 6220TIP3    H240152   3.623   3.608  13.941  0.9686  0.5251 -1.0461
 6221TIP3   OH240153   5.859   2.587   1.433  0.8033 -0.4658  0.4403
 6221TIP3    H140154   5.869   2.584   1.528  1.4717  0.6553  0.4185
 6221TIP3    H240155   5.821   2.673   1.415  0.2663 -0.8426 -0.2791
 6222TIP3   OH240156   2.527   4.099  17.169 -0.8294 -0.6699  0.5707
 6222TIP3    H140157   2.473   4.154  17.226  0.5273  0.3787  0.8777
 6222TIP3    H240158   2.583   4.160  17.122  1.0039 -1.7653  1.2255
 6223TIP3   OH240159   2.347   1.432   2.372 -0.1064  0.7840  0.3987
 6223TIP3    H140160   2.397   1.442   2.453 -1.1336 -1.0140  1.3104
 6223TIP3    H240161   2.256   1.432   2.400 -0.4690 -0.2321 -0.7141
 6224TIP3   OH240162   1.251   4.155  11.184 -0.3405 -0.1019  0.3538
 6224TIP3    H140163   1.187   4.142  11.253  0.7677 -0.3293  1.3710
 6224TIP3    H240164   1.259   4.250  11.175 -0.9151 -0.0720  0.1119
 6225TIP3   OH240165   2.840   0.011   5.239  0.2963 -0.0853  0.1675
 6225TIP3    H140166   2.767  -0.023   5.291  0.4574 -0.3385  0.2330
 6225TIP3    H240167   2.854   0.099   5.272 -0.2759  0.1329 -0.1568
 6226TIP3   OH240168   6.376   0.775   2.880  0.4679  0.5603 -0.3053
 6226TIP3    H140169   6.421   0.742   2.802 -0.9120 -0.0808 -0.8631
 6226TIP3    H240170   6.361   0.698   2.934  0.0516  0.7672 -0.1229
 6227TIP3   OH240171   1.751   1.959   0.277 -0.5930 -0.2411  0.0247
 6227TIP3    H140172   1.707   1.884   0.236 -1.3033 -0.6420  1.4777
 6227TIP3    H240173   1.690   1.989   0.344  0.9181 -0.1709  1.4275
 6228TIP3   OH240174   0.100   5.305   4.764 -0.2031 -0.3997 -0.8519
 6228TIP3    H140175   0.134   5.395   4.760  0.5062 -0.5758  0.5058
 6228TIP3    H240176   0.008   5.316   4.789 -0.2386 -0.0410 -1.1246
 6229TIP3   OH240177   1.437   3.126  16.206  0.1728 -0.4186 -0.2857
 6229TIP3    H140178   1.354   3.146  16.162 -0.1436 -0.4327  0.2945
 6229TIP3    H240179   1.472   3.211  16.230  0.2188 -0.4226 -0.3398
 6230TIP3   OH240180   6.192   2.098  12.968  1.5528  0.8356 -0.4822
 6230TIP3    H140181   6.179   2.006  12.945  1.6361  0.8458 -0.5682
 6230TIP3    H240182   6.284   2.105  12.992  1.0080  0.3384  2.0546
 6231TIP3   OH240183   5.182   3.048   4.889  0.3815  0.1068  0.0488
 6231TIP3    H140184   5.271   3.028   4.860  0.5595 -0.4039  0.9273
 6231TIP3    H240185   5.177   3.144   4.889  1.1836  0.1546  0.7532
 6232TIP3   OH240186   5.370   4.841   6.623  0.3609 -0.2624 -0.1518
 6232TIP3    H140187   5.312   4.915   6.607  0.5154  0.7112  3.0000
 6232TIP3    H240188   5.330   4.768   6.575 -0.9565  1.3755 -1.6470
 6233TIP3   OH240189   4.795   6.145  11.370 -0.5311 -0.1133 -0.0239
 6233TIP3    H140190   4.864   6.092  11.330 -1.3330  0.3672 -2.2081
 6233TIP3    H240191   4.720   6.086  11.375 -0.4714 -0.1344  0.7121
 6234TIP3   OH240192   4.391   0.558  15.655  0.4589  0.6521 -0.9010
 6234TIP3    H140193   4.444   0.587  15.729 -0.4048 -0.2256  0.0766
 6234TIP3    H240194   4.453   0.510  15.600  0.2293 -3.0128  1.6918
 6235TIP3   OH240195   5.764   2.920   0.642 -0.5525 -0.0429 -0.2304
 6235TIP3    H140196   5.746   2.827   0.658 -2.9448  0.0308 -1.9281
 6235TIP3    H240197   5.707   2.966   0.703  0.1215  0.3468  0.1237
 6236TIP3   OH240198   0.699   2.172  12.281 -0.0047 -0.0902  0.4245
 6236TIP3    H140199   0.781   2.220  12.271 -2.2147  3.8205 -1.3017
 6236TIP3    H240200   0.660   2.209  12.360 -1.0264 -0.2094 -0.0087
 6237TIP3   OH240201   3.837   3.572   6.275 -0.2292 -0.2143 -0.1607
 6237TIP3    H140202   3.857   3.645   6.333  0.2958 -0.7165  0.3125
 6237TIP3    H240203   3.905   3.573   6.209 -0.9457  0.4819 -0.9008
 6238TIP3   OH240204   4.586   5.623   1.949 -0.0513 -0.1186  0.2038
 6238TIP3    H140205   4.544   5.548   1.907  1.8369 -1.1936  0.1086
 6238TIP3    H240206   4.541   5.699   1.913 -0.2183 -1.1084 -1.8268
 6239TIP3   OH240207   0.797   6.135   1.948 -0.1635  0.0440 -0.1941
 6239TIP3    H140208   0.817   6.098   2.033 -1.6089  1.1181  0.6687
 6239TIP3    H240209   0.728   6.078   1.913  2.0800 -1.8591 -1.8076
 6240TIP3   OH240210   1.614   5.806  12.423 -0.1082 -0.0866 -0.5870
 6240TIP3    H140211   1.649   5.808  12.334  1.9559 -0.5587  0.1505
 6240TIP3    H240212   1.520   5.817  12.412 -0.1370 -1.7747 -2.9549
 6241TIP3   OH240213   1.945   4.174  14.704 -0.3531  0.9914 -0.1125
 6241TIP3    H140214   1.880   4.236  14.671 -2.6616 -0.1092  2.0617
 6241TIP3    H240215   1.906   4.138  14.784  1.8422 -1.6241 -0.0633
 6242TIP3   OH240216   0.449   2.809   1.999 -0.1927  0.0484  0.6515
 6242TIP3    H140217   0.481   2.897   1.977  0.1807  0.3628  2.2803
 6242TIP3    H240218   0.354   2.818   1.999 -0.1484  0.6691  1.5343
 6243TIP3   OH240219   4.898   4.353   4.653  0.0474  0.2252 -0.6029
 6243TIP3    H140220   4.819   4.319   4.611  0.7847  0.2653 -2.0686
 6243TIP3    H240221   4.967   4.345   4.587  0.5549  3.3324 -0.6236
 6244TIP3   OH240222   0.204   0.538   0.473 -0.0804 -0.1440 -0.0696
 6244TIP3    H140223   0.132   0.601   0.473 -0.0057 -0.0432  0.8698
 6244TIP3    H240224   0.164   0.456   0.443  0.0263  0.5296 -2.2787
 6245TIP3   OH240225   2.485   0.580   1.061 -1.0480 -0.5823 -0.4935
 6245TIP3    H140226   2.421   0.613   0.998  0.4553  0.0503 -1.7984
 6245TIP3    H240227   2.560   0.555   1.006  1.3777  2.3974  1.1179
 6246TIP3   OH240228   1.673   0.594   0.129  0.0400 -0.3426 -0.1599
 6246TIP3    H140229   1.618   0.588   0.051 -0.3817 -2.8210  0.2184
 6246TIP3    H240230   1.740   0.658   0.107 -1.8260  1.2844 -1.3822
 6247TIP3   OH240231   2.652   4.230   3.439  0.2912 -0.3028 -0.1168
 6247TIP3    H140232   2.599   4.266   3.368  0.8437  0.4277 -0.1612
 6247TIP3    H240233   2.633   4.136   3.437  1.0267 -0.4517 -1.8582
 6248TIP3   OH240234   1.432   4.045   5.754 -0.1468 -0.1495 -0.2053
 6248TIP3    H140235   1.438   3.957   5.791  0.4325  0.0522  0.2032
 6248TIP3    H240236   1.390   4.097   5.822  0.9177  0.2215  0.2016
 6249TIP3   OH240237   3.104   5.711   4.424 -0.7482 -0.1232  0.1626
 6249TIP3    H140238   3.155   5.655   4.366 -0.0857  0.3811  0.2467
 6249TIP3    H240239   3.153   5.711   4.506 -0.9618  0.2575  0.2923
 6250TIP3   OH240240   3.830   6.622   2.152 -0.3206  0.1378  0.5805
 6250TIP3    H140241   3.913   6.587   2.182 -0.0896  0.0957 -0.1041
 6250TIP3    H240242   3.853   6.693   2.092 -0.7795  0.9229  1.3088
 6251TIP3   OH240243   5.668   2.685   0.722  0.2589 -0.7205 -0.7149
 6251TIP3    H140244   5.720   2.641   0.655  0.9858 -0.6878 -0.1896
 6251TIP3    H240245   5.620   2.614   0.766 -0.9904 -0.6383 -1.8988
 6252TIP3   OH240246   2.503   0.275  12.336 -0.7296 -0.0859  0.0445
 6252TIP3    H140247   2.449   0.350  12.311  0.3138 -0.1431 -2.6653
 6252TIP3    H240248   2.574   0.313  12.389 -1.9186  0.3345  1.3998
 6253TIP3   OH240249   5.452   1.278   6.587 -0.2631 -0.5090 -0.2254
 6253TIP3    H140250   5.393   1.322   6.526 -1.8105 -1.0295  0.8171
 6253TIP3    H240251   5.521   1.240   6.532  0.1210  1.6374 -1.3071
 6254TIP3   OH240252   4.661   5.167  15.162  0.3674 -0.5000 -0.5609
 6254TIP3    H140253   4.566   5.178  15.168  0.4354 -0.6031  1.2280
 6254TIP3    H240254   4.686   5.217  15.084 -0.8773  1.5867  0.2872
 6255TIP3   OH240255   5.614   1.208  12.781  0.0206 -0.0929  0.0546
 6255TIP3    H140256   5.652   1.125  12.753  2.1909  1.1732 -1.0034
 6255TIP3    H240257   5.568   1.241  12.703  0.7183  0.5194 -0.1108
 6256TIP3   OH240258   4.330   6.765   1.456 -0.0216  0.2955  0.2994
 6256TIP3    H140259   4.328   6.729   1.544 -0.7221  1.9520  1.0001
 6256TIP3    H240260   4.299   6.694   1.400 -0.8739 -0.3458  1.5536
 6257TIP3   OH240261   0.898   5.867  12.096 -0.0471  0.1237  0.0252
 6257TIP3    H140262   0.968   5.805  12.075 -0.9378 -0.4882 -1.2324
 6257TIP3    H240263   0.877   5.909  12.013 -1.8549 -0.4267  0.1763
 6258TIP3   OH240264   6.025   5.134  11.358 -0.1923 -0.0490 -0.0974
 6258TIP3    H140265   6.097   5.071  11.346  2.1337  2.2625  0.7169
 6258TIP3    H240266   5.989   5.114  11.444 -1.1454 -1.7740 -0.8638
 6259TIP3   OH240267   5.772   2.351   0.991  0.4145  0.4038 -0.0404
 6259TIP3    H140268   5.747   2.426   0.938 -0.8754 -0.0695 -0.1277
 6259TIP3    H240269   5.817   2.389   1.066  0.7182  1.1857 -0.6008
 6260TIP3   OH240270   2.521   3.677   0.543 -0.0961  0.0603 -0.6625
 6260TIP3    H140271   2.602   3.629   0.560 -0.2278  0.4264  1.1590
 6260TIP3    H240272   2.519   3.685   0.447  0.4282 -2.6520 -0.9954
 6261TIP3   OH240273   6.167   2.006   0.785  0.2125 -0.3809  0.0942
 6261TIP3    H140274   6.155   2.100   0.802  1.3795 -0.1305 -0.3631
 6261TIP3    H240275   6.085   1.966   0.814 -1.5137  1.0863 -2.3325
 6262TIP3   OH240276   5.031   1.740   4.181  0.1285  0.3081 -0.2421
 6262TIP3    H140277   5.103   1.698   4.135  0.6180  1.5751 -0.6703
 6262TIP3    H240278   4.961   1.675   4.180  1.1118 -0.7713 -0.2027
 6263TIP3   OH240279   5.957   1.211   0.142 -0.2068 -0.7258  0.2137
 6263TIP3    H140280   5.959   1.301   0.109  0.0898 -0.3736  1.1602
 6263TIP3    H240281   5.868   1.200   0.175  0.0231 -0.4620  0.9354
 6264TIP3   OH240282   0.355   3.852   5.981 -0.3286 -0.0968  0.6064
 6264TIP3    H140283   0.406   3.822   6.057  1.3539  0.8522 -0.0971
 6264TIP3    H240284   0.347   3.775   5.926  0.3735 -0.2607  0.7230
 6265TIP3   OH240285   0.879   0.807   5.524  0.2084  0.2710 -0.0838
 6265TIP3    H140286   0.900   0.740   5.458  0.7752  0.1249  0.2409
 6265TIP3    H240287   0.960   0.856   5.534  0.5466 -0.5536  1.4921
 6266TIP3   OH240288   6.623   4.132   5.671  0.1332 -0.2025  0.1550
 6266TIP3    H140289   6.567   4.185   5.729 -0.9304 -0.2776 -0.7641
 6266TIP3    H240290   6.696   4.106   5.726 -0.0240  1.0649  1.0254
 6267TIP3   OH240291   6.536   2.409  11.457 -0.3522  0.6232  0.2367
 6267TIP3    H140292   6.546   2.319  11.427 -0.4206  0.4541  0.7143
 6267TIP3    H240293   6.456   2.408  11.509  0.6281  0.5481  1.7840
 6268TIP3   OH240294   2.081   2.344  13.478  0.3238 -0.1752 -0.4508
 6268TIP3    H140295   2.175   2.354  13.493  0.5752 -1.1537 -1.2199
 6268TIP3    H240296   2.052   2.287  13.550  0.0823  1.0519  0.4414
 6269TIP3   OH240297   5.574   5.446   3.213 -0.0347 -0.4071 -0.3254
 6269TIP3    H140298   5.570   5.506   3.139  0.8379 -1.2613 -1.1011
 6269TIP3    H240299   5.513   5.376   3.191 -0.2910 -0.3159  0.0897
 6270TIP3   OH240300   6.565   6.694  10.881 -0.1142 -0.3840  0.1150
 6270TIP3    H140301   6.647   6.731  10.847 -0.3320  0.9085  0.9738
 6270TIP3    H240302   6.593   6.615  10.927  0.5645 -0.3238 -0.1691
 6271TIP3   OH240303   1.326   2.995  15.762 -0.4885 -0.2389 -0.3140
 6271TIP3    H140304   1.350   2.930  15.828 -1.3582 -0.5197 -0.2549
 6271TIP3    H240305   1.232   3.009  15.775  0.0117  2.6499  1.1048
 6272TIP3   OH240306   1.096   1.180   1.384 -0.3889  0.1547 -0.6962
 6272TIP3    H140307   1.111   1.176   1.479 -1.8680 -1.7240 -0.4893
 6272TIP3    H240308   1.003   1.165   1.374 -0.3452  0.8559 -2.4644
 6273TIP3   OH240309   2.759   4.711  13.382 -0.5545 -0.1454  0.2674
 6273TIP3    H140310   2.771   4.627  13.337 -1.0720  0.1753 -0.4858
 6273TIP3    H240311   2.771   4.690  13.475  2.4167 -0.4935 -0.0836
 6274TIP3   OH240312   5.846   2.156  16.453 -0.2458 -0.6320 -0.3840
 6274TIP3    H140313   5.856   2.069  16.416 -0.3661 -0.9165  0.2562
 6274TIP3    H240314   5.818   2.142  16.543  0.8424  0.0502  0.0760
 6275TIP3   OH240315   5.969   6.782   2.065 -0.6304 -0.6266  0.6796
 6275TIP3    H140316   5.998   6.740   1.984  1.8159  0.1084  1.0721
 6275TIP3    H240317   5.895   6.837   2.039 -0.9585 -1.6571 -0.6997
 6276TIP3   OH240318   1.125   5.072  15.453 -0.0657 -0.1271  0.3174
 6276TIP3    H140319   1.121   5.144  15.516 -0.2831 -0.5718  0.8118
 6276TIP3    H240320   1.095   4.995  15.501 -0.9206 -0.3433 -0.5115
 6277TIP3   OH240321   6.061   5.671   0.453  0.2427 -0.1101 -0.5421
 6277TIP3    H140322   6.106   5.605   0.401 -2.5000 -1.4637 -1.3845
 6277TIP3    H240323   6.028   5.624   0.530 -0.3922  0.6317 -0.3385
 6278TIP3   OH240324   0.916   3.717   1.447 -0.0700 -0.0845  0.6589
 6278TIP3    H140325   1.001   3.676   1.459 -0.0157 -0.9376 -1.9702
 6278TIP3    H240326   0.932   3.810   1.457  0.6790 -0.3724  2.4282
 6279TIP3   OH240327   5.045   5.705  11.179  0.7089  0.2071  0.2463
 6279TIP3    H140328   4.992   5.664  11.111  1.7657  1.5197 -1.4583
 6279TIP3    H240329   5.134   5.708  11.142  1.0455  2.1970  1.0660
 6280TIP3   OH240330   5.563   2.669   2.667 -0.0136 -0.1478  0.1713
 6280TIP3    H140331   5.523   2.624   2.742  1.3196  0.0672  1.0356
 6280TIP3    H240332   5.538   2.615   2.591 -1.1796 -0.5057  0.7753
 6281TIP3   OH240333   5.349   4.817  13.863  0.1414  0.0687  0.1915
 6281TIP3    H140334   5.362   4.768  13.944  0.1273  0.7449  0.6078
 6281TIP3    H240335   5.301   4.895  13.889 -1.4207 -0.5295 -0.7405
 6282TIP3   OH240336   2.656   6.513  16.868 -0.2325  0.5591  0.5702
 6282TIP3    H140337   2.635   6.575  16.798  0.4464  1.0028  0.7507
 6282TIP3    H240338   2.576   6.462  16.879 -0.2870  0.3544 -0.6533
 6283TIP3   OH240339   2.466   5.649  11.246  0.4125 -0.0448  0.6035
 6283TIP3    H140340   2.484   5.709  11.174  0.7402  0.0979  0.8030
 6283TIP3    H240341   2.403   5.696  11.301 -1.4892 -0.9759 -0.6644
 6284TIP3   OH240342   3.433   4.274   0.440  0.1231 -0.4757  0.1751
 6284TIP3    H140343   3.511   4.265   0.385 -1.1664  0.0774 -1.8699
 6284TIP3    H240344   3.384   4.346   0.399 -1.2920 -0.5879  1.6057
 6285TIP3   OH240345   6.645   6.168  13.730 -0.4055  0.5746  0.5977
 6285TIP3    H140346   6.725   6.203  13.691  0.0894 -0.7353  0.4006
 6285TIP3    H240347   6.582   6.165  13.658 -0.2518  0.4639  0.4690
 6286TIP3   OH240348   1.213   1.427  13.700 -0.2073 -0.1847  0.2507
 6286TIP3    H140349   1.224   1.334  13.680 -1.7412 -0.8123  1.9883
 6286TIP3    H240350   1.134   1.453  13.652  0.6834  0.4648 -0.8925
 6287TIP3   OH240351   2.051   0.091  15.487 -0.2045 -0.1677 -0.9141
 6287TIP3    H140352   2.016   0.170  15.528 -1.0663 -1.6752  1.4617
 6287TIP3    H240353   2.144   0.092  15.509 -0.5862 -0.7783  1.0200
 6288TIP3   OH240354   4.410   0.221   4.540 -0.2330  0.8011 -0.4517
 6288TIP3    H140355   4.341   0.287   4.543 -0.4061  0.6405 -0.8431
 6288TIP3    H240356   4.473   0.256   4.477 -1.3042 -0.3310 -2.2486
 6289TIP3   OH240357   2.836   0.780  16.424 -0.3267  0.2932  0.6461
 6289TIP3    H140358   2.758   0.731  16.397 -1.4397  1.1655  2.1056
 6289TIP3    H240359   2.898   0.769  16.352 -1.5886 -0.8864 -0.3089
 6290TIP3   OH240360   4.544   3.613   4.811 -0.1069 -0.0954 -0.3571
 6290TIP3    H140361   4.633   3.577   4.807  0.5638  1.3135  0.9322
 6290TIP3    H240362   4.496   3.550   4.864  0.3153 -0.5012 -0.4490
 6291TIP3   OH240363   4.391   0.640  13.786 -0.5889 -0.4009  0.2102
 6291TIP3    H140364   4.416   0.555  13.749  0.3508  0.0211 -0.1551
 6291TIP3    H240365   4.317   0.669  13.733  1.7343  0.9660 -2.5766
 6292TIP3   OH240366   2.251   0.002   0.554  0.2496  0.6311 -0.3660
 6292TIP3    H140367   2.300  -0.060   0.607 -1.6732 -1.8820 -1.3072
 6292TIP3    H240368   2.184   0.036   0.613  1.2181  1.7647  0.1124
 6293TIP3   OH240369   6.547   5.233   1.179  0.0082 -0.2837  0.1435
 6293TIP3    H140370   6.614   5.294   1.210  1.1805 -1.2273 -0.4268
 6293TIP3    H240371   6.502   5.204   1.258  0.5387  0.0779  0.5885
 6294TIP3   OH240372   1.612   0.860  15.647 -0.2413  0.4232  0.0314
 6294TIP3    H140373   1.596   0.776  15.604  0.4821  1.2248 -1.9055
 6294TIP3    H240374   1.702   0.854  15.679 -1.4863 -1.0484  3.6943
 6295TIP3   OH240375   1.800   0.621  13.694 -0.3105 -0.4528 -0.1362
 6295TIP3    H140376   1.849   0.678  13.635  0.1778  1.3388  1.8768
 6295TIP3    H240377   1.847   0.537  13.692  1.4553  0.5034 -0.0378
 6296TIP3   OH240378   2.844   2.582   3.607 -0.2886 -0.0347 -0.4365
 6296TIP3    H140379   2.820   2.670   3.578  0.6344  0.3419 -0.0833
 6296TIP3    H240380   2.802   2.573   3.693 -2.0349 -0.7110 -1.2895
 6297TIP3   OH240381   5.451   1.876   0.389 -0.2254  0.5445  0.7925
 6297TIP3    H140382   5.434   1.970   0.381  2.3487  0.9597 -0.8845
 6297TIP3    H240383   5.545   1.869   0.401 -0.2538 -1.8523  0.0961
 6298TIP3   OH240384   0.576   2.964  15.732  0.0292  0.1441 -0.5098
 6298TIP3    H140385   0.511   3.005  15.788 -0.8509 -0.1762 -1.2670
 6298TIP3    H240386   0.583   3.023  15.657  1.5810  0.8397  0.1491
 6299TIP3   OH240387   1.963   0.261   3.212 -0.0634 -0.1065  0.1171
 6299TIP3    H140388   1.994   0.352   3.208 -0.5565  0.1249  1.1619
 6299TIP3    H240389   1.888   0.259   3.153 -1.2581  0.6967  1.5194
 6300TIP3   OH240390   2.677   2.333   2.245  0.6189 -0.0145  0.0848
 6300TIP3    H140391   2.643   2.385   2.318  1.9666 -1.7443  2.0745
 6300TIP3    H240392   2.646   2.244   2.263  1.4310 -0.5799 -1.1765
 6301TIP3   OH240393   0.487   4.503   1.255 -0.3546 -0.3873  0.4790
 6301TIP3    H140394   0.526   4.531   1.337  0.3273 -2.4779  0.9336
 6301TIP3    H240395   0.392   4.507   1.270 -0.3132  1.7760  0.4131
 6302TIP3   OH240396   3.807   3.834   1.569  0.0757  0.1473  0.3100
 6302TIP3    H140397   3.851   3.916   1.549 -2.2220  1.5980  0.8895
 6302TIP3    H240398   3.764   3.849   1.653 -3.3572 -0.2870 -1.1940
 6303TIP3   OH240399   4.536   4.522  17.307  0.2908  0.2082  0.1180
 6303TIP3    H140400   4.524   4.467  17.230 -0.3626  0.0268  0.3386
 6303TIP3    H240401   4.627   4.506  17.334  0.5345  0.3064 -0.6288
 6304TIP3   OH240402   6.202   3.053  16.700  0.5718  0.1643  0.4627
 6304TIP3    H140403   6.287   3.026  16.734  0.6862  0.1000  0.1222
 6304TIP3    H240404   6.140   2.994  16.745  0.9371 -1.7746 -1.4115
 6305TIP3   OH240405   5.983   0.197  14.217  0.8018  0.0286 -0.6186
 6305TIP3    H140406   5.986   0.183  14.311 -0.9255 -1.6314 -0.7337
 6305TIP3    H240407   6.028   0.280  14.203 -0.8401  1.4940  1.9211
 6306TIP3   OH240408   2.518   6.344   4.245 -0.1205 -0.4124 -0.0759
 6306TIP3    H140409   2.436   6.392   4.257  0.2109 -0.1291  1.2010
 6306TIP3    H240410   2.492   6.261   4.204 -0.8703  0.2099 -0.9147
 6307TIP3   OH240411   5.563   6.096   1.166 -0.1053 -0.1646 -0.0244
 6307TIP3    H140412   5.589   6.038   1.094 -0.2047  0.5104 -0.6156
 6307TIP3    H240413   5.644   6.111   1.215  0.1202 -0.0349 -0.4322
 6308TIP3   OH240414   3.231   3.195   0.379 -0.1303  0.5307 -0.0632
 6308TIP3    H140415   3.275   3.129   0.433  0.4480  1.4549  0.6168
 6308TIP3    H240416   3.273   3.187   0.293  1.1911  1.2083  0.5002
 6309TIP3   OH240417   5.683   3.207   0.216 -0.1194 -0.3421  0.6103
 6309TIP3    H140418   5.686   3.266   0.292 -1.5678  1.6866 -0.8154
 6309TIP3    H240419   5.613   3.145   0.237  0.2418 -0.5035  1.3840
 6310TIP3   OH240420   5.340   6.371   2.679  0.6264  0.2395  0.8704
 6310TIP3    H140421   5.257   6.396   2.720  0.4742 -1.3218  1.6054
 6310TIP3    H240422   5.400   6.357   2.753  0.9049 -0.7481  0.4739
 6311TIP3   OH240423   1.366   3.949  16.098 -0.3499 -0.1648 -0.1719
 6311TIP3    H140424   1.359   3.875  16.159  0.1935 -2.2353 -2.4579
 6311TIP3    H240425   1.277   3.959  16.062 -0.6811  1.0835  0.9163
 6312TIP3   OH240426   3.356   1.526   1.133  0.4670  0.3267  0.3906
 6312TIP3    H140427   3.450   1.510   1.129  0.2432 -0.9133 -0.1834
 6312TIP3    H240428   3.325   1.469   1.204  0.2112  1.1152  0.9305
 6313TIP3   OH240429   1.562   1.526  17.033  0.2777  0.0589  0.1258
 6313TIP3    H140430   1.637   1.565  17.077 -0.2205  0.1016  0.9460
 6313TIP3    H240431   1.551   1.441  17.075  0.0988 -0.1106 -0.2561
 6314TIP3   OH240432   2.264   2.139  15.273 -0.1022 -0.6049 -0.2216
 6314TIP3    H140433   2.218   2.073  15.325  1.1277 -0.1207  1.6137
 6314TIP3    H240434   2.235   2.125  15.183 -1.1347 -2.5328  0.3704
 6315TIP3   OH240435   6.055   3.385   4.541 -0.3140  0.7324  0.3181
 6315TIP3    H140436   6.091   3.385   4.630  0.2807  2.6595  0.1196
 6315TIP3    H240437   5.960   3.376   4.554 -0.0566 -1.3562  0.9962
 6316TIP3   OH240438   4.187   6.345  10.966 -0.7060  0.2342  0.0783
 6316TIP3    H140439   4.253   6.387  10.911 -1.2148 -0.5594 -1.1785
 6316TIP3    H240440   4.158   6.270  10.915 -2.0051  0.1058  0.9642
 6317TIP3   OH240441   0.125   6.618  15.231  0.6536 -0.2397 -0.4766
 6317TIP3    H140442   0.152   6.527  15.218 -1.4569 -0.9232 -0.3457
 6317TIP3    H240443   0.032   6.613  15.253  0.7588  1.8836  0.6789
 6318TIP3   OH240444   0.798   0.692   5.739  0.0678  0.3051 -0.1779
 6318TIP3    H140445   0.856   0.618   5.756 -3.0223 -2.0797  1.0824
 6318TIP3    H240446   0.818   0.717   5.649  1.9493 -1.3871 -0.3213
 6319TIP3   OH240447   3.605   5.364   4.364  0.1932  0.6524 -0.0094
 6319TIP3    H140448   3.574   5.277   4.388 -0.1243  0.9032  0.5147
 6319TIP3    H240449   3.620   5.359   4.270  1.6493 -0.4136  0.2426
 6320TIP3   OH240450   0.324   0.743   3.365 -0.0076  0.3095 -0.4485
 6320TIP3    H140451   0.322   0.830   3.325 -1.8401 -0.1561 -1.5186
 6320TIP3    H240452   0.298   0.758   3.456  1.1137  1.0191 -0.2225
 6321TIP3   OH240453   6.411   3.484   1.144 -0.0358 -0.1031 -0.3096
 6321TIP3    H140454   6.480   3.549   1.160  1.1944 -1.4873  0.2886
 6321TIP3    H240455   6.421   3.461   1.051 -0.5675  0.6330 -0.5602
 6322TIP3   OH240456   0.735   3.733   2.634  0.3094 -0.3273 -0.5013
 6322TIP3    H140457   0.711   3.674   2.562  0.2453 -0.3398 -0.4695
 6322TIP3    H240458   0.831   3.737   2.630  0.3279 -0.5860 -0.3855
 6323TIP3   OH240459   1.543   1.965   3.577  0.6111  0.0609 -0.3891
 6323TIP3    H140460   1.567   1.954   3.669 -1.6713  1.5462  0.4654
 6323TIP3    H240461   1.480   1.895   3.560  0.6261  0.1150 -0.6650
 6324TIP3   OH240462   5.415   5.326   2.839  0.0526 -0.4665  0.1357
 6324TIP3    H140463   5.391   5.303   2.929  0.3071 -0.4383  0.2123
 6324TIP3    H240464   5.356   5.275   2.784  0.1058 -0.7239  0.3156
 6325TIP3   OH240465   5.478   0.782   3.407 -0.2620  0.0058 -0.2271
 6325TIP3    H140466   5.415   0.711   3.417 -0.5066  0.1279 -0.8706
 6325TIP3    H240467   5.430   0.861   3.432 -0.6192  0.2025 -1.4771
 6326TIP3   OH240468   0.639   5.902  13.372  0.0651 -0.3128 -0.2936
 6326TIP3    H140469   0.573   5.833  13.370  0.2779 -0.4923 -1.6168
 6326TIP3    H240470   0.597   5.977  13.330 -0.7972  1.0121  2.6236
 6327TIP3   OH240471   6.366   6.151  16.645 -0.1980  0.1461 -0.5825
 6327TIP3    H140472   6.279   6.111  16.640 -1.1856  2.0058  0.5510
 6327TIP3    H240473   6.354   6.227  16.702  1.7241  1.6007 -1.9963
 6328TIP3   OH240474   0.908   2.066   6.442 -0.3478 -0.2358 -0.8106
 6328TIP3    H140475   0.919   2.044   6.349  1.7972  1.1636 -0.9602
 6328TIP3    H240476   0.995   2.097   6.469 -0.4336 -2.1820  2.1356
 6329TIP3   OH240477   5.154   1.155   5.627 -0.9850  0.1039 -0.5175
 6329TIP3    H140478   5.166   1.067   5.663 -1.9804  0.5570  1.0462
 6329TIP3    H240479   5.108   1.202   5.696 -0.1738  1.9610 -1.1859
 6330TIP3   OH240480   0.493   0.934   2.683 -0.2557 -0.4260 -0.2041
 6330TIP3    H140481   0.447   0.918   2.764 -1.2217  0.4442 -0.5543
 6330TIP3    H240482   0.452   0.876   2.619  1.4626 -2.1877  0.1903
 6331TIP3   OH240483   6.752   3.366   4.763 -0.2363 -0.2493 -0.0831
 6331TIP3    H140484   6.812   3.370   4.689  0.8977  1.6430  0.8678
 6331TIP3    H240485   6.795   3.309   4.826 -0.8146 -1.1987 -0.5324
 6332TIP3   OH240486   5.174   2.458  10.801  0.2849 -0.4147  0.3804
 6332TIP3    H140487   5.151   2.366  10.812 -0.4413 -0.2392  0.3937
 6332TIP3    H240488   5.092   2.505  10.816 -0.1179  0.0447 -2.6797
 6333TIP3   OH240489   6.221   6.424   4.163 -0.1197  0.4968 -0.0994
 6333TIP3    H140490   6.219   6.375   4.245 -0.5599  1.2352  0.3352
 6333TIP3    H240491   6.250   6.360   4.098 -0.5662 -0.3122  0.4796
 6334TIP3   OH240492   5.010   1.273  16.312 -0.2456 -0.0493  0.3318
 6334TIP3    H140493   4.917   1.296  16.310 -0.3357 -0.0526  2.3294
 6334TIP3    H240494   5.027   1.253  16.404  1.4558 -1.2699 -0.2098
 6335TIP3   OH240495   3.472   5.111   4.407 -0.4549 -0.3272  0.9115
 6335TIP3    H140496   3.492   5.018   4.396  0.6377 -0.2419  2.0902
 6335TIP3    H240497   3.378   5.112   4.426 -0.8873 -1.0178 -0.9165
 6336TIP3   OH240498   2.634   2.876   4.792 -0.1131  0.3655 -0.0223
 6336TIP3    H140499   2.610   2.900   4.702 -0.7819 -3.3452 -0.9874
 6336TIP3    H240500   2.696   2.804   4.781  2.5556  2.0527  2.5790
 6337TIP3   OH240501   5.423   6.143   5.335  0.4834  0.1197  0.0654
 6337TIP3    H140502   5.350   6.110   5.387  0.1086 -0.2294 -0.6658
 6337TIP3    H240503   5.447   6.069   5.279 -0.2667  1.0231 -1.5054
 6338TIP3   OH240504   2.013   1.885  14.883  0.0843 -0.7230  0.0614
 6338TIP3    H140505   2.007   1.805  14.831  1.2772 -0.0442 -1.1807
 6338TIP3    H240506   1.981   1.954  14.825  1.2623  0.0258  0.2763
 6339TIP3   OH240507   0.302   3.894  13.887  0.0370 -0.4443 -0.6571
 6339TIP3    H140508   0.215   3.875  13.922  0.2214  0.9771  0.6821
 6339TIP3    H240509   0.359   3.829  13.928 -0.1303 -0.2994 -0.1887
 6340TIP3   OH240510   4.115   2.390   0.060 -0.2135 -0.1711  0.1853
 6340TIP3    H140511   4.113   2.387  -0.035  0.5629  0.7790  0.1337
 6340TIP3    H240512   4.023   2.377   0.086 -0.0694 -3.4472 -0.5533
 6341TIP3   OH240513   3.774   2.333  11.566  0.3122 -0.1846  0.1297
 6341TIP3    H140514   3.689   2.331  11.610  0.1910 -1.0290 -0.1361
 6341TIP3    H240515   3.833   2.289  11.627  0.7132  0.9660  0.6042
 6342TIP3   OH240516   6.351   6.193   3.266 -0.3904 -0.0220 -0.2292
 6342TIP3    H140517   6.342   6.098   3.271  0.7588 -0.1299 -0.0327
 6342TIP3    H240518   6.278   6.227   3.318 -0.8035 -0.7976 -0.2982
 6343TIP3   OH240519   0.787   1.690  12.185 -0.4208  0.8026 -0.0437
 6343TIP3    H140520   0.847   1.684  12.260 -0.5699  1.2849  0.1142
 6343TIP3    H240521   0.751   1.778  12.190 -0.5960  0.7624 -0.5628
 6344TIP3   OH240522   2.097   4.919   4.138  0.1069 -0.5441  0.1969
 6344TIP3    H140523   2.073   4.869   4.060 -1.2654  1.2761 -0.6107
 6344TIP3    H240524   2.192   4.914   4.142  0.1067 -1.9112 -0.6971
 6345TIP3   OH240525   3.851   2.903   4.570 -0.2878  0.0229 -0.1970
 6345TIP3    H140526   3.899   2.826   4.538 -0.6314 -0.3498  0.1708
 6345TIP3    H240527   3.874   2.972   4.509 -0.6690 -0.5905 -1.0512
 6346TIP3   OH240528   5.983   0.185   3.656 -0.1016  0.4963 -0.0632
 6346TIP3    H140529   6.023   0.222   3.577 -0.3171 -1.4715 -1.1814
 6346TIP3    H240530   5.911   0.132   3.623  0.1445 -0.8295  1.4006
 6347TIP3   OH240531   3.625   1.281  17.182 -0.1689  0.6905  0.3901
 6347TIP3    H140532   3.699   1.340  17.192  1.0729 -0.2852 -2.1645
 6347TIP3    H240533   3.569   1.300  17.258  2.8471  1.1356  2.6915
 6348TIP3   OH240534   0.688   1.405  16.470  0.2873  0.2915  0.6109
 6348TIP3    H140535   0.693   1.315  16.439  0.0108  0.0551  1.2163
 6348TIP3    H240536   0.655   1.397  16.560  1.5210  0.9114  1.1381
 6349TIP3   OH240537   4.427   1.085   1.743  0.3729  0.0189 -0.4056
 6349TIP3    H140538   4.490   1.149   1.775  1.5159 -0.3265 -1.8289
 6349TIP3    H240539   4.414   1.108   1.651 -1.0947 -0.3259 -0.3109
 6350TIP3   OH240540   1.210   6.360   2.635 -0.0827  0.0431 -0.0980
 6350TIP3    H140541   1.190   6.403   2.718 -1.1152 -1.0727  0.2371
 6350TIP3    H240542   1.130   6.314   2.611  0.8980 -1.4513 -0.6087
 6351TIP3   OH240543   5.379   0.560  15.074 -0.2404 -0.1710  0.0853
 6351TIP3    H140544   5.415   0.578  15.161  1.5259  0.4282 -0.7217
 6351TIP3    H240545   5.353   0.468  15.077 -1.4307  0.1649  1.6231
 6352TIP3   OH240546   2.030   3.700  11.747 -0.0925  0.3038  0.2391
 6352TIP3    H140547   1.969   3.735  11.682 -0.9961  0.0502  0.9242
 6352TIP3    H240548   2.028   3.763  11.819  0.5401  0.3460  0.2220
 6353TIP3   OH240549   4.010   0.029   2.726  0.0667 -0.2329 -0.0170
 6353TIP3    H140550   4.027   0.016   2.819  2.4807  1.2899 -0.1672
 6353TIP3    H240551   3.954   0.106   2.722 -0.2447 -0.4460  0.1608
 6354TIP3   OH240552   1.797   0.355   5.278  0.1576  0.5782  0.5214
 6354TIP3    H140553   1.785   0.365   5.183  0.0351 -0.3324  0.4329
 6354TIP3    H240554   1.860   0.423   5.301  1.4825 -0.2339 -0.5148
 6355TIP3   OH240555   5.173   0.304   4.568 -0.0437  1.0623  0.5417
 6355TIP3    H140556   5.257   0.348   4.573 -0.4542  1.7555  1.6779
 6355TIP3    H240557   5.184   0.224   4.619  0.1031  0.8392  0.1651
 6356TIP3   OH240558   1.982   4.739   1.127  0.4701 -0.0975  0.2197
 6356TIP3    H140559   1.948   4.767   1.212 -0.7337 -0.3336 -0.1639
 6356TIP3    H240560   1.934   4.791   1.063  1.4450  0.1592 -0.3277
 6357TIP3   OH240561   1.170   0.346  12.918 -0.2117  0.8453 -0.2736
 6357TIP3    H140562   1.110   0.338  12.844 -1.3213  1.2642  0.5558
 6357TIP3    H240563   1.165   0.261  12.962  2.1548 -0.2408 -1.8686
 6358TIP3   OH240564   0.875   1.955  13.867 -0.2210  0.0871 -0.0135
 6358TIP3    H140565   0.926   2.025  13.827  0.6008  0.4965  1.6606
 6358TIP3    H240566   0.835   1.996  13.944 -2.1718 -0.5315 -0.6312
 6359TIP3   OH240567   3.083   3.671  16.017  0.0523  0.4784 -0.3208
 6359TIP3    H140568   3.022   3.656  15.944  1.0770 -0.3973 -1.0315
 6359TIP3    H240569   3.152   3.726  15.979 -0.0765  1.1377  0.3709
 6360TIP3   OH240570   6.445   3.596  16.617  0.2854  0.4089  0.3555
 6360TIP3    H140571   6.415   3.673  16.664 -1.4258  0.4581 -0.7332
 6360TIP3    H240572   6.537   3.587  16.642  0.6145  2.9362  0.3325
 6361TIP3   OH240573   5.532   1.145   4.219 -0.2881 -0.5330 -0.6369
 6361TIP3    H140574   5.536   1.239   4.238  0.9758 -0.5123 -0.8988
 6361TIP3    H240575   5.542   1.104   4.305 -1.1895 -0.4457 -0.4761
 6362TIP3   OH240576   2.223   5.927  15.965  0.3747  0.3921 -0.2080
 6362TIP3    H140577   2.284   5.999  15.951  1.3073 -0.1368  0.9825
 6362TIP3    H240578   2.248   5.861  15.900 -0.7809  1.2828 -1.6173
 6363TIP3   OH240579   5.767   3.573  16.598  0.5165  0.5113  0.3270
 6363TIP3    H140580   5.746   3.636  16.668  2.4761 -0.1714  1.6089
 6363TIP3    H240581   5.767   3.488  16.642  0.6538 -0.0635 -0.7649
 6364TIP3   OH240582   2.573   4.509   1.809  0.1537  0.6134 -0.4183
 6364TIP3    H140583   2.497   4.525   1.753 -1.1951 -1.2937  0.7282
 6364TIP3    H240584   2.539   4.516   1.898  1.2219 -0.6090  0.1215
 6365TIP3   OH240585   4.481   6.241   1.726 -0.6484  0.1177  0.2271
 6365TIP3    H140586   4.517   6.322   1.690 -0.3686 -0.3401 -0.5303
 6365TIP3    H240587   4.531   6.227   1.807 -1.3702  1.2084  0.8984
 6366TIP3   OH240588   2.947   0.092   0.105 -0.2083  0.0883  0.3343
 6366TIP3    H140589   2.858   0.079   0.137  0.2837 -2.4794  0.9624
 6366TIP3    H240590   2.992   0.138   0.176 -1.0541  1.5669 -0.0687
 6367TIP3   OH240591   3.038   0.878  11.388  0.5408 -0.2661 -0.1417
 6367TIP3    H140592   3.045   0.917  11.300  4.1713 -0.8564 -0.2926
 6367TIP3    H240593   2.987   0.798  11.375  0.3578  0.0477 -1.5538
 6368TIP3   OH240594   2.639   2.984   4.129 -0.2158  0.5780  0.4068
 6368TIP3    H140595   2.673   3.061   4.084  1.3813  0.0943  0.7191
 6368TIP3    H240596   2.563   2.958   4.078  1.0899  0.4861 -1.6108
 6369TIP3   OH240597   4.788   1.373  12.940  0.2245 -0.0188 -0.5148
 6369TIP3    H140598   4.822   1.422  12.865  2.0619  0.4521  0.5581
 6369TIP3    H240599   4.791   1.282  12.913  0.0345  0.2080 -1.3206
 6370TIP3   OH240600   1.156   2.572   3.082  0.0741  0.6132  0.6102
 6370TIP3    H140601   1.173   2.483   3.110 -0.9902 -0.2940 -1.3615
 6370TIP3    H240602   1.089   2.605   3.142  0.0271 -0.1464  0.9749
 6371TIP3   OH240603   2.597   4.984   2.807  0.3533 -0.8958 -0.2286
 6371TIP3    H140604   2.539   4.970   2.882 -1.3515  1.1038 -1.0673
 6371TIP3    H240605   2.640   5.067   2.826 -0.2909 -0.2367 -1.5424
 6372TIP3   OH240606   4.904   2.262   2.694  0.1727  0.0302  0.2969
 6372TIP3    H140607   4.823   2.261   2.745 -0.7659  0.6431 -1.0990
 6372TIP3    H240608   4.921   2.170   2.675 -0.5909 -0.0668  0.0335
 6373TIP3   OH240609   2.899   4.664  10.409  0.5866  0.3525 -0.0489
 6373TIP3    H140610   2.935   4.694  10.325 -0.1257 -1.3048 -1.0063
 6373TIP3    H240611   2.972   4.619  10.451  0.7524  0.5562 -0.1178
 6374TIP3   OH240612   5.978   4.454   1.574 -0.2535 -0.3390 -0.8490
 6374TIP3    H140613   5.968   4.427   1.665  0.6119 -0.5574 -0.8138
 6374TIP3    H240614   6.043   4.524   1.576  0.8619 -1.3251 -1.4451
 6375TIP3   OH240615   5.985   6.384  11.439  0.2728 -0.3534 -0.1718
 6375TIP3    H140616   5.901   6.389  11.483  0.7494 -0.5474  0.7945
 6375TIP3    H240617   5.969   6.329  11.362 -0.2930 -1.1084  0.4711
 6376TIP3   OH240618   3.022   3.890   3.909  0.3288  0.3008  0.0797
 6376TIP3    H140619   2.989   3.980   3.915  1.4574  0.8928 -1.7583
 6376TIP3    H240620   3.113   3.900   3.880  1.1605 -1.3870  1.8960
 6377TIP3   OH240621   1.116   1.218   2.070 -1.0862 -0.2970 -0.2393
 6377TIP3    H140622   1.141   1.213   2.163  1.5987 -0.6524 -0.8873
 6377TIP3    H240623   1.057   1.144   2.057 -1.3040 -0.4010  1.1105
 6378TIP3   OH240624   6.068   0.528   2.625  0.3756 -0.2385 -0.2285
 6378TIP3    H140625   6.053   0.618   2.597 -0.8936  0.2812  1.8585
 6378TIP3    H240626   5.981   0.488   2.626  0.4422 -0.4700  1.9124
 6379TIP3   OH240627   4.964   0.500   2.993  0.0201 -0.3517  0.7405
 6379TIP3    H140628   4.991   0.585   2.959 -0.6696 -0.3962  0.0523
 6379TIP3    H240629   4.982   0.504   3.086  0.3953  0.3923  0.6373
 6380TIP3   OH240630   1.945   3.513   0.299  0.5074 -0.2177 -0.4110
 6380TIP3    H140631   1.990   3.433   0.272  0.5171  0.3335 -2.1719
 6380TIP3    H240632   1.946   3.568   0.221 -0.9079  0.8671  0.2971
 6381TIP3   OH240633   1.108   4.366   6.539 -0.6899 -0.4138 -0.1914
 6381TIP3    H140634   1.187   4.397   6.583 -0.5119 -0.1909 -0.6560
 6381TIP3    H240635   1.042   4.359   6.608 -1.3366  2.8450 -0.3209
 6382TIP3   OH240636   6.735   5.516   1.141 -0.1694  0.0554 -0.0785
 6382TIP3    H140637   6.693   5.597   1.167  0.5702  0.8407 -1.2151
 6382TIP3    H240638   6.741   5.465   1.222 -1.4085  0.7615  0.4882
 6383TIP3   OH240639   2.852   5.587   4.449 -0.2025 -0.1232 -0.0370
 6383TIP3    H140640   2.925   5.646   4.431  1.1859 -2.1531 -1.5815
 6383TIP3    H240641   2.778   5.625   4.402  0.6424  0.4266 -0.9699
 6384TIP3   OH240642   2.612   6.177   2.756 -0.6187 -0.9859 -0.0366
 6384TIP3    H140643   2.532   6.219   2.785  0.4104  0.2653  1.1005
 6384TIP3    H240644   2.643   6.128   2.832  1.4258  1.2681  0.6844
 6385TIP3   OH240645   1.394   2.977   0.056 -0.2119  0.1874 -0.1668
 6385TIP3    H140646   1.456   3.049   0.041  0.4007 -0.7500 -2.6720
 6385TIP3    H240647   1.326   3.015   0.111  0.3671  2.5525 -0.9644
 6386TIP3   OH240648   3.340   5.270   6.834 -0.0409 -0.5272  0.7021
 6386TIP3    H140649   3.381   5.191   6.869  0.0201 -0.0016  1.8960
 6386TIP3    H240650   3.413   5.331   6.820  0.0524 -1.0409 -1.3205
 6387TIP3   OH240651   3.303   0.767   2.344 -0.3060 -0.1921 -0.1543
 6387TIP3    H140652   3.359   0.812   2.406 -0.9647  2.0772 -1.1081
 6387TIP3    H240653   3.284   0.682   2.385 -0.0472  0.8839  2.3256
 6388TIP3   OH240654   0.517   6.642   4.650 -0.3095  0.1488  0.1811
 6388TIP3    H140655   0.605   6.621   4.619 -0.3894  2.1102 -1.6024
 6388TIP3    H240656   0.474   6.682   4.574 -1.2561  3.3186  2.1802
 6389TIP3   OH240657   6.310   2.705   5.737 -0.2219 -0.0652 -0.4312
 6389TIP3    H140658   6.355   2.765   5.797 -0.3693  0.5672 -0.9441
 6389TIP3    H240659   6.350   2.620   5.755  0.9937  0.4253 -0.6725
 6390TIP3   OH240660   4.094   2.607  16.027  0.1228 -0.0581 -0.4658
 6390TIP3    H140661   4.166   2.613  15.964  0.9723 -0.0207  0.4755
 6390TIP3    H240662   4.039   2.536  15.994  1.5930 -1.3635 -0.2527
 6391TIP3   OH240663   3.997   3.859   4.721 -0.2951  0.3091 -0.2485
 6391TIP3    H140664   3.939   3.899   4.656 -0.2510  1.6013  0.4664
 6391TIP3    H240665   4.067   3.924   4.733 -0.5114  0.2891  1.3517
 6392TIP3   OH240666   5.464   4.066   3.145  0.2393  0.1365 -0.6302
 6392TIP3    H140667   5.535   4.074   3.208 -1.0781  0.0723  0.9394
 6392TIP3    H240668   5.495   4.111   3.067  1.4712  1.2662  0.4686
 6393TIP3   OH240669   0.638   2.059  16.167 -0.4233  0.1868  0.2035
 6393TIP3    H140670   0.711   2.100  16.120  0.8799 -0.6289  1.4129
 6393TIP3    H240671   0.571   2.046  16.101  0.5469  0.9395 -0.9707
 6394TIP3   OH240672   2.153   1.200  15.884  0.5166  0.1197 -0.0472
 6394TIP3    H140673   2.155   1.106  15.902  1.7338 -0.2460 -1.8588
 6394TIP3    H240674   2.060   1.221  15.878  0.2029 -0.7885  1.1077
 6395TIP3   OH240675   5.742   3.397   0.979  0.3792 -0.2800 -0.4404
 6395TIP3    H140676   5.755   3.427   1.069  1.0178 -0.9193 -0.3047
 6395TIP3    H240677   5.653   3.362   0.978  0.5134 -0.6415  0.0545
 6396TIP3   OH240678   3.643   2.093   3.730 -0.0953  0.7521 -0.5384
 6396TIP3    H140679   3.562   2.042   3.731  1.4237 -1.8250  1.3006
 6396TIP3    H240680   3.679   2.080   3.642 -1.1992  1.2556 -1.0939
 6397TIP3   OH240681   6.219   4.915  11.401 -0.0307  0.3213  0.2945
 6397TIP3    H140682   6.167   4.878  11.472  0.3848 -0.0922  0.3890
 6397TIP3    H240683   6.256   4.839  11.356  0.4787  0.6067  0.2225
 6398TIP3   OH240684   3.867   5.655  16.436 -0.2955 -0.4523  0.1005
 6398TIP3    H140685   3.961   5.645  16.446  0.1566  2.5768 -0.1757
 6398TIP3    H240686   3.851   5.635  16.344 -0.1618 -2.1699  0.4272
 6399TIP3   OH240687   4.110   2.987   4.323 -0.6066  0.1395  0.4491
 6399TIP3    H140688   4.027   3.031   4.343 -0.4662  0.2349  0.8306
 6399TIP3    H240689   4.131   3.016   4.234 -0.4280  0.9903  0.7581
 6400TIP3   OH240690   3.857   3.973   4.506 -0.0855  0.5043  0.2497
 6400TIP3    H140691   3.776   3.993   4.553 -1.4460  2.5212 -2.6785
 6400TIP3    H240692   3.831   3.908   4.440  1.1640 -0.2890  0.4919
 6401TIP3   OH240693   6.335   3.532  11.414 -0.3405  0.1207  1.2015
 6401TIP3    H140694   6.282   3.544  11.492 -0.5764  0.6040  0.9736
 6401TIP3    H240695   6.313   3.445  11.383 -0.3385 -0.0237  1.6041
 6402TIP3   OH240696   6.519   3.083  17.026 -0.7027  0.0483  0.5136
 6402TIP3    H140697   6.464   3.047  17.095  0.7342 -1.4126  0.9564
 6402TIP3    H240698   6.587   3.133  17.073  1.0092 -1.9660  0.3181
 6403TIP3   OH240699   4.142   6.769  16.540 -0.1810 -0.2319 -0.4017
 6403TIP3    H140700   4.153   6.752  16.633 -0.8872 -1.4865 -0.5338
 6403TIP3    H240701   4.074   6.709  16.512  1.2373 -1.1592 -2.0995
 6404TIP3   OH240702   3.420   0.185   4.565  0.3114 -0.3154 -0.3959
 6404TIP3    H140703   3.426   0.093   4.538  1.1488 -0.5763  0.6281
 6404TIP3    H240704   3.382   0.181   4.653  2.4255  0.1313  0.5983
 6405TIP3   OH240705   5.967   2.692  17.182  0.1547  0.8348  0.1449
 6405TIP3    H140706   6.051   2.656  17.209 -0.1368  1.2316  1.6622
 6405TIP3    H240707   5.955   2.770  17.236 -0.7859  1.2862 -0.6745
 6406TIP3   OH240708   4.717   6.053  13.358  0.4009 -0.0772  0.3524
 6406TIP3    H140709   4.654   6.011  13.301  1.7050 -0.3992 -0.8978
 6406TIP3    H240710   4.701   6.147  13.347 -1.4311 -0.1266  1.9224
 6407TIP3   OH240711   5.862   5.149   0.394  0.3907  0.0143  0.9697
 6407TIP3    H140712   5.778   5.195   0.394  0.2207 -0.2549 -0.5007
 6407TIP3    H240713   5.916   5.198   0.457 -0.1343  1.6015  0.2411
 6408TIP3   OH240714   0.287   0.990  10.961  0.0920 -0.1047 -0.1786
 6408TIP3    H140715   0.354   1.053  10.935 -0.7718  1.5950  1.4618
 6408TIP3    H240716   0.236   0.975  10.882  0.2448  1.3824 -0.5870
 6409TIP3   OH240717   4.760   1.009  15.268 -0.4186 -0.1332 -0.5836
 6409TIP3    H140718   4.797   0.932  15.226 -0.9449 -1.4137  1.1971
 6409TIP3    H240719   4.669   0.987  15.284 -1.0947  1.5988 -1.6647
 6410TIP3   OH240720   6.671   2.351  15.317  0.6772  0.0282 -0.4274
 6410TIP3    H140721   6.619   2.398  15.382 -0.5137  0.7240 -1.8179
 6410TIP3    H240722   6.641   2.260  15.324  0.1891  0.1912 -0.3300
 6411TIP3   OH240723   0.612   5.187  12.241  0.3948  0.6727 -0.1093
 6411TIP3    H140724   0.649   5.191  12.152 -0.0319  1.8938 -0.2584
 6411TIP3    H240725   0.545   5.255  12.241 -0.0962  0.2022  0.9433
 6412TIP3   OH240726   6.157   4.711   2.662  0.1822  0.3396  0.1706
 6412TIP3    H140727   6.174   4.617   2.665 -1.5186  0.0042  0.4178
 6412TIP3    H240728   6.235   4.751   2.701  0.3451 -1.0587  1.3660
 6413TIP3   OH240729   3.822   4.660  16.254 -0.3994 -0.0778  0.1286
 6413TIP3    H140730   3.884   4.729  16.231 -0.4368 -0.5665 -1.5226
 6413TIP3    H240731   3.799   4.619  16.171 -2.1026 -0.6280  0.8234
 6414TIP3   OH240732   6.348   5.996  12.334 -0.5662  0.8539  0.0496
 6414TIP3    H140733   6.332   5.924  12.396 -1.9463 -0.3163 -1.5641
 6414TIP3    H240734   6.441   5.991  12.315 -0.4612  0.1092  0.7015
 6415TIP3   OH240735   6.639   4.070  12.582  0.1738  0.1904 -0.1126
 6415TIP3    H140736   6.645   4.084  12.677 -1.6502  1.0529 -0.0859
 6415TIP3    H240737   6.581   3.995  12.572  2.4640 -1.6632 -0.5485
 6416TIP3   OH240738   0.838   0.734   2.462 -0.6385  0.8923 -0.0179
 6416TIP3    H140739   0.793   0.813   2.492 -0.6123  0.3329  1.5625
 6416TIP3    H240740   0.919   0.732   2.513  0.0315  0.5632 -1.0539
 6417TIP3   OH240741   1.520   6.518  13.052  0.1225  0.1919 -0.0971
 6417TIP3    H140742   1.580   6.592  13.046  2.5342 -1.5553  1.0109
 6417TIP3    H240743   1.518   6.481  12.964  1.6345 -0.3799  0.0789
 6418TIP3   OH240744   2.995   5.838   1.740  0.3195 -0.5142  0.1906
 6418TIP3    H140745   2.951   5.908   1.789  0.1768 -0.2652 -0.2792
 6418TIP3    H240746   3.043   5.884   1.671  0.1972 -0.8845 -0.1438
 6419TIP3   OH240747   3.204   2.154   1.823 -0.0749  0.1205 -0.0545
 6419TIP3    H140748   3.208   2.209   1.902 -0.1943 -0.1519  0.1443
 6419TIP3    H240749   3.288   2.168   1.780 -0.9746  2.3244 -1.2739
 6420TIP3   OH240750   0.314   1.372   3.252 -0.0271 -0.0474  0.2056
 6420TIP3    H140751   0.303   1.297   3.310  0.1185 -0.2803 -0.0625
 6420TIP3    H240752   0.409   1.385   3.247 -0.0293 -0.1400 -0.1148
 6421TIP3   OH240753   4.967   3.243  15.660  0.0221  0.5422 -0.3236
 6421TIP3    H140754   5.008   3.330  15.661 -1.0525  1.0703 -0.6248
 6421TIP3    H240755   5.017   3.192  15.724 -1.3166  2.3107  2.3164
 6422TIP3   OH240756   6.581   1.179   3.175 -0.3757  0.1898  0.2228
 6422TIP3    H140757   6.626   1.119   3.115 -0.8658 -1.9351  1.8355
 6422TIP3    H240758   6.652   1.222   3.224  0.0066  1.5782 -1.4668
 6423TIP3   OH240759   0.751   0.308   0.103  0.8434  0.1086  0.4312
 6423TIP3    H140760   0.697   0.263   0.167  1.2592 -2.4027 -0.8502
 6423TIP3    H240761   0.836   0.317   0.146  0.7149 -0.2161  0.7573
 6424TIP3   OH240762   2.535   0.183  13.221  0.8022 -0.2971  0.6234
 6424TIP3    H140763   2.507   0.110  13.276 -0.6469  0.1708  0.5506
 6424TIP3    H240764   2.480   0.177  13.143  1.2494  0.3831  0.2516
 6425TIP3   OH240765   1.337   3.431   3.354  0.0025  0.5133 -0.1522
 6425TIP3    H140766   1.415   3.376   3.346 -0.7546 -0.6647  0.2906
 6425TIP3    H240767   1.296   3.426   3.268 -0.2783  0.0378  0.0049
 6426TIP3   OH240768   0.023   3.542   5.012 -0.3847 -0.0895  0.3923
 6426TIP3    H140769   0.067   3.459   4.997 -1.0577 -0.3036 -0.4342
 6426TIP3    H240770   0.036   3.559   5.106  1.2679 -0.2373  0.2236
 6427TIP3   OH240771   0.627   0.439  12.249 -0.1710 -0.2882 -0.3210
 6427TIP3    H140772   0.585   0.502  12.191 -2.3403  1.0213  2.4554
 6427TIP3    H240773   0.616   0.355  12.206 -1.3805  0.6632 -1.9530
 6428TIP3   OH240774   4.149   5.105   2.411 -0.0877 -0.1491  0.3287
 6428TIP3    H140775   4.144   5.050   2.490 -3.2548 -0.3825  0.0826
 6428TIP3    H240776   4.183   5.046   2.344 -0.0753 -0.7903  0.8826
 6429TIP3   OH240777   3.552   4.252  15.618  0.2203 -0.0507 -1.0370
 6429TIP3    H140778   3.462   4.281  15.631 -0.1733 -0.6270 -2.3247
 6429TIP3    H240779   3.604   4.332  15.613 -0.1494  0.2761  0.0677
 6430TIP3   OH240780   3.404   6.639  14.231  0.3328 -0.3083 -0.1394
 6430TIP3    H140781   3.374   6.725  14.201 -0.0038  0.0101  1.0633
 6430TIP3    H240782   3.435   6.653  14.320  1.0763 -1.2789 -0.2159
 6431TIP3   OH240783   4.759   2.446   2.497 -0.2005  0.1668 -0.4509
 6431TIP3    H140784   4.822   2.516   2.516 -0.5312  0.7108 -1.2942
 6431TIP3    H240785   4.803   2.366   2.526  0.7445  0.5767 -0.6963
 6432TIP3   OH240786   6.261   6.082   4.166 -1.0013 -0.0042  0.6142
 6432TIP3    H140787   6.269   5.996   4.208 -1.1917 -0.2517  0.1398
 6432TIP3    H240788   6.173   6.084   4.129  0.3688 -1.3302 -3.1353
 6433TIP3   OH240789   5.150   6.516  10.557  0.3475  0.1931  0.1358
 6433TIP3    H140790   5.077   6.485  10.611  0.7693  0.0252  0.6141
 6433TIP3    H240791   5.111   6.581  10.499 -0.1411  0.2752  0.5501
 6434TIP3   OH240792   0.347   1.233  12.261 -0.0782  0.5289 -0.5553
 6434TIP3    H140793   0.267   1.273  12.226 -1.7132 -2.4850 -0.6717
 6434TIP3    H240794   0.382   1.182  12.188  0.6342 -0.0046  0.1411
 6435TIP3   OH240795   3.567   1.752   2.623  0.9467 -0.0363 -0.1096
 6435TIP3    H140796   3.585   1.810   2.548  0.3785 -0.2164 -0.3865
 6435TIP3    H240797   3.496   1.696   2.593  1.0562 -0.4448  0.3941
 6436TIP3   OH240798   1.754   0.199  12.150 -0.9966 -0.2412 -0.0723
 6436TIP3    H140799   1.813   0.262  12.108  1.5185 -1.3747  1.4797
 6436TIP3    H240800   1.704   0.250  12.213 -3.1010  1.0491 -2.5747
 6437TIP3   OH240801   4.740   2.160   0.245  0.2501  0.2309  0.7706
 6437TIP3    H140802   4.723   2.084   0.189 -1.1355  1.5897 -0.7851
 6437TIP3    H240803   4.828   2.189   0.219 -0.5347  1.0995 -1.1334
 6438TIP3   OH240804   6.313   2.099  12.280  0.1587 -0.0101 -0.3434
 6438TIP3    H140805   6.340   2.035  12.215 -0.4299 -0.8662  0.2259
 6438TIP3    H240806   6.382   2.098  12.346  0.5313  0.5201 -0.7242
 6439TIP3   OH240807   1.223   1.940   1.279  0.4618 -0.3631  0.1749
 6439TIP3    H140808   1.183   1.858   1.250 -0.4324 -0.0652  0.5266
 6439TIP3    H240809   1.255   1.981   1.199 -0.2392 -0.4622 -0.1606
 6440TIP3   OH240810   1.281   5.521   4.051  0.0175 -0.2707  0.1116
 6440TIP3    H140811   1.229   5.452   4.090  0.9702 -0.5869  0.8675
 6440TIP3    H240812   1.263   5.599   4.104 -0.3571 -0.1592 -0.1764
 6441TIP3   OH240813   4.899   3.646   5.276 -0.0394 -0.0856  0.3478
 6441TIP3    H140814   4.836   3.590   5.322  0.3485  0.8509  2.0870
 6441TIP3    H240815   4.934   3.590   5.207 -0.1801 -1.7819  1.5843
 6442TIP3   OH240816   3.589   0.489  15.331 -0.0356  0.6605 -0.6466
 6442TIP3    H140817   3.623   0.466  15.244  2.6515  0.1598  0.4580
 6442TIP3    H240818   3.602   0.583  15.338 -0.3353  0.7155 -0.7999
 6443TIP3   OH240819   5.372   2.398   2.410 -0.0913  0.8504  0.2765
 6443TIP3    H140820   5.427   2.331   2.369 -0.8421  0.7575 -0.6186
 6443TIP3    H240821   5.418   2.480   2.395  1.1615  0.5086  1.9350
 6444TIP3   OH240822   5.705   3.011  13.991  0.0889 -0.0430 -0.7240
 6444TIP3    H140823   5.618   3.015  14.031 -0.0308  0.4366 -1.0137
 6444TIP3    H240824   5.697   2.944  13.923  0.1189 -0.4230 -0.3554
 6445TIP3   OH240825   6.041   0.719  13.150 -0.0925  0.0984 -0.0953
 6445TIP3    H140826   6.020   0.775  13.076  2.5750  1.3814  0.0067
 6445TIP3    H240827   5.965   0.727  13.208 -2.1140 -0.7019 -2.4360
 6446TIP3   OH240828   0.512   5.042  13.098 -0.0330 -0.2136  0.1650
 6446TIP3    H140829   0.438   4.982  13.109  0.5729 -0.7034  1.9006
 6446TIP3    H240830   0.550   5.018  13.014 -2.2444  0.5531 -1.1675
 6447TIP3   OH240831   6.116   1.080  12.228  0.2061  0.2518  0.4320
 6447TIP3    H140832   6.103   1.066  12.322 -0.8087  1.5872  0.5229
 6447TIP3    H240833   6.097   1.173  12.215 -0.8556 -0.1644 -1.2941
 6448TIP3   OH240834   6.115   5.863  10.547  0.0882  0.4205 -0.1304
 6448TIP3    H140835   6.184   5.826  10.492 -0.1607 -0.4906  0.1367
 6448TIP3    H240836   6.037   5.863  10.491 -0.0552 -0.0554  0.0656
 6449TIP3   OH240837   5.558   1.230  13.059 -0.1088  0.1710  0.4935
 6449TIP3    H140838   5.579   1.214  12.967  0.7961 -0.7338  0.8377
 6449TIP3    H240839   5.641   1.217  13.105 -0.3106  1.6622  1.3248
 6450TIP3   OH240840   0.577   4.227  11.876  0.2442 -0.1848 -0.3189
 6450TIP3    H140841   0.584   4.134  11.896  1.6365 -0.4138 -1.7487
 6450TIP3    H240842   0.490   4.252  11.909  0.9121 -1.3022  2.6691
 6451TIP3   OH240843   1.124   1.017  12.933 -0.5591 -0.2978 -0.5111
 6451TIP3    H140844   1.061   0.953  12.900  0.7793 -1.1012 -1.6229
 6451TIP3    H240845   1.201   0.965  12.956 -0.2600  0.6676  0.7737
 6452TIP3   OH240846   0.826   2.888  15.864 -0.4294 -0.2079  0.1661
 6452TIP3    H140847   0.743   2.925  15.834 -0.8095 -1.1078  0.1049
 6452TIP3    H240848   0.801   2.820  15.926  0.1703 -2.0184 -1.4874
 6453TIP3   OH240849   1.756   0.176   2.218 -0.1587  0.2761  0.9016
 6453TIP3    H140850   1.828   0.238   2.204  0.9475 -1.3714 -1.2286
 6453TIP3    H240851   1.695   0.194   2.147  0.4720 -1.4006 -0.1173
 6454TIP3   OH240852   5.952   5.258   4.649 -0.3112  0.0512 -0.4404
 6454TIP3    H140853   5.954   5.303   4.734 -2.3964  2.2690 -1.4444
 6454TIP3    H240854   6.029   5.290   4.603 -0.1608  0.2717 -0.0374
 6455TIP3   OH240855   3.237   5.918   2.076  0.0590  0.1540  0.4806
 6455TIP3    H140856   3.211   5.850   2.138 -0.4797 -0.2601 -0.1823
 6455TIP3    H240857   3.288   5.871   2.010 -1.6377  0.0726 -0.8331
 6456TIP3   OH240858   2.581   1.439  11.127 -0.3946 -0.3023 -0.2296
 6456TIP3    H140859   2.504   1.411  11.078  0.1389 -2.5537  0.0801
 6456TIP3    H240860   2.545   1.488  11.201 -1.3963  0.1680 -0.9910
 6457TIP3   OH240861   5.271   1.410  13.739  0.1433 -0.6411 -0.0514
 6457TIP3    H140862   5.328   1.402  13.816  0.5800  0.0507 -0.3015
 6457TIP3    H240863   5.289   1.497  13.704 -0.5974 -0.6627 -0.5148
 6458TIP3   OH240864   0.361   2.788  12.609 -0.3937 -0.0926  0.3191
 6458TIP3    H140865   0.328   2.735  12.536  2.6670  0.4969 -1.6508
 6458TIP3    H240866   0.411   2.858  12.568 -1.1974  2.2390  2.9684
 6459TIP3   OH240867   2.641   3.711  11.666 -0.0810 -0.2702  0.2483
 6459TIP3    H140868   2.663   3.649  11.736 -0.9480 -0.1999  0.5937
 6459TIP3    H240869   2.550   3.692  11.645 -0.2044  0.5488  0.0098
 6460TIP3   OH240870   4.794   2.660  11.998 -0.2382  0.2232  0.0568
 6460TIP3    H140871   4.783   2.755  12.002 -1.9816  0.0819 -0.6571
 6460TIP3    H240872   4.710   2.627  11.968 -0.2510 -1.7063  1.9730
 6461TIP3   OH240873   3.357   1.073  13.657 -0.6239 -0.6860  0.2029
 6461TIP3    H140874   3.300   1.112  13.724  0.1218 -0.0364  0.4886
 6461TIP3    H240875   3.445   1.107  13.679  0.3048 -3.4270  1.1736
 6462TIP3   OH240876   0.482   5.139   3.062 -0.3271  0.0377  0.5968
 6462TIP3    H140877   0.504   5.128   2.970  1.2920 -0.5713  1.0280
 6462TIP3    H240878   0.423   5.066   3.081 -0.0660 -0.2730  0.2273
 6463TIP3   OH240879   0.495   1.097  13.304  0.0895  0.1394 -0.1957
 6463TIP3    H140880   0.506   1.187  13.273 -0.7631  0.0745 -0.7246
 6463TIP3    H240881   0.425   1.104  13.369  0.1189 -0.1205 -0.1370
 6464TIP3   OH240882   5.388   3.690  16.685 -0.5347  0.5688 -0.0388
 6464TIP3    H140883   5.463   3.651  16.641 -1.8278 -0.9132 -1.0413
 6464TIP3    H240884   5.405   3.675  16.778 -0.4371 -1.5043 -0.3284
 6465TIP3   OH240885   6.346   4.664  13.996 -0.4628  0.3873  0.5400
 6465TIP3    H140886   6.412   4.596  13.980  0.8153  1.7564 -0.3353
 6465TIP3    H240887   6.302   4.637  14.076  0.8372 -0.8247  0.8811
 6466TIP3   OH240888   0.310   5.502   0.178 -0.4181  0.3024 -0.3097
 6466TIP3    H140889   0.328   5.474   0.088  0.3087 -1.8805  0.4588
 6466TIP3    H240890   0.396   5.522   0.215 -0.6013  0.1457  0.2072
 6467TIP3   OH240891   6.373   5.160  17.103  0.0194 -0.1259 -0.0075
 6467TIP3    H140892   6.352   5.092  17.168  1.7467 -0.1551  0.5705
 6467TIP3    H240893   6.454   5.130  17.062 -1.3806 -0.4577 -2.7636
 6468TIP3   OH240894   2.897   0.828   5.342 -0.2873 -0.2107 -0.0811
 6468TIP3    H140895   2.945   0.893   5.393  1.4898 -0.7869 -0.9294
 6468TIP3    H240896   2.807   0.861   5.339  0.2599  1.4504  0.7148
 6469TIP3   OH240897   5.091   4.030   4.175 -0.3439 -0.1404  0.0367
 6469TIP3    H140898   5.110   3.961   4.238  0.4545 -1.1207 -1.2302
 6469TIP3    H240899   5.020   3.997   4.121  1.0306 -0.6859 -1.5457
 6470TIP3   OH240900   1.890   6.543  17.181  0.3976 -0.0877 -0.5660
 6470TIP3    H140901   1.985   6.556  17.177  0.3997 -0.0486 -0.3849
 6470TIP3    H240902   1.865   6.521  17.091  0.3674  1.3158 -0.9198
 6471TIP3   OH240903   2.078   4.408  15.440 -0.1190 -0.1506 -0.2826
 6471TIP3    H140904   2.053   4.499  15.423  0.1738  0.3970  1.9046
 6471TIP3    H240905   2.168   4.402  15.409 -0.2613  0.1809 -0.7853
 6472TIP3   OH240906   2.972   3.537  12.804  0.2513 -0.1744 -0.2169
 6472TIP3    H140907   2.946   3.450  12.772 -0.8482  0.0778 -0.0613
 6472TIP3    H240908   3.042   3.564  12.745  1.9292 -1.9217  0.8207
 6473TIP3   OH240909   2.229   6.270   2.612  0.1517 -0.1372 -0.1252
 6473TIP3    H140910   2.290   6.244   2.681  0.1507  0.3716  0.0725
 6473TIP3    H240911   2.164   6.200   2.610  0.9585 -0.8922 -0.6229
 6474TIP3   OH240912   3.183   3.326   6.124  0.4137 -0.6797 -0.1660
 6474TIP3    H140913   3.241   3.365   6.190 -2.0054 -1.1627  2.4605
 6474TIP3    H240914   3.206   3.233   6.124 -0.5096 -0.9378  1.1498
 6475TIP3   OH240915   2.047   0.148  12.936 -0.0273 -0.1849  0.1637
 6475TIP3    H140916   1.992   0.202  12.879 -1.6904 -2.9745 -1.0557
 6475TIP3    H240917   2.082   0.080  12.878 -0.8980 -2.4991  2.1692
 6476TIP3   OH240918   5.993   6.291   2.222  0.4313 -0.1342 -0.1605
 6476TIP3    H140919   6.032   6.237   2.154 -0.0449 -1.4583  0.5858
 6476TIP3    H240920   6.021   6.380   2.202  0.4482 -0.5256 -1.9755
 6477TIP3   OH240921   0.081   6.125   2.359  0.2363  0.1761  0.2810
 6477TIP3    H140922   0.115   6.119   2.449  0.4918 -0.2568  0.1579
 6477TIP3    H240923   0.028   6.046   2.349  0.2077  0.2256  0.0495
 6478TIP3   OH240924   1.663   6.313  11.272  0.3009 -0.0055 -0.7277
 6478TIP3    H140925   1.593   6.253  11.245 -2.0756  2.2477 -0.0003
 6478TIP3    H240926   1.729   6.305  11.203  0.7489 -4.1985 -0.0933
 6479TIP3   OH240927   5.144   5.251   3.545 -0.3164  0.2407 -0.0123
 6479TIP3    H140928   5.105   5.166   3.566 -1.8723  0.6393 -1.0842
 6479TIP3    H240929   5.216   5.231   3.486 -0.3882 -0.3664  0.1051
 6480TIP3   OH240930   4.680   2.091  11.998  0.0066 -0.3887  0.1979
 6480TIP3    H140931   4.689   1.996  11.998  1.6001 -0.3347  2.8048
 6480TIP3    H240932   4.769   2.124  11.996 -0.5122  1.0562 -0.2269
 6481TIP3   OH240933   0.155   2.517  13.274  0.1290  0.3347 -0.3559
 6481TIP3    H140934   0.203   2.514  13.356  0.0089 -1.1779 -0.3100
 6481TIP3    H240935   0.063   2.505  13.298  0.1163 -0.3754 -0.7001
 6482TIP3   OH240936   2.658   1.758  12.539 -0.4141 -0.2769  0.1933
 6482TIP3    H140937   2.625   1.829  12.594 -1.0214  0.1357 -0.6795
 6482TIP3    H240938   2.600   1.758  12.462 -0.1040 -1.3791 -0.0632
 6483TIP3   OH240939   4.344   6.199  15.350  0.4289  0.2965  0.6563
 6483TIP3    H140940   4.312   6.289  15.365  0.1053  0.0801  1.3130
 6483TIP3    H240941   4.389   6.204  15.266  0.1829  1.0186  0.5526
 6484TIP3   OH240942   3.703   0.808  12.817  0.0574  0.7344 -0.1492
 6484TIP3    H140943   3.726   0.716  12.801  0.9275  0.8484  0.4054
 6484TIP3    H240944   3.693   0.845  12.729 -0.1652  0.1509 -0.3809
 6485TIP3   OH240945   4.203   1.704   3.165  0.0244  0.0322 -0.3822
 6485TIP3    H140946   4.216   1.767   3.236  0.6810  0.4332 -0.8474
 6485TIP3    H240947   4.136   1.644   3.198  0.2841  0.2403  0.5616
 6486TIP3   OH240948   0.670   5.153  15.404  0.0302  0.0207 -0.0881
 6486TIP3    H140949   0.723   5.200  15.339  0.3320 -0.3729 -0.1292
 6486TIP3    H240950   0.669   5.212  15.480  0.1007  0.2585 -0.2683
 6487TIP3   OH240951   5.761   6.678  15.716  0.0858  0.1704  0.2611
 6487TIP3    H140952   5.718   6.759  15.691 -0.8203 -0.4299 -0.1792
 6487TIP3    H240953   5.698   6.633  15.772  1.7279  1.0763  3.0704
 6488TIP3   OH240954   6.429   4.652  13.297  0.2578  0.4275  0.1487
 6488TIP3    H140955   6.348   4.626  13.341  0.8160 -0.5264  0.6605
 6488TIP3    H240956   6.448   4.739  13.330 -1.1849  1.1745 -0.8910
 6489TIP3   OH240957   3.600   3.275   3.858  1.0300  0.1669  0.0538
 6489TIP3    H140958   3.690   3.291   3.885  0.4874 -1.8802  3.7014
 6489TIP3    H240959   3.555   3.246   3.938 -2.5403 -0.2837 -1.8837
 6490TIP3   OH240960   4.849   1.236  14.384 -0.0376 -0.4890  0.2348
 6490TIP3    H140961   4.862   1.145  14.411  1.1697 -0.6740 -0.9000
 6490TIP3    H240962   4.937   1.273  14.376 -0.5000  0.7117  0.4293
 6491TIP3   OH240963   5.990   2.879   0.057  0.0252  0.3409 -0.8957
 6491TIP3    H140964   5.994   2.955  -0.000  2.1065  3.0103  2.4324
 6491TIP3    H240965   5.946   2.910   0.136  0.9873 -1.9069  0.6329
 6492TIP3   OH240966   0.509   0.660   0.349  0.1365  0.4595  0.4897
 6492TIP3    H140967   0.478   0.693   0.434 -1.0631  0.7527 -0.0368
 6492TIP3    H240968   0.478   0.569   0.345 -1.0298  0.8624 -0.1905
 6493TIP3   OH240969   0.533   0.154   0.934  0.3490  0.2504 -0.2465
 6493TIP3    H140970   0.606   0.101   0.903  0.4976 -0.0281  0.5572
 6493TIP3    H240971   0.458   0.095   0.931  0.5848 -0.1471  1.0040
 6494TIP3   OH240972   2.331   5.648  13.684  1.1389  0.2095  0.0911
 6494TIP3    H140973   2.259   5.703  13.713  2.2653  0.7306  2.1113
 6494TIP3    H240974   2.364   5.691  13.605 -2.0453 -1.2500 -2.2659
 6495TIP3   OH240975   4.050   3.567   3.473  0.4410  0.0328  0.4582
 6495TIP3    H140976   3.991   3.506   3.430  0.5673  0.5357 -0.4534
 6495TIP3    H240977   4.058   3.641   3.413  3.6946 -0.9444 -0.5303
 6496TIP3   OH240978   1.123   3.797   5.130 -0.1177 -0.0688 -0.0366
 6496TIP3    H140979   1.029   3.810   5.146  0.1257  0.3306  1.1923
 6496TIP3    H240980   1.143   3.856   5.057 -0.8042 -0.1025 -0.2604
 6497TIP3   OH240981   4.444   3.237   5.533 -0.0219 -0.0386  0.2063
 6497TIP3    H140982   4.514   3.220   5.470  1.7283  1.4834  1.6345
 6497TIP3    H240983   4.463   3.181   5.608  0.1496  0.9413  0.9199
 6498TIP3   OH240984   5.433   5.304   5.562 -0.0680  0.2886 -0.3378
 6498TIP3    H140985   5.506   5.366   5.564 -0.0769  0.4816 -2.6044
 6498TIP3    H240986   5.354   5.357   5.570 -0.0228  0.3744 -0.4605
 6499TIP3   OH240987   0.446   2.390   0.800 -0.1192  0.4844 -0.2164
 6499TIP3    H140988   0.385   2.360   0.866 -1.2756  0.1061 -1.4067
 6499TIP3    H240989   0.531   2.396   0.845 -0.2800 -2.4437  0.6202
 6500TIP3   OH240990   3.802   3.604  15.121 -0.2776 -0.3467  0.3756
 6500TIP3    H140991   3.780   3.696  15.106 -0.0753 -0.5321 -1.2922
 6500TIP3    H240992   3.897   3.601  15.119 -0.2787 -0.7798 -1.2646
 6501TIP3   OH240993   2.615   0.429   6.859  0.0513 -0.3515 -0.3090
 6501TIP3    H140994   2.604   0.465   6.771  0.1778  1.0708  0.2270
 6501TIP3    H240995   2.695   0.377   6.853 -0.1443 -0.5832 -1.1203
 6502TIP3   OH240996   6.426   3.700   4.851  0.4990  0.1581  0.4283
 6502TIP3    H140997   6.418   3.696   4.756 -0.5753  0.7021  0.4756
 6502TIP3    H240998   6.443   3.792   4.870 -1.3760  0.4684  0.8560
 6503TIP3   OH240999   6.817   6.457  12.930 -0.1479 -0.1504 -0.1556
 6503TIP3    H141000   6.781   6.453  12.842  2.2023 -2.2970 -1.1349
 6503TIP3    H241001   6.762   6.398  12.981 -1.9268  1.6069  0.0581
 6504TIP3   OH241002   6.263   6.658  12.894  0.2068 -0.4931 -0.5378
 6504TIP3    H141003   6.308   6.600  12.833  2.4512  1.8805 -1.3118
 6504TIP3    H241004   6.181   6.679  12.850 -0.3982 -2.5226 -0.4895
 6505TIP3   OH241005   3.902   6.528   2.883  0.1367 -0.6664 -0.4365
 6505TIP3    H141006   3.845   6.552   2.810 -1.1413  0.0216  0.7601
 6505TIP3    H241007   3.848   6.476   2.941 -0.0901  1.9289  1.8917
 6506TIP3   OH241008   2.438   5.465  13.863  0.1322 -0.1833 -0.8245
 6506TIP3    H141009   2.399   5.382  13.838  0.7809 -0.5935 -0.5093
 6506TIP3    H241010   2.414   5.526  13.793 -1.2115 -0.3720 -0.5424
 6507TIP3   OH241011   2.036   3.720   3.030  0.9350 -0.2640 -0.0375
 6507TIP3    H141012   1.995   3.738   3.114  1.2048 -1.8259  0.4635
 6507TIP3    H241013   1.968   3.676   2.979  1.7296 -2.2924  0.5688
 6508TIP3   OH241014   2.653   0.549   4.560  0.4106 -0.2614  0.9860
 6508TIP3    H141015   2.670   0.639   4.532 -1.9676 -0.0933 -0.1410
 6508TIP3    H241016   2.713   0.496   4.508  1.2029  0.5948  0.9985
 6509TIP3   OH241017   4.415   1.606  13.598  0.0961  0.1464 -0.0194
 6509TIP3    H141018   4.498   1.572  13.564  0.0531  0.3720 -0.3582
 6509TIP3    H241019   4.349   1.552  13.556  0.1008 -0.7241  1.0495
 6510TIP3   OH241020   3.017   0.083   1.766  0.4718  0.2259 -0.0370
 6510TIP3    H141021   3.106   0.116   1.776  0.4157  0.1433  0.7710
 6510TIP3    H241022   2.961   0.156   1.792  0.2412  0.7743 -1.8762
 6511TIP3   OH241023   4.759   6.480   4.928 -0.1033  0.3971 -0.2078
 6511TIP3    H141024   4.760   6.546   4.997 -0.5526 -0.8040  0.9886
 6511TIP3    H241025   4.839   6.429   4.943 -1.6300 -1.7292  1.3650
 6512TIP3   OH241026   3.766   5.559  13.130  0.8184  0.6167 -0.2933
 6512TIP3    H141027   3.753   5.652  13.144  0.0946  0.7993 -1.9285
 6512TIP3    H241028   3.820   5.553  13.051  0.8068 -0.3460 -0.2468
 6513TIP3   OH241029   2.624   6.465   2.815  0.1744 -0.2703  0.4888
 6513TIP3    H141030   2.607   6.420   2.898 -0.3038 -0.5597  0.2424
 6513TIP3    H241031   2.571   6.545   2.821  0.3845 -0.1391  0.5915
 6514TIP3   OH241032   2.069   4.643  14.646 -0.4602  0.2282 -0.0355
 6514TIP3    H141033   1.989   4.647  14.698 -0.6136 -0.0506 -0.2464
 6514TIP3    H241034   2.098   4.552  14.655 -1.0003 -0.0771 -1.1918
 6515TIP3   OH241035   1.499   2.355  12.917 -0.2999  0.1405 -0.3001
 6515TIP3    H141036   1.531   2.375  12.829  0.3454  3.5608  0.5694
 6515TIP3    H241037   1.572   2.312  12.961  0.5534  1.3286 -0.5179
 6516TIP3   OH241038   6.556   1.555   5.418 -0.5239 -0.1487 -0.3252
 6516TIP3    H141039   6.479   1.611   5.423 -0.1601  0.3517 -0.3315
 6516TIP3    H241040   6.521   1.466   5.422 -1.1572  0.0623 -1.0300
 6517TIP3   OH241041   5.731   2.234   4.986  0.2971  0.2136 -0.0759
 6517TIP3    H141042   5.803   2.202   4.932 -0.4204  0.2853 -1.1116
 6517TIP3    H241043   5.745   2.329   4.990 -1.0500  0.6058 -2.3996
 6518TIP3   OH241044   4.779   5.747  16.538  0.0005 -0.1659  0.3605
 6518TIP3    H141045   4.700   5.729  16.590 -0.3487  2.0145  0.6942
 6518TIP3    H241046   4.749   5.746  16.447 -0.1112 -0.6630  0.3987
 6519TIP3   OH241047   3.871   5.083  16.947 -0.0126  0.2589 -0.2569
 6519TIP3    H141048   3.888   5.055  16.857 -0.2726  0.7948 -0.4776
 6519TIP3    H241049   3.812   5.017  16.982 -1.4116  1.0370 -1.0857
 6520TIP3   OH241050   6.403   1.465  12.363  0.5324 -0.1082  0.0964
 6520TIP3    H141051   6.489   1.425  12.374  0.0949 -2.4484 -3.3233
 6520TIP3    H241052   6.342   1.399  12.395 -0.0494 -0.5312 -1.7315
 6521TIP3   OH241053   4.099   3.369   0.433  0.0926 -0.0419 -0.0772
 6521TIP3    H141054   4.095   3.354   0.339 -1.4135 -1.6338  0.2153
 6521TIP3    H241055   4.115   3.464   0.441 -1.1237  0.3676 -1.9161
 6522TIP3   OH241056   0.781   2.994   3.371  0.2634  0.6519 -0.3380
 6522TIP3    H141057   0.730   2.982   3.451  0.2202 -0.4388 -0.5110
 6522TIP3    H241058   0.756   3.081   3.339  0.3826  1.1663  0.8939
 6523TIP3   OH241059   6.515   0.981  16.408 -0.5545 -0.0245  0.1008
 6523TIP3    H141060   6.575   1.025  16.348 -0.1579  3.0393  2.4578
 6523TIP3    H241061   6.571   0.947  16.477 -1.1378 -2.0461 -0.3545
 6524TIP3   OH241062   5.858   5.307  11.209 -0.0181  0.3760  0.5785
 6524TIP3    H141063   5.868   5.260  11.126 -1.0041  1.9570 -0.4890
 6524TIP3    H241064   5.911   5.257  11.271  0.4834 -1.0416 -0.9155
 6525TIP3   OH241065   3.829   5.130  14.330 -0.0354 -0.4425  0.5034
 6525TIP3    H141066   3.861   5.134  14.240  0.9372  1.0096  0.8840
 6525TIP3    H241067   3.889   5.069  14.373  0.2449 -0.2107  0.4457
 6526TIP3   OH241068   0.721   4.171  16.792  0.0916 -0.0568 -0.0736
 6526TIP3    H141069   0.778   4.243  16.765  1.2263 -0.7468  0.4179
 6526TIP3    H241070   0.731   4.168  16.887 -0.2680 -0.6091 -0.0501
 6527TIP3   OH241071   3.692   4.859  14.503  0.5919 -0.1005 -0.1937
 6527TIP3    H141072   3.648   4.943  14.510 -0.3584 -0.5456 -0.7245
 6527TIP3    H241073   3.719   4.852  14.412  1.4899  0.0271  0.0532
 6528TIP3   OH241074   2.659   0.987  11.449  0.2189 -0.1215  0.4653
 6528TIP3    H141075   2.739   1.026  11.486 -0.2174 -1.2815  2.8468
 6528TIP3    H241076   2.589   1.045  11.479  0.0065  0.0127 -0.2725
 6529TIP3   OH241077   1.191   5.175  12.679  1.1706  0.1234  0.2714
 6529TIP3    H141078   1.239   5.245  12.723  0.6913  0.1213  0.8021
 6529TIP3    H241079   1.258   5.109  12.660  1.5383  0.5165  0.1889
 6530TIP3   OH241080   5.982   0.793  11.267  0.5674 -0.4673  0.9654
 6530TIP3    H141081   5.978   0.749  11.182 -1.3276 -0.5163  1.0451
 6530TIP3    H241082   5.963   0.724  11.330  1.7466 -0.3818  1.4369
 6531TIP3   OH241083   2.326   6.603  16.677 -0.1037 -0.1719  0.1417
 6531TIP3    H141084   2.302   6.521  16.635 -0.1440  0.2992 -0.7873
 6531TIP3    H241085   2.257   6.619  16.741 -1.8289  0.6777 -1.8185
 6532TIP3   OH241086   4.472   0.463  16.873 -0.2401  0.0249 -0.4258
 6532TIP3    H141087   4.437   0.543  16.913 -0.2401 -0.2791  0.1838
 6532TIP3    H241088   4.521   0.420  16.943 -1.8389 -1.4971 -0.1696
 6533TIP3   OH241089   2.297   6.068  16.498 -0.1442  0.2403 -0.3750
 6533TIP3    H141090   2.377   6.060  16.447 -0.5161  1.6532 -1.2215
 6533TIP3    H241091   2.227   6.071  16.433 -1.0061 -1.9129  0.3765
 6534TIP3   OH241092   4.789   5.094   2.800 -0.2108  0.5580 -0.1911
 6534TIP3    H141093   4.766   5.122   2.889 -0.8553  0.5692 -0.3581
 6534TIP3    H241094   4.783   4.999   2.802  0.4218  0.5186 -0.0487
 6535TIP3   OH241095   1.506   6.135   2.930  0.3077  0.5574  0.2556
 6535TIP3    H141096   1.542   6.214   2.890  1.6168  0.2824  0.8406
 6535TIP3    H241097   1.554   6.126   3.012  0.3242 -0.9539  0.1024
 6536TIP3   OH241098   1.253   3.551   2.748 -0.0570 -0.1435 -0.0352
 6536TIP3    H141099   1.336   3.526   2.789  0.9472  0.7810 -1.4219
 6536TIP3    H241100   1.249   3.499   2.668  0.5883  1.7580 -1.3955
 6537TIP3   OH241101   6.005   5.994   0.042  0.0080 -0.1932  0.2012
 6537TIP3    H141102   5.941   5.960  -0.020 -1.7856  0.5686  1.5498
 6537TIP3    H241103   6.052   6.061  -0.007 -0.2262 -0.7544 -0.8207
 6538TIP3   OH241104   0.520   2.391   0.493  0.0597  0.7673  0.2318
 6538TIP3    H141105   0.469   2.332   0.438  0.8463 -0.3066  0.6300
 6538TIP3    H241106   0.497   2.367   0.583  1.0213  0.4602  0.4140
 6539TIP3   OH241107   6.158   0.316  16.085  0.5939  0.1342 -0.2881
 6539TIP3    H141108   6.106   0.253  16.035  1.0654 -0.2043 -0.3570
 6539TIP3    H241109   6.233   0.266  16.117  3.6551  1.5667 -4.3036
 6540TIP3   OH241110   3.448   4.758   3.749  0.2408  0.1967 -0.7045
 6540TIP3    H141111   3.490   4.752   3.663 -0.5414  0.5948 -1.1300
 6540TIP3    H241112   3.436   4.668   3.777  1.5706  0.0727 -0.4659
 6541TIP3   OH241113   4.851   0.763  15.190 -0.1680  0.0933  0.2454
 6541TIP3    H141114   4.844   0.674  15.156 -2.5124 -0.7369  2.5519
 6541TIP3    H241115   4.928   0.761  15.247  0.1215 -0.2787 -0.1525
 6542TIP3   OH241116   1.132   0.932  17.165 -0.5398  0.0041  0.3086
 6542TIP3    H141117   1.221   0.966  17.156 -0.4113 -0.7626 -1.6556
 6542TIP3    H241118   1.142   0.837  17.154 -1.7006  0.0034 -0.9510
 6543TIP3   OH241119   1.039   4.127  12.697 -0.3444 -0.2227  0.0330
 6543TIP3    H141120   1.062   4.125  12.604 -0.5111  1.0475 -0.0597
 6543TIP3    H241121   0.997   4.212  12.709 -1.2761 -0.8030  1.0601
 6544TIP3   OH241122   4.179   3.881  14.175  0.1591 -0.1415  0.2250
 6544TIP3    H141123   4.129   3.927  14.243  1.2714 -0.4415  1.2972
 6544TIP3    H241124   4.263   3.927  14.171 -0.3520  0.6868 -1.9286
 6545TIP3   OH241125   0.291   1.307   0.299  0.1424  0.2503  0.5226
 6545TIP3    H141126   0.230   1.366   0.256  0.3601  0.2953  0.2707
 6545TIP3    H241127   0.322   1.249   0.230  1.9553  1.5413  0.1701
 6546TIP3   OH241128   2.084   0.213  13.841 -0.3395 -0.1695  0.8411
 6546TIP3    H141129   2.174   0.242  13.825 -0.9734  2.5062  1.4781
 6546TIP3    H241130   2.075   0.218  13.936 -0.8749 -1.4201  0.8600
 6547TIP3   OH241131   0.579   2.120   1.643  0.3105 -0.6355 -0.1498
 6547TIP3    H141132   0.616   2.204   1.616  2.6144 -1.2275  0.9477
 6547TIP3    H241133   0.558   2.132   1.735 -1.3791 -0.6470 -0.5040
 6548TIP3   OH241134   2.616   3.909  16.912  0.3044 -0.3510  0.0912
 6548TIP3    H141135   2.690   3.893  16.970 -0.9390 -2.2922  1.2621
 6548TIP3    H241136   2.584   3.996  16.936  1.6160  0.1254  0.1914
 6549TIP3   OH241137   2.354   4.387   1.130 -0.4379  0.2932 -1.0364
 6549TIP3    H141138   2.269   4.403   1.090  0.0218  1.4524 -1.5991
 6549TIP3    H241139   2.366   4.292   1.124 -2.1300 -0.0352  0.0007
 6550TIP3   OH241140   6.187   6.213  12.380 -0.3209  0.0399  0.1738
 6550TIP3    H141141   6.165   6.192  12.471 -0.0894 -2.6480 -0.2941
 6550TIP3    H241142   6.253   6.147  12.356  0.7796  1.6600 -1.4832
 6551TIP3   OH241143   0.429   0.247  13.289 -0.1547  0.6540 -0.2435
 6551TIP3    H141144   0.479   0.327  13.299 -0.2668  0.6625  0.2949
 6551TIP3    H241145   0.443   0.200  13.371  0.3919 -0.1561 -0.7773
 6552TIP3   OH241146   4.632   0.925   1.405 -0.0553 -0.7067  0.4173
 6552TIP3    H141147   4.676   0.910   1.489 -1.9184 -1.8420  1.2470
 6552TIP3    H241148   4.552   0.874   1.410 -0.0039 -1.2101 -2.2840
 6553TIP3   OH241149   1.036   1.031   0.711  0.0028  0.0394 -0.1296
 6553TIP3    H141150   0.964   0.991   0.661 -0.7215  0.5820  0.4600
 6553TIP3    H241151   1.034   1.124   0.686  0.9880 -0.0714 -0.6744
 6554TIP3   OH241152   0.640   4.844  13.770  0.4390  0.0129  0.1980
 6554TIP3    H141153   0.685   4.929  13.777 -0.7724  0.5675  2.4995
 6554TIP3    H241154   0.702   4.781  13.807  0.5764  0.2313  0.3433
 6555TIP3   OH241155   4.957   0.540  14.181  0.6241 -0.3174  0.1628
 6555TIP3    H141156   4.975   0.614  14.240  1.8573 -1.5540  1.4318
 6555TIP3    H241157   4.996   0.566  14.098  0.0386  0.9133  0.2503
 6556TIP3   OH241158   5.264   2.824   5.068  0.1625 -0.3005  0.3967
 6556TIP3    H141159   5.282   2.917   5.081 -0.8636 -0.1636  0.9057
 6556TIP3    H241160   5.350   2.782   5.070  0.5827  0.5693  0.7565
 6557TIP3   OH241161   5.208   1.201  13.580  0.8829  0.4265 -0.1983
 6557TIP3    H141162   5.144   1.260  13.540 -0.3812 -0.4923  0.3921
 6557TIP3    H241163   5.232   1.243  13.662  0.3458  0.3517 -0.0008
 6558TIP3   OH241164   1.774   2.693   5.639  0.1820  0.0201  0.9121
 6558TIP3    H141165   1.787   2.778   5.597  0.9652  0.2003  1.5045
 6558TIP3    H241166   1.684   2.669   5.615  0.5418  0.1709 -0.7437
 6559TIP3   OH241167   5.252   6.415   4.825  0.1907 -0.3676 -0.3470
 6559TIP3    H141168   5.301   6.342   4.787  0.8731 -0.1876  0.1779
 6559TIP3    H241169   5.289   6.426   4.912  0.3846  0.8905 -0.5839
 6560TIP3   OH241170   0.578   2.982   0.305  0.6077  0.7448 -0.5416
 6560TIP3    H141171   0.630   3.062   0.314  0.6419  0.5506  1.3077
 6560TIP3    H241172   0.500   2.997   0.358  0.8285 -0.6183  0.2059
 6561TIP3   OH241173   6.509   5.946   1.361  0.2535  0.1397  0.0142
 6561TIP3    H141174   6.418   5.953   1.389  0.4972  0.3694  0.7827
 6561TIP3    H241175   6.559   5.988   1.431  1.0585 -1.2088  0.2919
 6562TIP3   OH241176   6.251   5.609   3.292 -0.0278  0.1421 -0.5443
 6562TIP3    H141177   6.302   5.580   3.367 -0.1410 -0.0125 -0.5273
 6562TIP3    H241178   6.161   5.613   3.324  0.2477  2.7156  0.1307
 6563TIP3   OH241179   3.804   4.633  13.010  0.4588  0.1092 -0.0023
 6563TIP3    H141180   3.797   4.541  12.985 -0.4730 -0.2177  1.3198
 6563TIP3    H241181   3.793   4.682  12.928 -0.6219 -0.9272 -0.5023
 6564TIP3   OH241182   6.637   1.112  15.473  0.2994  0.2752  0.7152
 6564TIP3    H141183   6.551   1.130  15.511 -0.4747  2.0585 -1.6475
 6564TIP3    H241184   6.618   1.068  15.390  1.7571 -0.5622  0.7865
 6565TIP3   OH241185   3.003   2.979   1.747  0.5632 -0.4439  0.4075
 6565TIP3    H141186   3.046   3.044   1.802  2.1490 -0.3582 -0.8687
 6565TIP3    H241187   2.909   2.992   1.764  0.9325  0.7393  1.7415
 6566TIP3   OH241188   3.031   4.186  11.644  0.8101 -0.4425 -0.3533
 6566TIP3    H141189   3.004   4.184  11.735  1.5687  0.1808 -0.1047
 6566TIP3    H241190   3.065   4.098  11.627 -0.4726 -0.9488 -0.4116
 6567TIP3   OH241191   2.925   6.451  13.093  0.2874 -0.3944  0.3573
 6567TIP3    H141192   2.930   6.518  13.162 -1.8203  1.4438 -1.1218
 6567TIP3    H241193   2.867   6.384  13.130 -1.4366  0.9301  0.2105
 6568TIP3   OH241194   2.890   3.704  16.864  0.0542  0.3105  0.2791
 6568TIP3    H141195   2.857   3.651  16.937 -0.4034  1.4966  0.9640
 6568TIP3    H241196   2.851   3.666  16.786  0.4421 -0.9005  0.6557
 6569TIP3   OH241197   3.320   4.882  13.524 -0.3157 -0.3689 -0.4217
 6569TIP3    H141198   3.226   4.881  13.546 -0.1521 -0.8545  0.2886
 6569TIP3    H241199   3.364   4.883  13.609  0.3296  0.8003 -0.7504
 6570TIP3   OH241200   3.114   4.528  12.918 -0.4991 -0.2392 -0.2646
 6570TIP3    H141201   3.042   4.589  12.903  0.0597  0.6081  0.4522
 6570TIP3    H241202   3.181   4.579  12.963  0.9983 -0.7288 -1.8051
 6571TIP3   OH241203   0.950   2.586   5.212  0.3844 -0.4277 -0.4244
 6571TIP3    H141204   0.951   2.648   5.139 -0.9036  0.0172 -0.0857
 6571TIP3    H241205   1.038   2.548   5.212  0.5935  0.0070 -1.8183
 6572TIP3   OH241206   3.759   2.926   0.367 -0.3948  0.5256 -0.1761
 6572TIP3    H141207   3.808   2.854   0.406 -0.6934  0.4668  0.0952
 6572TIP3    H241208   3.814   2.957   0.295 -1.0136 -1.1260 -1.4493
 6573TIP3   OH241209   3.212   0.390  13.407  0.3380  0.6507 -0.0089
 6573TIP3    H141210   3.271   0.396  13.482  1.8228  2.9008 -1.2316
 6573TIP3    H241211   3.154   0.317  13.427  0.6253  1.1851  3.3583
 6574TIP3   OH241212   1.230   4.100  11.675 -0.3332  0.5458 -0.3750
 6574TIP3    H141213   1.301   4.094  11.739 -0.0276 -0.2041 -0.7757
 6574TIP3    H241214   1.181   4.018  11.686  0.0522  0.1596 -1.4788
 6575TIP3   OH241215   2.033   6.643  15.077 -0.2738  0.1473  0.0687
 6575TIP3    H141216   2.104   6.581  15.095 -2.2018 -1.9089  1.0961
 6575TIP3    H241217   2.054   6.720  15.130  0.1407 -1.2718  2.0799
 6576TIP3   OH241218   4.525   6.426   2.207 -0.1741 -0.2386 -0.1982
 6576TIP3    H141219   4.572   6.509   2.203 -0.3683 -0.1578 -2.4968
 6576TIP3    H241220   4.591   6.362   2.232  0.7475  0.1753 -1.4623
 6577TIP3   OH241221   1.300   4.941  13.585  0.1844 -0.2731  0.1808
 6577TIP3    H141222   1.291   4.907  13.496 -0.8350  0.2169  0.0828
 6577TIP3    H241223   1.369   5.007  13.578  0.5376 -0.6639 -0.1073
 6578TIP3   OH241224   4.045   6.156  15.668  0.6871 -0.7095  0.7584
 6578TIP3    H141225   3.983   6.200  15.609  1.2533 -0.7751  0.0981
 6578TIP3    H241226   4.075   6.225  15.728  2.1509  0.0425 -0.7499
 6579TIP3   OH241227   0.964   5.551   5.622 -0.2481 -0.8284 -0.3219
 6579TIP3    H141228   1.026   5.623   5.614 -0.4160 -0.5624  0.6232
 6579TIP3    H241229   1.005   5.492   5.686  0.1371 -1.8529 -1.4681
 6580TIP3   OH241230   6.686   0.981   4.651  0.5011  0.0366 -1.0044
 6580TIP3    H141231   6.633   1.001   4.728  2.3540 -0.1235  0.3878
 6580TIP3    H241232   6.776   0.993   4.680  1.3680 -2.0975 -2.5401
 6581TIP3   OH241233   6.156   0.593   6.064 -0.7288 -0.1646  0.3563
 6581TIP3    H141234   6.222   0.523   6.066 -0.7424 -0.1649  1.0244
 6581TIP3    H241235   6.201   0.669   6.101 -0.7468  0.1582 -0.2726
 6582TIP3   OH241236   0.044   4.709   2.836  0.1956 -0.2174  0.8838
 6582TIP3    H141237   0.140   4.714   2.833  0.1764 -0.0255  0.5628
 6582TIP3    H241238   0.023   4.618   2.816  0.3362 -0.4238  1.6289
 6583TIP3   OH241239   1.332   0.280  16.581 -0.0596 -0.3818 -0.5754
 6583TIP3    H141240   1.305   0.234  16.502 -1.4315  0.7386 -0.7970
 6583TIP3    H241241   1.390   0.219  16.626 -0.2923 -1.5416 -1.8094
 6584TIP3   OH241242   2.052   6.554   1.214 -0.0951  0.3063  0.4433
 6584TIP3    H141243   2.109   6.622   1.250 -1.5614  0.6322  2.2886
 6584TIP3    H241244   1.967   6.596   1.204 -0.5351 -0.7093 -0.3076
 6585TIP3   OH241245   1.492   2.599   1.559  0.5211 -0.1987 -0.5189
 6585TIP3    H141246   1.397   2.608   1.551  0.7964  2.0704 -1.9910
 6585TIP3    H241247   1.522   2.575   1.472  1.1985 -2.9513  0.3700
 6586TIP3   OH241248   0.880   4.058   2.374  0.4232  0.0556  0.6592
 6586TIP3    H141249   0.963   4.067   2.420  0.0468  0.1450  1.3437
 6586TIP3    H241250   0.888   4.115   2.298  2.1569 -2.2635 -1.0339
 6587TIP3   OH241251   6.301   1.373  10.265  0.1282  0.5132 -0.7500
 6587TIP3    H141252   6.260   1.386  10.350  0.7464  0.8746 -0.5024
 6587TIP3    H241253   6.328   1.281  10.266 -0.3418  0.3734 -0.7697
 6588TIP3   OH241254   2.936   1.754   5.234  0.1136  0.5626  0.4106
 6588TIP3    H141255   2.886   1.722   5.309  0.7900 -2.0353 -0.1254
 6588TIP3    H241256   2.992   1.680   5.210  0.5825  1.6270 -2.0729
 6589TIP3   OH241257   0.747   4.318  15.872 -0.1079 -0.8002  0.2813
 6589TIP3    H141258   0.708   4.404  15.855  2.2319  0.2009 -0.4364
 6589TIP3    H241259   0.704   4.260  15.810 -1.1768 -0.0011  0.2358
 6590TIP3   OH241260   6.332   4.279   1.397  0.3258  0.5761 -0.2286
 6590TIP3    H141261   6.293   4.201   1.438 -2.4380  1.4383 -0.9631
 6590TIP3    H241262   6.383   4.244   1.324 -0.9067 -0.6012 -0.5794
 6591TIP3   OH241263   4.835   2.154  17.218  0.5532  0.4438  0.0396
 6591TIP3    H141264   4.748   2.119  17.237 -0.4286  2.4586 -0.4498
 6591TIP3    H241265   4.887   2.135  17.296 -0.2708 -0.8708  0.2991
 6592TIP3   OH241266   2.865   1.915  16.359 -0.0609 -0.1173  0.6806
 6592TIP3    H141267   2.774   1.928  16.384  0.1324  2.0466  0.4047
 6592TIP3    H241268   2.916   1.956  16.428  0.7002 -0.7975  0.5422
 6593TIP3   OH241269   2.862   6.579  17.044  0.1338  0.4291 -0.3954
 6593TIP3    H141270   2.920   6.637  16.995  1.4282 -0.7629 -0.3336
 6593TIP3    H241271   2.782   6.575  16.991  0.2286  1.8075 -0.6712
 6594TIP3   OH241272   2.437   1.218  15.061 -0.4797  0.4082 -0.6285
 6594TIP3    H141273   2.401   1.292  15.110 -1.4762 -0.9440  0.7485
 6594TIP3    H241274   2.513   1.190  15.112 -2.2916 -1.8544  1.0264
 6595TIP3   OH241275   3.609   1.044   1.286 -0.1314 -0.0929 -0.2824
 6595TIP3    H141276   3.559   0.996   1.220 -1.0382 -2.4341  1.9672
 6595TIP3    H241277   3.554   1.119   1.307 -2.4049 -2.0702  1.3988
 6596TIP3   OH241278   1.858   2.772   0.929  0.5659  0.1544  0.6107
 6596TIP3    H141279   1.838   2.821   0.850  0.3981 -2.7484 -1.2945
 6596TIP3    H241280   1.935   2.720   0.906  0.0964 -1.2874  2.1220
 6597TIP3   OH241281   2.144   2.131  11.431 -0.0531 -0.2443  0.5539
 6597TIP3    H141282   2.100   2.109  11.348 -2.8235 -0.7212  2.0243
 6597TIP3    H241283   2.233   2.156  11.405 -0.2934 -1.9382 -2.3949
 6598TIP3   OH241284   2.443   0.654   2.511 -0.8629  0.3106  0.5621
 6598TIP3    H141285   2.390   0.679   2.587 -1.1432 -1.0552  0.8506
 6598TIP3    H241286   2.387   0.673   2.436 -0.7677  1.2288  0.7140
 6599TIP3   OH241287   2.057   2.640  12.359  0.0344  0.4713 -0.2070
 6599TIP3    H141288   2.056   2.663  12.266  2.0160  4.0961  0.4748
 6599TIP3    H241289   2.132   2.582  12.368 -0.4992 -0.3481 -0.9229
 6600TIP3   OH241290   2.008   5.167  15.591  0.0665 -0.3204 -0.0221
 6600TIP3    H141291   1.926   5.150  15.544 -0.1932 -0.6866  0.5381
 6600TIP3    H241292   2.068   5.201  15.525 -0.4418 -0.3537 -0.5072
 6601TIP3   OH241293   5.055   1.445   4.033 -0.1420 -0.3166 -0.1518
 6601TIP3    H141294   4.963   1.420   4.021  0.2002 -1.1118 -1.3231
 6601TIP3    H241295   5.099   1.362   4.051  0.4751 -0.0606 -0.4686
 6602TIP3   OH241296   3.031   0.034   0.863  1.0330  0.5972 -0.0178
 6602TIP3    H141297   3.007   0.003   0.775  1.2114  0.7719 -0.1280
 6602TIP3    H241298   3.036  -0.046   0.915  0.8335  0.4995 -0.1426
 6603TIP3   OH241299   6.413   3.184   3.229 -0.0291  0.1191  0.1630
 6603TIP3    H141300   6.383   3.274   3.239  1.8050  0.6544  1.3026
 6603TIP3    H241301   6.508   3.189   3.234  0.1506 -1.8406 -0.1932
 6604TIP3   OH241302   3.048   4.746   5.203 -0.2129  0.1359 -0.5872
 6604TIP3    H141303   3.094   4.817   5.159 -1.2484  0.8597 -0.5404
 6604TIP3    H241304   3.099   4.731   5.283  1.3370 -0.7899 -1.7131
 6605TIP3   OH241305   2.459   4.210   1.903  0.8420 -0.3173 -0.3976
 6605TIP3    H141306   2.381   4.265   1.907  0.5592 -0.7829  0.8566
 6605TIP3    H241307   2.467   4.186   1.810  0.9796  1.7990 -0.9663
 6606TIP3   OH241308   0.427   2.514  15.008  0.1279 -0.1040 -0.3643
 6606TIP3    H141309   0.478   2.567  15.069 -0.4798 -0.4944  0.4961
 6606TIP3    H241310   0.469   2.529  14.923 -0.0083  1.7382 -0.1543
 6607TIP3   OH241311   6.582   1.043   3.776  0.1456  0.1204  0.3810
 6607TIP3    H141312   6.609   1.004   3.692  0.2868  0.1002  0.4370
 6607TIP3    H241313   6.640   1.004   3.841  0.1555  0.2745  0.4654
 6608TIP3   OH241314   3.852   2.219  15.020  0.0759  0.0609  0.1861
 6608TIP3    H141315   3.831   2.276  15.094  0.5333  3.2793 -1.9643
 6608TIP3    H241316   3.941   2.189  15.039  0.0761  0.5743  1.1068
 6609TIP3   OH241317   0.888   1.020   2.437  0.0328 -0.0200 -0.3477
 6609TIP3    H141318   0.934   0.981   2.363  0.8145 -0.6949  0.4672
 6609TIP3    H241319   0.835   1.089   2.399 -2.6896 -2.8404 -2.1051
 6610TIP3   OH241320   1.382   1.799  15.793 -0.4383  0.0843  0.5419
 6610TIP3    H141321   1.349   1.710  15.790  0.8168 -0.3873 -0.1399
 6610TIP3    H241322   1.350   1.840  15.712  1.8014 -0.8475 -0.9166
 6611TIP3   OH241323   1.786   5.146  15.410  0.4099  0.8485  0.3011
 6611TIP3    H141324   1.742   5.075  15.458  0.2205 -0.7298 -2.0648
 6611TIP3    H241325   1.720   5.216  15.406 -0.0460  0.4892  1.1409
 6612TIP3   OH241326   3.545   5.118   1.246 -0.0232 -0.4688 -0.3749
 6612TIP3    H141327   3.514   5.168   1.321  0.2527 -2.5130  1.1972
 6612TIP3    H241328   3.486   5.042   1.242 -1.3895  0.5861 -3.5826
 6613TIP3   OH241329   5.503   2.568   3.298 -0.1805 -0.4863 -0.1469
 6613TIP3    H141330   5.582   2.514   3.310  0.7317  0.0704 -2.9156
 6613TIP3    H241331   5.433   2.518   3.339  0.9132 -3.0062 -1.1618
 6614TIP3   OH241332   2.779   5.822  16.232 -0.2050  0.0881 -0.0391
 6614TIP3    H141333   2.705   5.865  16.188  0.5126  1.4285  0.0218
 6614TIP3    H241334   2.757   5.828  16.325  0.1863  0.9227  0.0106
 6615TIP3   OH241335   1.413   2.330  17.154  0.1578 -0.3262 -0.4734
 6615TIP3    H141336   1.504   2.300  17.150 -0.5078 -2.4310 -1.5790
 6615TIP3    H241337   1.404   2.389  17.079  0.4731 -0.5423 -0.6851
 6616TIP3   OH241338   0.364   3.160  14.147 -0.8168  0.4540  0.3831
 6616TIP3    H141339   0.274   3.185  14.169 -1.5951 -0.6089 -1.4045
 6616TIP3    H241340   0.381   3.083  14.201 -0.8256  0.8755  1.0018
 6617TIP3   OH241341   0.308   0.736  14.757 -0.2451 -0.0912  0.1583
 6617TIP3    H141342   0.367   0.673  14.798  1.3185 -0.5412 -2.5703
 6617TIP3    H241343   0.354   0.819  14.762  1.2066 -0.6024 -2.7807
 6618TIP3   OH241344   6.386   4.348   3.977  0.4902  0.1135  0.2373
 6618TIP3    H141345   6.296   4.340   3.945 -0.0837  0.2757  1.7236
 6618TIP3    H241346   6.437   4.294   3.917 -0.4217  0.8608 -1.2669
 6619TIP3   OH241347   3.926   3.420  16.809 -0.0643  0.1569  0.5081
 6619TIP3    H141348   3.986   3.458  16.745 -1.2463  0.5916 -0.3656
 6619TIP3    H241349   3.839   3.439  16.776 -0.7162  0.0384  2.0558
 6620TIP3   OH241350   3.019   4.376   0.395  0.1050  0.2682  0.7196
 6620TIP3    H141351   2.953   4.399   0.329  0.5560  1.0531  0.5369
 6620TIP3    H241352   2.982   4.408   0.477  0.1505  0.4965  0.6520
 6621TIP3   OH241353   3.402   0.666  16.826 -0.6838 -0.2132  0.3663
 6621TIP3    H141354   3.312   0.664  16.860 -0.0754  1.3146  2.2563
 6621TIP3    H241355   3.424   0.759  16.821 -0.1604 -0.3889 -2.9727
 6622TIP3   OH241356   6.693   6.747  16.130 -0.0215 -0.5097  0.0764
 6622TIP3    H141357   6.622   6.781  16.076 -0.6613 -0.6781  0.7959
 6622TIP3    H241358   6.683   6.652  16.126  0.2145 -0.5373  0.1199
 6623TIP3   OH241359   0.081   5.049  13.163 -0.6458 -0.5213 -0.4146
 6623TIP3    H141360   0.061   5.056  13.256  0.6815 -0.2347 -0.1270
 6623TIP3    H241361   0.058   4.958  13.141  1.3207 -1.3835  0.8113
 6624TIP3   OH241362   1.306   5.001  13.855 -0.2943 -0.5590  0.5181
 6624TIP3    H141363   1.310   5.088  13.815  2.1965 -1.1422 -0.7110
 6624TIP3    H241364   1.266   4.946  13.788 -1.0765 -0.5510  0.9656
 6625TIP3   OH241365   2.780   3.572   0.116  0.2868 -0.5691  0.3935
 6625TIP3    H141366   2.723   3.530   0.052 -1.1936  0.3763  1.0403
 6625TIP3    H241367   2.749   3.539   0.200 -1.5651  2.3936  1.0148
 6626TIP3   OH241368   1.287   5.569  13.334 -0.0216 -0.0953 -0.1641
 6626TIP3    H141369   1.230   5.535  13.403 -0.7962  1.5174  0.0508
 6626TIP3    H241370   1.284   5.664  13.346 -1.0913  0.3442 -3.0864
 6627TIP3   OH241371   0.048   2.375   2.635 -0.3859 -0.0480 -0.3529
 6627TIP3    H141372   0.059   2.314   2.708  3.4129 -1.3039 -1.7476
 6627TIP3    H241373  -0.032   2.346   2.591 -1.9804 -0.1319  2.3502
 6628TIP3   OH241374   1.473   3.635  14.814  0.1858  0.3886  0.4396
 6628TIP3    H141375   1.564   3.663  14.810  0.2770  0.2853  1.4409
 6628TIP3    H241376   1.430   3.701  14.868  0.0784 -0.5276  1.5336
 6629TIP3   OH241377   1.222   5.055  16.721 -0.0332  0.1563 -0.1173
 6629TIP3    H141378   1.303   5.087  16.761  0.0023 -2.0391  1.7617
 6629TIP3    H241379   1.230   5.081  16.629  0.7670  3.7613  0.7994
 6630TIP3   OH241380   4.284   5.329   6.652  0.6255  0.1635 -0.7584
 6630TIP3    H141381   4.313   5.272   6.581 -1.3330 -1.0686 -0.6493
 6630TIP3    H241382   4.352   5.321   6.719  1.1873 -0.7476 -1.4179
 6631TIP3   OH241383   1.689   2.400  16.753 -0.2797 -0.9641 -0.8906
 6631TIP3    H141384   1.778   2.426  16.778 -1.1388  1.6443 -0.2728
 6631TIP3    H241385   1.681   2.309  16.784  1.8915 -0.9938 -0.2836
 6632TIP3   OH241386   3.978   0.986  12.797  0.6252  0.2156 -0.1663
 6632TIP3    H141387   4.040   1.059  12.804  0.8900  0.0077 -0.3095
 6632TIP3    H241388   3.989   0.938  12.880 -0.4483  1.0332  0.4706
 6633TIP3   OH241389   2.524   1.838   6.150 -0.1461  0.3364 -0.4614
 6633TIP3    H141390   2.453   1.900   6.168 -0.5453  0.2451 -1.6225
 6633TIP3    H241391   2.572   1.832   6.232 -1.2157  0.7551  0.2244
 6634TIP3   OH241392   6.456   4.950  10.254 -0.3816 -1.1604 -0.3400
 6634TIP3    H141393   6.380   4.916  10.302  0.0309 -0.1270  1.1381
 6634TIP3    H241394   6.523   4.961  10.322 -0.0500  1.2165 -0.9662
 6635TIP3   OH241395   4.149   1.285  12.558  0.2294  0.0086 -0.5598
 6635TIP3    H141396   4.114   1.326  12.638 -0.2590  1.8220 -1.6464
 6635TIP3    H241397   4.242   1.305  12.560  0.0618  0.8851 -0.8776
 6636TIP3   OH241398   6.775   2.515   0.465  0.3175 -1.3802  0.4161
 6636TIP3    H141399   6.862   2.477   0.464  1.1147  0.3282 -0.0813
 6636TIP3    H241400   6.790   2.610   0.459 -1.5632 -1.0310  0.4219
 6637TIP3   OH241401   6.347   3.390  15.859 -0.5413 -0.3407  0.1327
 6637TIP3    H141402   6.293   3.431  15.791  1.5770 -1.8689 -2.6574
 6637TIP3    H241403   6.420   3.450  15.872  0.3495 -1.1716 -0.8401
 6638TIP3   OH241404   2.332   5.235   3.630 -0.0920  0.2191  0.0663
 6638TIP3    H141405   2.387   5.191   3.695  0.0583 -0.4249 -0.4841
 6638TIP3    H241406   2.256   5.179   3.620 -0.1389  0.3384 -0.2722
 6639TIP3   OH241407   0.011   4.641   3.252  0.3714 -0.0868 -0.1211
 6639TIP3    H141408   0.062   4.598   3.183 -0.5965 -0.2375 -0.7750
 6639TIP3    H241409  -0.024   4.569   3.304 -0.9584 -0.1261 -1.0036
 6640TIP3   OH241410   5.422   4.368   5.002  0.4521  0.5039 -0.4083
 6640TIP3    H141411   5.390   4.440   5.055  1.4253  1.2885 -0.8489
 6640TIP3    H241412   5.367   4.368   4.925  2.6005  3.1475 -2.1357
 6641TIP3   OH241413   5.899   4.186   2.512 -0.1622 -1.1958  0.1319
 6641TIP3    H141414   5.918   4.149   2.599  2.7408 -0.2187  0.0122
 6641TIP3    H241415   5.981   4.176   2.464 -0.4467  1.8651 -1.1743
 6642TIP3   OH241416   5.850   1.072  13.895 -0.7478 -0.3168  0.4239
 6642TIP3    H141417   5.847   1.072  13.991 -2.7757  0.5915  0.4226
 6642TIP3    H241418   5.777   1.015  13.870  0.0936 -0.9757 -0.6105
 6643TIP3   OH241419   3.553   5.187  11.005 -0.5644  0.0071 -0.9426
 6643TIP3    H141420   3.591   5.099  10.999 -1.9217 -0.5875 -1.2010
 6643TIP3    H241421   3.624   5.242  11.037  0.3308 -1.1741 -0.8505
 6644TIP3   OH241422   4.553   3.675  13.078  0.1417  0.0212  0.6517
 6644TIP3    H141423   4.490   3.634  13.137  1.5389 -0.0775  2.1518
 6644TIP3    H241424   4.563   3.764  13.112  1.1742 -0.1245  0.7609
 6645TIP3   OH241425   0.061   5.624   0.774 -0.0226  1.0642  0.1575
 6645TIP3    H141426   0.152   5.644   0.753 -0.1931  0.5796 -1.1591
 6645TIP3    H241427   0.010   5.686   0.721 -0.4702  0.8802  0.3634
 6646TIP3   OH241428   0.021   1.000   1.658 -0.4874  0.3069 -0.1143
 6646TIP3    H141429  -0.015   0.911   1.660  0.0404  0.0791 -0.5827
 6646TIP3    H241430   0.108   0.991   1.619 -0.0854  0.9149  0.6016
 6647TIP3   OH241431   1.641   3.034  14.021  0.1484 -0.1800  0.2253
 6647TIP3    H141432   1.571   3.099  14.026 -0.3714 -0.6386 -0.6669
 6647TIP3    H241433   1.631   2.981  14.100 -1.5292 -1.1942 -0.6038
 6648TIP3   OH241434   3.512   6.329  10.616  0.2646 -0.0837 -0.0102
 6648TIP3    H141435   3.469   6.287  10.542 -2.9648  0.0394  1.6117
 6648TIP3    H241436   3.495   6.271  10.690  2.4649  0.3171  0.8718
 6649TIP3   OH241437   2.315   1.576   2.911 -0.1108  0.4802  0.3396
 6649TIP3    H141438   2.278   1.621   2.987  1.8673  2.6538  0.1644
 6649TIP3    H241439   2.271   1.616   2.835  0.6247  1.1470  0.2430
 6650TIP3   OH241440   4.314   4.105  16.968  0.0007 -0.6060  0.6491
 6650TIP3    H141441   4.273   4.192  16.971  1.0956 -0.0210 -0.5762
 6650TIP3    H241442   4.391   4.117  16.913  1.0984 -1.9837  1.8332
 6651TIP3   OH241443   0.034   0.752  13.832 -0.0444 -0.0736  0.3426
 6651TIP3    H141444   0.058   0.843  13.848  1.1538 -0.1158 -0.9514
 6651TIP3    H241445  -0.061   0.753  13.827 -0.0400  1.1564  0.1308
 6652TIP3   OH241446   3.061   4.216  12.316 -0.4364  0.4767  1.0452
 6652TIP3    H141447   2.973   4.238  12.284  0.3211  1.1093 -0.7168
 6652TIP3    H241448   3.064   4.121  12.314 -1.2763  0.4153  1.7348
 6653TIP3   OH241449   1.698   6.175  11.521 -0.2961 -0.5156 -0.0308
 6653TIP3    H141450   1.681   6.252  11.575  1.1426 -0.5361  0.5138
 6653TIP3    H241451   1.719   6.211  11.434 -0.5499 -0.3444 -0.0202
 6654TIP3   OH241452   4.730   3.127  14.717  0.4206 -0.0869  0.5477
 6654TIP3    H141453   4.700   3.121  14.807  0.3390 -1.7045  0.4400
 6654TIP3    H241454   4.723   3.038  14.683 -1.4726  0.7873 -1.6787
 6655TIP3   OH241455   2.417   6.414   3.628 -0.0507  0.4079 -0.1090
 6655TIP3    H141456   2.347   6.461   3.674 -0.7479  0.3222 -1.0368
 6655TIP3    H241457   2.388   6.414   3.536 -0.6992 -2.8870 -0.0216
 6656TIP3   OH241458   3.593   2.885  11.187 -0.3474  0.3951 -0.6948
 6656TIP3    H141459   3.600   2.980  11.188 -0.1856  0.3809 -0.1531
 6656TIP3    H241460   3.674   2.854  11.229 -1.4765  0.0951  1.3917
 6657TIP3   OH241461   2.306   2.054   3.038  0.1396 -0.6902 -0.1557
 6657TIP3    H141462   2.219   2.076   3.071  0.8072  0.4058  0.9689
 6657TIP3    H241463   2.289   2.001   2.960 -1.5355  0.2529 -0.4902
 6658TIP3   OH241464   4.959   5.942   2.467  0.0063  0.3518 -0.0176
 6658TIP3    H141465   5.000   6.025   2.489  3.4398 -1.7463  2.6188
 6658TIP3    H241466   5.000   5.914   2.385  1.5882 -0.2671  0.9459
 6659TIP3   OH241467   5.137   6.493  15.465 -0.6924 -0.4728 -1.1920
 6659TIP3    H141468   5.045   6.516  15.479 -1.0233 -1.2575 -1.9654
 6659TIP3    H241469   5.148   6.495  15.369 -0.4198 -2.2401 -1.2308
 6660TIP3   OH241470   1.791   5.091  13.529  0.1665 -0.0644 -0.3352
 6660TIP3    H141471   1.873   5.049  13.502 -0.5732 -0.0152 -2.9490
 6660TIP3    H241472   1.817   5.180  13.554  1.1710 -0.7229  1.0629
 6661TIP3   OH241473   6.662   3.366  13.107  0.9035 -1.0544 -0.2381
 6661TIP3    H141474   6.728   3.297  13.107  1.6428 -0.3593  0.0668
 6661TIP3    H241475   6.699   3.435  13.161  1.2012  0.5637 -2.3789
 6662TIP3   OH241476   2.751   6.302  15.874  0.4218 -0.3897  0.6404
 6662TIP3    H141477   2.762   6.339  15.962 -0.3329 -2.5031  1.6825
 6662TIP3    H241478   2.694   6.364  15.829  2.0126  1.5022  1.0880
 6663TIP3   OH241479   3.218   0.834   1.886 -0.0047 -0.2459  0.2178
 6663TIP3    H141480   3.258   0.814   1.802  0.6663  2.6828 -0.2710
 6663TIP3    H241481   3.286   0.816   1.951  0.4243  0.0544 -0.1449
 6664TIP3   OH241482   3.294   6.622   0.322  0.4458 -0.1447  0.7195
 6664TIP3    H141483   3.308   6.544   0.268 -1.1781  0.7924 -1.1953
 6664TIP3    H241484   3.331   6.599   0.407  0.6726 -2.7150  0.0182
 6665TIP3   OH241485   4.091   4.562   4.904  0.4583 -0.0319 -0.2596
 6665TIP3    H141486   4.102   4.564   4.809  0.1418  0.6663 -0.2885
 6665TIP3    H241487   4.091   4.469   4.926 -0.1292 -0.2222 -1.0216
 6666TIP3   OH241488   0.168   3.137  11.821  0.3903 -0.7032 -0.3757
 6666TIP3    H141489   0.164   3.138  11.916  1.3954 -2.7863 -0.2611
 6666TIP3    H241490   0.185   3.045  11.798  0.0600 -0.2840 -2.5682
 6667TIP3   OH241491   2.729   2.109  14.901  0.3170  0.0209 -0.6187
 6667TIP3    H141492   2.736   2.029  14.954 -1.3491  0.3175  0.1311
 6667TIP3    H241493   2.791   2.170  14.941  0.5750 -0.4325 -0.3138
 6668TIP3   OH241494   5.148   1.199   4.172 -0.1233 -0.1829 -0.3084
 6668TIP3    H141495   5.157   1.104   4.178  1.6267  0.0526  2.3431
 6668TIP3    H241496   5.183   1.232   4.255  0.1318  2.8388 -1.4930
 6669TIP3   OH241497   3.347   4.924   1.272  0.0120 -0.7884  0.5516
 6669TIP3    H141498   3.294   4.983   1.326  0.5718 -0.3749  0.6664
 6669TIP3    H241499   3.290   4.901   1.198 -0.1105  0.1692  0.3311
 6670TIP3   OH241500   5.156   5.279  15.470  0.6790  0.5561  0.1948
 6670TIP3    H141501   5.093   5.350  15.475  0.7391  0.5781  0.6722
 6670TIP3    H241502   5.139   5.237  15.385 -0.4394  0.1256  0.6082
 6671TIP3   OH241503   0.093   4.501   6.632  0.4957  0.2227 -0.3488
 6671TIP3    H141504   0.068   4.413   6.660  2.1870  0.6760  3.1577
 6671TIP3    H241505   0.169   4.487   6.575  0.3388 -0.6025 -0.3719
 6672TIP3   OH241506   5.286   0.004   5.469 -0.1026 -0.3628  0.4225
 6672TIP3    H141507   5.337   0.037   5.543 -1.9860  0.0462  1.6023
 6672TIP3    H241508   5.233   0.078   5.440  0.0169 -0.7402 -0.8369
 6673TIP3   OH241509   6.545   2.355   1.973  0.4859  0.3075  0.1040
 6673TIP3    H141510   6.490   2.293   1.925 -0.4553  0.5528  0.8505
 6673TIP3    H241511   6.582   2.412   1.905 -0.0700  0.0483 -0.4165
 6674TIP3   OH241512   6.492   3.749   0.554 -0.4015 -0.0374 -0.7872
 6674TIP3    H141513   6.556   3.689   0.593  0.9232  0.7573 -1.6850
 6674TIP3    H241514   6.476   3.713   0.467 -1.3006 -0.3012 -0.5250
 6675TIP3   OH241515   3.676   4.113  16.578 -0.0284 -0.0582  0.6145
 6675TIP3    H141516   3.735   4.181  16.611  0.2508 -0.4053  0.8379
 6675TIP3    H241517   3.717   4.084  16.496 -0.6352  0.6877  0.0387
 6676TIP3   OH241518   2.104   6.290   0.995  0.7328  0.6177 -0.8536
 6676TIP3    H141519   2.077   6.209   1.038 -0.2568  0.8761 -0.9596
 6676TIP3    H241520   2.045   6.357   1.029  0.5236  1.0015 -1.9029
 6677TIP3   OH241521   5.657   0.510   1.301  0.2876  0.1115  0.2653
 6677TIP3    H141522   5.628   0.455   1.227  0.3136  1.1753 -0.5598
 6677TIP3    H241523   5.719   0.571   1.262 -1.2445  2.0645  0.7310
 6678TIP3   OH241524   0.256   1.556  12.997 -0.0385 -0.5392 -0.2062
 6678TIP3    H141525   0.304   1.638  12.984  0.8066 -1.0507 -0.3546
 6678TIP3    H241526   0.202   1.547  12.919 -1.7956  0.9562  0.7463
 6679TIP3   OH241527   3.340   2.596   5.231 -0.4070  0.3119 -0.4059
 6679TIP3    H141528   3.343   2.547   5.312  0.3384 -0.4910 -0.9040
 6679TIP3    H241529   3.412   2.658   5.237  0.8865 -1.0442 -1.2296
 6680TIP3   OH241530   2.948   0.389  12.804 -0.1123 -0.3677 -0.3487
 6680TIP3    H141531   2.971   0.339  12.882 -1.2918 -1.6731 -0.7957
 6680TIP3    H241532   2.877   0.446  12.832  1.1249  1.0198  0.1191
 6681TIP3   OH241533   6.199   0.141  11.267  0.5350 -0.2390 -0.4244
 6681TIP3    H141534   6.113   0.100  11.257  0.1304  0.8059 -1.5747
 6681TIP3    H241535   6.251   0.105  11.195  0.5991  0.2054 -0.6050
 6682TIP3   OH241536   2.557   2.855  12.000  0.3278 -0.3633 -0.1663
 6682TIP3    H141537   2.581   2.883  12.088 -1.0255  1.0354 -0.2107
 6682TIP3    H241538   2.637   2.813  11.966  0.6201 -1.6970  1.9828
 6683TIP3   OH241539   4.956   2.720   2.495 -0.4409  0.2092 -0.0226
 6683TIP3    H141540   4.926   2.711   2.585  0.8460 -0.8994  0.3208
 6683TIP3    H241541   5.051   2.711   2.500 -0.4571 -1.5520 -1.6508
 6684TIP3   OH241542   3.252   5.807  13.018 -0.1456  0.9981  0.6841
 6684TIP3    H141543   3.259   5.729  13.073 -0.2684  0.7347  0.3365
 6684TIP3    H241544   3.212   5.873  13.074 -2.0880  0.1673  0.3981
 6685TIP3   OH241545   1.364   2.023  16.609 -0.6171 -0.8298  0.4562
 6685TIP3    H141546   1.417   1.952  16.646  0.6070  0.4880  1.3670
 6685TIP3    H241547   1.427   2.093  16.592 -1.4478 -0.6380 -2.3820
 6686TIP3   OH241548   0.865   6.760   5.753 -0.0416  0.0703 -0.1879
 6686TIP3    H141549   0.796   6.817   5.788 -0.5241  0.4136 -1.6112
 6686TIP3    H241550   0.818   6.696   5.699  0.7247  0.1285 -0.9434
 6687TIP3   OH241551   1.778   5.597   1.477 -0.6169  0.0632  0.1035
 6687TIP3    H141552   1.753   5.661   1.410 -2.2851 -0.1576  0.4826
 6687TIP3    H241553   1.872   5.585   1.464 -0.8317  0.2749 -1.9727
 6688TIP3   OH241554   1.566   2.061   2.793  0.2039 -0.0144 -0.3118
 6688TIP3    H141555   1.575   2.099   2.880 -1.8495  0.6224 -0.3266
 6688TIP3    H241556   1.476   2.081   2.767  0.4029 -1.2053 -2.1048
 6689TIP3   OH241557   2.436   4.762  15.904  0.1900 -0.3606  0.9350
 6689TIP3    H141558   2.371   4.812  15.953  0.9202 -0.7839  2.3988
 6689TIP3    H241559   2.511   4.822  15.896  0.5512 -0.7383  1.4744
 6690TIP3   OH241560   3.033   0.842   6.290  0.0773  0.5196 -0.2982
 6690TIP3    H141561   2.982   0.761   6.286 -1.0659  1.0427  1.9815
 6690TIP3    H241562   2.967   0.912   6.285  0.6100  1.2263  1.6417
 6691TIP3   OH241563   3.012   6.464   2.300  0.3092  0.4126 -0.0527
 6691TIP3    H141564   2.983   6.406   2.370  1.1635 -1.7515 -1.4156
 6691TIP3    H241565   2.951   6.538   2.304 -0.0860  0.0390  2.4885
 6692TIP3   OH241566   3.162   0.483   5.198  0.8305 -0.0483  0.4055
 6692TIP3    H141567   3.187   0.399   5.237  1.6013  0.2293  0.5310
 6692TIP3    H241568   3.224   0.495   5.126  0.2565  0.0666 -0.0751
 6693TIP3   OH241569   0.717   1.666   5.085  0.1567 -0.3593  0.8318
 6693TIP3    H141570   0.657   1.728   5.044  0.1378 -0.3961  0.8038
 6693TIP3    H241571   0.703   1.678   5.179  0.1574 -0.3165  0.8266
 6694TIP3   OH241572   1.405   2.167  13.678  0.4334 -0.2410  0.2273
 6694TIP3    H141573   1.493   2.172  13.717 -0.4530 -0.4647  2.4062
 6694TIP3    H241574   1.393   2.253  13.638  1.6555 -0.2264 -0.1674
 6695TIP3   OH241575   2.843   3.500  16.650 -0.5330  0.0402 -0.0847
 6695TIP3    H141576   2.843   3.428  16.714  0.6953 -0.1492 -0.2663
 6695TIP3    H241577   2.895   3.467  16.577 -0.5492  0.8572 -0.4784
 6696TIP3   OH241578   6.086   2.081   1.700 -0.2095  0.7850  0.2202
 6696TIP3    H141579   6.039   2.045   1.625  0.3934 -2.0841  1.0916
 6696TIP3    H241580   6.176   2.089   1.670 -0.2660  1.1801  0.1552
 6697TIP3   OH241581   1.810   1.652  12.085 -0.0493  0.3236 -0.0271
 6697TIP3    H141582   1.869   1.683  12.154 -1.2808  2.1640  0.3014
 6697TIP3    H241583   1.758   1.583  12.127 -0.0357  0.6625  0.5632
 6698TIP3   OH241584   3.863   6.000   4.926  0.2132  0.3011 -0.4386
 6698TIP3    H141585   3.830   6.054   4.854  1.7790  0.9699 -0.7179
 6698TIP3    H241586   3.959   6.004   4.916  0.4139 -0.8648  0.7683
 6699TIP3   OH241587   2.544   6.724  13.436  0.7566  0.1634 -0.2440
 6699TIP3    H141588   2.502   6.643  13.407 -0.0709  0.1035  1.0726
 6699TIP3    H241589   2.472   6.782  13.458  1.3455  0.4964  0.8808
 6700TIP3   OH241590   3.414   6.168  11.092  0.0990  0.4161 -0.0343
 6700TIP3    H141591   3.500   6.202  11.116  0.3839 -1.1896  1.4046
 6700TIP3    H241592   3.364   6.167  11.173  0.0822 -2.3431  0.0187
 6701TIP3   OH241593   5.406   4.507  13.204  0.0649 -0.2012 -0.1362
 6701TIP3    H141594   5.424   4.413  13.205  0.5218 -0.1466  2.4824
 6701TIP3    H241595   5.407   4.530  13.111  0.8363 -2.6009 -0.7976
 6702TIP3   OH241596   6.510   1.766   0.578 -0.3499 -0.2440 -0.7818
 6702TIP3    H141597   6.460   1.685   0.572 -2.7942  0.9618  1.2925
 6702TIP3    H241598   6.601   1.738   0.590 -1.5079 -3.0687  4.9544
 6703TIP3   OH241599   3.612   5.169   2.351 -0.5569 -0.0516  0.2267
 6703TIP3    H141600   3.566   5.194   2.431  1.0101  0.9643  0.8580
 6703TIP3    H241601   3.630   5.075   2.361 -2.4276 -0.4799 -0.0458
 6704TIP3   OH241602   0.926   6.674  16.861 -0.0939  0.1257 -0.3477
 6704TIP3    H141603   0.913   6.760  16.902  0.5295 -0.0321  0.1945
 6704TIP3    H241604   0.931   6.613  16.935 -0.5446 -0.3836 -0.7288
 6705TIP3   OH241605   6.095   0.547   3.889  0.0368  0.0090  0.5986
 6705TIP3    H141606   6.006   0.511   3.889  0.6726 -1.6666  0.9537
 6705TIP3    H241607   6.129   0.528   3.976  0.1914  2.1801  1.0566
 6706TIP3   OH241608   3.079   6.383  16.567  0.4949  0.6561  0.3181
 6706TIP3    H141609   3.036   6.333  16.498 -0.1002  0.4364  0.8366
 6706TIP3    H241610   3.012   6.395  16.634  1.2600  0.2296  1.1916
 6707TIP3   OH241611   5.817   6.628  10.418  0.0687  0.3071 -0.3761
 6707TIP3    H141612   5.837   6.708  10.468 -3.1922  0.1745  1.4553
 6707TIP3    H241613   5.887   6.567  10.441  0.8674  1.6078  0.7970
 6708TIP3   OH241614   5.274   5.338  17.190  0.3597 -0.1891  0.0323
 6708TIP3    H141615   5.257   5.295  17.274  0.6279 -2.3492 -0.9576
 6708TIP3    H241616   5.227   5.284  17.126 -0.8586  2.0790 -1.1335
 6709TIP3   OH241617   4.600   5.085  12.303  0.4872  0.4711 -0.6473
 6709TIP3    H141618   4.567   5.138  12.376  0.8322 -0.7740  0.4374
 6709TIP3    H241619   4.548   5.005  12.307  1.9544 -0.4984 -0.4394
 6710TIP3   OH241620   4.792   0.851   1.657 -0.2609  0.0513  0.9332
 6710TIP3    H141621   4.875   0.814   1.625 -0.5701 -1.5445  1.8473
 6710TIP3    H241622   4.818   0.913   1.725  0.2296  0.3987  0.4329
 6711TIP3   OH241623   1.032   3.943   4.173  0.0072  0.1548  0.0174
 6711TIP3    H141624   0.978   4.020   4.186 -0.6744 -0.6418  2.4761
 6711TIP3    H241625   1.110   3.959   4.225 -0.2797 -0.9013  0.8116
 6712TIP3   OH241626   2.549   6.639   6.009  0.1841  0.1306 -0.2514
 6712TIP3    H141627   2.613   6.677   5.949 -0.1483 -0.0664 -0.7381
 6712TIP3    H241628   2.464   6.660   5.970 -0.0693  0.6261  0.5275
 6713TIP3   OH241629   1.589   2.363   5.763 -0.0817 -0.0663 -0.3115
 6713TIP3    H141630   1.612   2.307   5.838  1.3260  0.1318 -0.5650
 6713TIP3    H241631   1.519   2.419   5.796  0.6701  0.1689  0.9407
 6714TIP3   OH241632   0.660   2.503   2.153  0.0963 -0.2986 -0.4944
 6714TIP3    H141633   0.636   2.541   2.237  0.6587 -0.7876 -0.1065
 6714TIP3    H241634   0.594   2.435   2.138 -1.2829  1.2042 -1.4877
 6715TIP3   OH241635   3.592   4.075  13.892  0.1959  0.4532  0.5054
 6715TIP3    H141636   3.680   4.037  13.886 -0.0182 -0.6926  3.2647
 6715TIP3    H241637   3.606   4.166  13.915  0.6628  0.4612  0.1938
 6716TIP3   OH241638   0.632   0.411  13.979  0.1832 -0.2573 -0.8237
 6716TIP3    H141639   0.700   0.478  13.988  0.8211 -1.1775  2.1273
 6716TIP3    H241640   0.629   0.367  14.064 -4.1328 -0.2842 -0.7650
 6717TIP3   OH241641   0.788   4.133   4.389  0.0011 -0.4887 -0.5750
 6717TIP3    H141642   0.756   4.043   4.384 -1.1493 -0.1234 -0.0592
 6717TIP3    H241643   0.739   4.172   4.461  0.0335  0.7234 -1.1814
 6718TIP3   OH241644   4.349   1.579  16.621  0.5354  0.5252  0.2518
 6718TIP3    H141645   4.355   1.555  16.529 -1.3268  1.2247 -0.1075
 6718TIP3    H241646   4.438   1.603  16.646  1.2743 -0.6802 -1.0588
 6719TIP3   OH241647   5.156   2.348   3.794  0.0579 -0.0092 -0.0287
 6719TIP3    H141648   5.179   2.373   3.883  0.3811 -1.2606  0.2623
 6719TIP3    H241649   5.098   2.272   3.804 -1.0092  0.6602 -0.8592
 6720TIP3   OH241650   1.302   1.657  13.191  0.0408 -0.3341  0.2730
 6720TIP3    H141651   1.276   1.627  13.104  1.6180 -0.5802 -0.1508
 6720TIP3    H241652   1.237   1.620  13.250 -1.0911 -0.1174 -0.7977
 6721TIP3   OH241653   0.015   4.243   6.638  0.3219  0.3301  0.0590
 6721TIP3    H141654   0.014   4.148   6.652  0.7018  0.6110  2.2036
 6721TIP3    H241655  -0.038   4.255   6.559  0.2775 -1.6601 -0.2748
 6722TIP3   OH241656   5.417   6.349  12.654 -0.3061 -0.7381 -0.0511
 6722TIP3    H141657   5.340   6.404  12.640 -0.5679 -0.7346  1.2368
 6722TIP3    H241658   5.394   6.265  12.614 -1.4620 -1.0871  1.2343
 6723TIP3   OH241659   2.938   5.019   0.399 -0.2860 -0.2852 -0.0213
 6723TIP3    H141660   2.913   5.109   0.421 -0.2062 -0.5330  1.1482
 6723TIP3    H241661   2.859   4.982   0.359 -1.0094 -0.3047  1.3788
 6724TIP3   OH241662   5.078   2.208  10.837 -0.5636 -0.7542 -0.3015
 6724TIP3    H141663   5.057   2.119  10.810  1.2125 -1.3860  0.2935
 6724TIP3    H241664   5.137   2.198  10.912  0.1345  0.9116 -0.5795
 6725TIP3   OH241665   3.125   5.424  11.438  0.1649  0.3878 -0.2648
 6725TIP3    H141666   3.118   5.329  11.445  2.8241  0.1901  0.9420
 6725TIP3    H241667   3.124   5.441  11.343 -1.0510 -0.7224 -0.4872
 6726TIP3   OH241668   6.144   6.494  16.129  0.3784 -0.1032 -0.0363
 6726TIP3    H141669   6.097   6.444  16.063  0.8984 -0.7621  0.0931
 6726TIP3    H241670   6.184   6.429  16.186  1.3682  0.4541 -0.0802
 6727TIP3   OH241671   0.796   3.604  12.906 -0.2347  0.2685  0.0154
 6727TIP3    H141672   0.762   3.542  12.971 -1.4006  1.0086  0.1319
 6727TIP3    H241673   0.890   3.586  12.903 -0.4713 -1.1665  0.4087
 6728TIP3   OH241674   6.315   4.615  15.543 -0.6824  0.2581 -0.2336
 6728TIP3    H141675   6.310   4.620  15.638  2.2840  1.4222 -0.0557
 6728TIP3    H241676   6.344   4.526  15.524  0.1080  0.4565  0.0433
 6729TIP3   OH241677   1.087   1.647  10.752  0.2531  0.0900  0.3022
 6729TIP3    H141678   1.008   1.668  10.702 -0.1233  1.7257  1.4782
 6729TIP3    H241679   1.081   1.553  10.768 -0.8326 -0.0300 -0.6757
 6730TIP3   OH241680   0.250   3.842  11.940  0.2299  0.5277  0.1827
 6730TIP3    H141681   0.280   3.924  11.899 -0.4699  0.4497 -0.5099
 6730TIP3    H241682   0.319   3.820  12.002  2.7421 -0.7442 -2.7781
 6731TIP3   OH241683   4.943   0.479   3.836  0.6909 -0.3999 -0.2608
 6731TIP3    H141684   4.944   0.471   3.931 -1.7472 -3.7581 -0.3797
 6731TIP3    H241685   4.893   0.559   3.820  0.5790 -0.1267  1.2674
 6732TIP3   OH241686   0.987   3.996  11.235 -0.2685 -0.4496 -0.1553
 6732TIP3    H141687   0.991   3.979  11.329 -0.0353  2.6718  0.5029
 6732TIP3    H241688   0.901   4.037  11.222  0.1124  0.0730 -1.1115
 6733TIP3   OH241689   3.632   0.067  12.792 -0.3236  0.0878  0.3279
 6733TIP3    H141690   3.725   0.064  12.813  0.0188 -0.0055 -1.0525
 6733TIP3    H241691   3.619   0.155  12.756 -0.6830 -0.0175  0.1965
 6734TIP3   OH241692   4.215   5.148  12.871  0.0244  0.4331 -0.2371
 6734TIP3    H141693   4.183   5.203  12.943 -1.0712  0.2454 -0.5759
 6734TIP3    H241694   4.150   5.079  12.861  1.4603 -1.0709  0.2854
 6735TIP3   OH241695   6.808   1.453  17.205  0.0737 -0.2410 -0.4282
 6735TIP3    H141696   6.786   1.364  17.176  1.0834 -0.8052  0.4442
 6735TIP3    H241697   6.725   1.500  17.203 -0.3625 -1.0245 -1.5227
 6736TIP3   OH241698   1.471   4.078  11.788 -0.0114 -0.1636 -0.3690
 6736TIP3    H141699   1.479   4.032  11.871  0.2774 -0.4060 -0.5275
 6736TIP3    H241700   1.507   4.017  11.723 -0.8983 -0.2754 -0.7746
 6737TIP3   OH241701   1.641   0.935  16.062  0.5293 -0.0916  0.0573
 6737TIP3    H141702   1.669   0.849  16.030  1.4449 -0.2511  1.2184
 6737TIP3    H241703   1.589   0.916  16.141 -0.0304  0.3841 -0.1858
 6738TIP3   OH241704   2.768   2.303  14.522 -0.7854 -0.4347  0.3879
 6738TIP3    H141705   2.760   2.303  14.426  1.6856 -0.5198  0.0986
 6738TIP3    H241706   2.788   2.212  14.544  1.3812  0.0201  0.5971
 6739TIP3   OH241707   4.409   3.458   5.331  0.0194  0.2006 -0.8477
 6739TIP3    H141708   4.361   3.485   5.253  0.2337 -1.2582 -1.5066
 6739TIP3    H241709   4.359   3.384   5.366 -0.3937  1.1703  0.7408
 6740TIP3   OH241710   0.548   3.185   3.661  0.5877 -0.7757  0.0007
 6740TIP3    H141711   0.505   3.164   3.744  1.2983  0.4134  0.6989
 6740TIP3    H241712   0.515   3.272   3.639  1.2180 -0.6386 -0.4201
 6741TIP3   OH241713   2.470   5.955   0.558  0.0841  0.0760  0.0084
 6741TIP3    H141714   2.408   5.949   0.630  1.5940  2.0391  1.5765
 6741TIP3    H241715   2.443   6.032   0.508  0.0422 -0.2830 -0.5330
 6742TIP3   OH241716   5.059   1.487  11.535  0.3443  0.2565 -0.0368
 6742TIP3    H141717   5.079   1.463  11.625 -1.1576 -0.1194  0.2182
 6742TIP3    H241718   5.129   1.447  11.483  0.5137 -0.6248  0.8405
 6743TIP3   OH241719   5.461   5.189  17.033 -0.0056  0.5116  0.9395
 6743TIP3    H141720   5.554   5.175  17.014 -0.3251  0.7362 -1.0472
 6743TIP3    H241721   5.453   5.284  17.041 -0.3688  0.6740 -0.9549
 6744TIP3   OH241722   1.199   1.780   5.938 -0.2118 -0.4318  0.3731
 6744TIP3    H141723   1.239   1.823   6.013 -1.2226  1.0932  0.0848
 6744TIP3    H241724   1.268   1.779   5.871 -0.3542  1.4502  0.1446
 6745TIP3   OH241725   0.235   3.594  12.195  0.3341  0.4340  0.0661
 6745TIP3    H141726   0.323   3.617  12.165 -0.3252  2.4403 -0.4917
 6745TIP3    H241727   0.198   3.676  12.227 -1.0452 -0.5390  1.1034
 6746TIP3   OH241728   0.491   0.939   0.275  0.0990 -0.1769  0.0862
 6746TIP3    H141729   0.541   0.859   0.287 -0.1598 -0.2250  0.9028
 6746TIP3    H241730   0.517   0.995   0.349 -1.5755 -0.4823  0.9556
 6747TIP3   OH241731   4.730   4.941  13.530 -0.5991 -0.1755  0.2555
 6747TIP3    H141732   4.687   5.025  13.514  0.0667  0.0406 -0.4980
 6747TIP3    H241733   4.658   4.879  13.541 -1.1239  0.1705 -1.0345
 6748TIP3   OH241734   0.061   6.443  11.078 -0.9243  0.0195 -0.1704
 6748TIP3    H141735   0.117   6.489  11.016 -0.5340  0.2755  0.3648
 6748TIP3    H241736   0.122   6.394  11.133 -0.9469  2.6285  2.3655
 6749TIP3   OH241737   3.733   5.760   1.676  0.1967  0.0185 -0.0471
 6749TIP3    H141738   3.731   5.692   1.744  2.2260 -0.7094 -0.6500
 6749TIP3    H241739   3.752   5.841   1.724  1.6503 -0.4944  0.2903
 6750TIP3   OH241740   2.695   5.301  16.331 -0.3070  0.1351  0.4817
 6750TIP3    H141741   2.727   5.390  16.315  1.1786 -0.7719 -2.3341
 6750TIP3    H241742   2.769   5.255  16.370  0.1028 -0.6591 -1.1627
 6751TIP3   OH241743   2.455   5.190  14.229 -0.1371  0.2130  0.5012
 6751TIP3    H141744   2.510   5.214  14.303  1.2106  1.0378 -0.7244
 6751TIP3    H241745   2.511   5.200  14.152 -1.7937  0.4429 -0.7459
 6752TIP3   OH241746   5.379   2.516  16.470  0.3451  0.1533  0.0390
 6752TIP3    H141747   5.413   2.589  16.419  1.7147 -0.9121 -0.6421
 6752TIP3    H241748   5.429   2.440  16.439 -0.8090 -1.0148  0.9484
 6753TIP3   OH241749   5.235   5.058  12.995  0.0318  0.3689  0.5249
 6753TIP3    H141750   5.210   5.147  12.970  0.2579  1.0164  2.4129
 6753TIP3    H241751   5.201   5.047  13.084 -0.7464 -1.7749  0.0385
 6754TIP3   OH241752   0.062   0.047   3.624 -0.1851  0.3926 -0.3108
 6754TIP3    H141753  -0.029   0.065   3.603 -0.7278 -0.9526  0.7509
 6754TIP3    H241754   0.099   0.131   3.650 -1.4245  0.7471  0.3362
 6755TIP3   OH241755   5.615   3.142  11.440  0.3531  0.1993 -0.2152
 6755TIP3    H141756   5.609   3.201  11.365  1.2955 -1.0383 -1.3056
 6755TIP3    H241757   5.580   3.059  11.408 -0.6537  0.0462  1.1964
 6756TIP3   OH241758   6.454   2.891   6.055  0.5273  0.5125  0.1267
 6756TIP3    H141759   6.540   2.933   6.046  0.7215  0.1492  0.2723
 6756TIP3    H241760   6.407   2.915   5.976  1.0143  0.1310 -0.2846
 6757TIP3   OH241761   6.275   2.402  11.645  0.2661 -0.1543 -0.0034
 6757TIP3    H141762   6.213   2.331  11.662  2.2197 -1.8163  0.4855
 6757TIP3    H241763   6.221   2.471  11.607 -1.6154 -2.0877 -1.0744
 6758TIP3   OH241764   4.422   4.736  16.578 -0.6320  0.5708  0.6199
 6758TIP3    H141765   4.508   4.734  16.620 -0.0101  0.4106 -0.6106
 6758TIP3    H241766   4.397   4.644  16.571  0.4896  0.3504 -1.6732
 6759TIP3   OH241767   1.955   1.577   0.996  0.4828 -0.5249  0.2962
 6759TIP3    H141768   1.960   1.670   0.976 -0.8043 -0.5526 -0.2949
 6759TIP3    H241769   1.869   1.566   1.037  0.3001 -1.5535 -0.3123
 6760TIP3   OH241770   5.007   2.354   4.354 -0.1183  0.0813  0.4264
 6760TIP3    H141771   4.980   2.405   4.278  0.2265 -3.0845 -2.0212
 6760TIP3    H241772   4.927   2.311   4.384 -0.4113  1.8456  2.4861
 6761TIP3   OH241773   6.543   1.491  16.619  0.1056 -0.0972 -0.5286
 6761TIP3    H141774   6.524   1.433  16.545  1.2636 -2.1152  0.6666
 6761TIP3    H241775   6.624   1.535  16.595  0.8086 -1.1955 -0.2759
 6762TIP3   OH241776   1.298   3.662  12.003 -1.2657 -0.1046  0.5747
 6762TIP3    H141777   1.373   3.706  12.044 -1.6729 -1.1371  2.5595
 6762TIP3    H241778   1.325   3.646  11.913  0.7100 -0.0060  1.1151
 6763TIP3   OH241779   5.583   5.439  13.736 -0.4361 -0.1890 -0.2955
 6763TIP3    H141780   5.603   5.532  13.741  1.7314 -0.6613  1.4364
 6763TIP3    H241781   5.535   5.419  13.816 -0.3819 -0.6663 -0.3743
 6764TIP3   OH241782   6.116   4.845   5.525 -0.2726  0.0602 -0.3155
 6764TIP3    H141783   6.078   4.920   5.570  1.4106  0.9256 -0.2522
 6764TIP3    H241784   6.058   4.830   5.450 -2.1703 -0.3633  1.1549
 6765TIP3   OH241785   5.286   4.187   2.143 -0.2391  0.1003 -1.0927
 6765TIP3    H141786   5.222   4.174   2.073  0.6349 -0.4190 -1.8083
 6765TIP3    H241787   5.279   4.108   2.197  0.3320 -0.3290 -1.6229
 6766TIP3   OH241788   3.717   2.635  15.311 -0.8462  0.1506  0.3333
 6766TIP3    H141789   3.631   2.595  15.300 -0.0149 -1.3819 -1.0072
 6766TIP3    H241790   3.757   2.587  15.384 -0.0994 -1.1289 -0.8573
 6767TIP3   OH241791   1.182   0.855  15.223  0.4452 -0.1696  0.0595
 6767TIP3    H141792   1.218   0.839  15.310  0.4809  2.1554  0.5435
 6767TIP3    H241793   1.093   0.884  15.239  0.2345 -0.3576 -0.7387
 6768TIP3   OH241794   2.660   5.270  11.746 -0.1967  0.4734  0.4392
 6768TIP3    H141795   2.745   5.292  11.784 -0.3435  0.0038  1.0573
 6768TIP3    H241796   2.674   5.184  11.707 -0.7437 -0.2720  1.7998
 6769TIP3   OH241797   4.955   1.524   1.148 -0.2896  0.1334  0.7116
 6769TIP3    H141798   4.895   1.449   1.150 -0.6137  0.3604 -0.1012
 6769TIP3    H241799   4.941   1.563   1.062  2.4329 -0.9237 -0.3064
 6770TIP3   OH241800   2.582   3.909  16.469 -0.0887  0.7750 -0.1294
 6770TIP3    H141801   2.662   3.961  16.467 -0.0230  0.6403 -1.2126
 6770TIP3    H241802   2.577   3.868  16.383 -0.2527 -0.8699  0.6287
 6771TIP3   OH241803   3.347   3.948   2.122 -0.8101 -0.5540 -0.0364
 6771TIP3    H141804   3.336   4.028   2.173 -2.1103 -0.7217 -0.0066
 6771TIP3    H241805   3.311   3.969   2.036  0.4949 -0.5702 -0.6115
 6772TIP3   OH241806   2.923   5.899  15.242 -0.7539  0.0739 -0.0866
 6772TIP3    H141807   2.943   5.901  15.336  1.2876 -0.1372 -0.4754
 6772TIP3    H241808   2.848   5.839  15.235 -1.3751  0.6106  1.4495
 6773TIP3   OH241809   2.281   2.122   5.596 -0.0041 -0.6631 -0.2569
 6773TIP3    H141810   2.217   2.155   5.659  0.0082  0.0724 -0.6165
 6773TIP3    H241811   2.365   2.128   5.640  0.1058  0.5634 -0.5823
 6774TIP3   OH241812   3.704   5.197  13.360 -0.1993  0.0497  0.4291
 6774TIP3    H141813   3.735   5.269  13.414  1.2056 -0.4697  0.3472
 6774TIP3    H241814   3.750   5.120  13.393 -1.2664 -0.7357  0.1623
 6775TIP3   OH241815   4.001   1.999   6.099 -0.4006 -0.3885  0.1285
 6775TIP3    H141816   3.993   1.951   6.182  1.5664 -1.1696 -0.1087
 6775TIP3    H241817   3.951   2.080   6.115  0.1495 -0.3917  2.1772
 6776TIP3   OH241818   0.529   3.722   3.490 -0.0671  0.6123  0.0305
 6776TIP3    H141819   0.498   3.812   3.479  0.4165  0.5942 -1.7905
 6776TIP3    H241820   0.624   3.731   3.495  0.0467  0.1442 -1.1055
 6777TIP3   OH241821   6.612   2.198   3.473  0.3423 -0.0767 -0.6461
 6777TIP3    H141822   6.570   2.128   3.424 -0.5794  1.0091 -1.4559
 6777TIP3    H241823   6.639   2.261   3.406  1.6225  0.1113  0.0219
 6778TIP3   OH241824   5.236   0.748  14.557  0.4126 -0.0004 -0.6511
 6778TIP3    H141825   5.252   0.660  14.591  1.1592 -0.6803 -2.6072
 6778TIP3    H241826   5.321   0.791  14.559 -0.1900  1.2193  1.5708
 6779TIP3   OH241827   1.380   2.342   1.205 -0.2394  0.5173 -0.2430
 6779TIP3    H141828   1.306   2.397   1.230  1.4113  2.1607  1.3166
 6779TIP3    H241829   1.355   2.304   1.121 -3.5240 -0.3288  0.9665
 6780TIP3   OH241830   1.755   1.339   6.277  0.0624 -0.5596 -0.2351
 6780TIP3    H141831   1.683   1.283   6.305  0.3013 -0.7593 -0.0181
 6780TIP3    H241832   1.744   1.419   6.330 -0.8198 -0.0104 -1.1960
 6781TIP3   OH241833   3.887   5.613   5.966  0.0048 -0.5972  0.4941
 6781TIP3    H141834   3.949   5.684   5.953  0.9186 -1.6608 -1.5236
 6781TIP3    H241835   3.900   5.586   6.057  1.7698 -0.0980  0.4376
 6782TIP3   OH241836   3.393   5.325  16.520 -0.1070  0.1893  0.4203
 6782TIP3    H141837   3.385   5.235  16.490 -0.6706 -0.2245  1.7543
 6782TIP3    H241838   3.440   5.319  16.603 -1.4541  0.9519  1.2789
 6783TIP3   OH241839   3.406   3.461  17.054  0.0754  0.2658  0.1492
 6783TIP3    H141840   3.439   3.550  17.040  2.0306 -0.2009  1.4309
 6783TIP3    H241841   3.354   3.466  17.134  0.2518  0.2396  0.2639
 6784TIP3   OH241842   6.613   5.697  11.978 -0.2014  0.3079 -0.4084
 6784TIP3    H141843   6.689   5.722  12.030 -0.3345 -1.9094  1.0100
 6784TIP3    H241844   6.646   5.693  11.888  1.4686 -0.8478  0.2057
 6785TIP3   OH241845   0.466   0.636   4.530  0.1955 -0.4319 -0.4020
 6785TIP3    H141846   0.552   0.599   4.549  0.0189 -0.4395  0.4487
 6785TIP3    H241847   0.413   0.561   4.503  0.6876 -0.2878 -1.8359
 6786TIP3   OH241848   4.731   3.028  11.196 -0.6425  0.0259  0.5209
 6786TIP3    H141849   4.692   3.053  11.280 -1.0253 -1.0662  0.6809
 6786TIP3    H241850   4.660   3.037  11.133 -1.2094 -2.0016  0.8191
 6787TIP3   OH241851   5.201   2.697  12.071 -0.1691 -0.0360  0.4284
 6787TIP3    H141852   5.191   2.788  12.044 -1.7584  0.7427  3.2834
 6787TIP3    H241853   5.296   2.685  12.081  0.1477  0.8556 -1.1415
 6788TIP3   OH241854   6.216   5.623  16.034  0.1782 -0.0766  0.0185
 6788TIP3    H141855   6.311   5.632  16.043  0.2159  1.7677 -1.5539
 6788TIP3    H241856   6.184   5.613  16.124  1.8825 -1.2977  0.5216
 6789TIP3   OH241857   0.372   4.858   3.111 -0.3298  0.1539  0.1370
 6789TIP3    H141858   0.369   4.809   3.029 -1.3106  0.6667 -0.1499
 6789TIP3    H241859   0.281   4.882   3.128 -0.0977  0.3234  1.2187
 6790TIP3   OH241860   2.875   4.540  15.195  0.0070  0.2196  0.4899
 6790TIP3    H141861   2.879   4.574  15.284  0.8184  1.1964  0.0975
 6790TIP3    H241862   2.897   4.447  15.205 -0.2996  0.2268  1.3475
 6791TIP3   OH241863   5.202   0.989  15.794  0.1989 -0.0004  0.1621
 6791TIP3    H141864   5.211   0.981  15.699 -0.5864 -0.5209  0.1260
 6791TIP3    H241865   5.292   1.004  15.825  0.4631  0.1520 -0.6542
 6792TIP3   OH241866   1.890   5.659   3.906  0.2281  0.3064 -0.3668
 6792TIP3    H141867   1.963   5.665   3.844  0.8508  0.2796  0.3366
 6792TIP3    H241868   1.825   5.721   3.873  0.1236 -0.4229 -1.5775
 6793TIP3   OH241869   3.007   2.699   5.493 -0.0351  0.0642 -0.4973
 6793TIP3    H141870   3.014   2.773   5.433 -0.2039 -0.6096 -1.3643
 6793TIP3    H241871   3.091   2.698   5.540 -0.1036  0.9024 -0.3431
 6794TIP3   OH241872   1.115   1.510   5.020  0.2472  0.6265 -0.5928
 6794TIP3    H141873   1.172   1.489   4.947 -0.1791  1.1476 -1.0903
 6794TIP3    H241874   1.111   1.430   5.073 -0.6044 -0.2438 -1.9242
 6795TIP3   OH241875   6.758   4.657  11.752  0.0453 -0.1494  0.4252
 6795TIP3    H141876   6.682   4.714  11.748  0.5964  0.6194  0.7468
 6795TIP3    H241877   6.812   4.694  11.822  1.2920  0.0294 -0.6122
 6796TIP3   OH241878   5.697   0.148   2.303  0.4881 -0.1435 -0.5385
 6796TIP3    H141879   5.762   0.080   2.320  0.3463  0.0855  1.0685
 6796TIP3    H241880   5.622   0.125   2.358  0.4092  1.2529 -0.0095
 6797TIP3   OH241881   4.533   4.587  12.558 -0.2055 -0.6780 -0.0162
 6797TIP3    H141882   4.438   4.595  12.543 -0.0358 -1.0196 -1.3687
 6797TIP3    H241883   4.559   4.673  12.593 -0.6727  0.1465 -1.6060
 6798TIP3   OH241884   6.611   5.221  13.975  0.0780 -0.4320  0.4236
 6798TIP3    H141885   6.526   5.178  13.964 -1.1371  1.6938  0.9440
 6798TIP3    H241886   6.597   5.284  14.046  1.9133  0.4066  0.0899
 6799TIP3   OH241887   0.649   5.352   0.120  0.1213 -0.4785 -0.4385
 6799TIP3    H141888   0.658   5.339   0.215  1.3401  2.3345 -0.0683
 6799TIP3    H241889   0.733   5.323   0.084 -0.4320 -1.7769 -0.7193
 6800TIP3   OH241890   2.270   3.783   5.655  0.3587 -0.2871  0.3122
 6800TIP3    H141891   2.193   3.727   5.657  1.4094 -1.8726 -0.9923
 6800TIP3    H241892   2.341   3.726   5.625  2.2172  0.9219  2.0695
 6801TIP3   OH241893   4.250   0.679   3.964  0.3456  0.6856 -0.3633
 6801TIP3    H141894   4.209   0.721   3.888 -1.2016 -1.0562 -0.5831
 6801TIP3    H241895   4.297   0.604   3.927  0.7815  0.6518  0.2548
 6802TIP3   OH241896   1.096   0.139   0.792  0.5531 -1.2215 -0.3959
 6802TIP3    H141897   1.113   0.143   0.698 -1.5902 -0.8922 -0.8135
 6802TIP3    H241898   1.181   0.119   0.831  1.9837  0.9743 -2.1884
 6803TIP3   OH241899   2.645   1.102   3.671 -0.3092  0.2241 -0.5253
 6803TIP3    H141900   2.638   1.154   3.751 -2.0157  0.0159 -0.5164
 6803TIP3    H241901   2.724   1.136   3.628 -0.4273  1.6462  0.3043
 6804TIP3   OH241902   6.138   2.077  13.758  0.0310  0.1884 -0.0329
 6804TIP3    H141903   6.203   2.127  13.709  0.1764 -0.9049 -0.9898
 6804TIP3    H241904   6.061   2.076  13.702  0.0888 -0.8006 -0.0992
 6805TIP3   OH241905   2.230   0.331  14.851  0.8078  0.0385 -0.3246
 6805TIP3    H141906   2.253   0.405  14.795 -0.7539  0.2855 -0.7134
 6805TIP3    H241907   2.202   0.263  14.789  0.3825 -0.1779  0.0990
 6806TIP3   OH241908   4.317   1.621  12.284 -0.0195 -0.4791  0.1420
 6806TIP3    H141909   4.300   1.581  12.198 -0.5514 -0.1325  0.0810
 6806TIP3    H241910   4.267   1.567  12.345  0.8900 -1.1336  0.3355
 6807TIP3   OH241911   2.506   2.953  15.761 -0.7101 -0.1378  0.1010
 6807TIP3    H141912   2.440   2.982  15.825 -1.0517 -0.2725 -0.1892
 6807TIP3    H241913   2.589   2.967  15.805 -0.9207  0.2979  0.3669
 6808TIP3   OH241914   0.423   4.912  14.012  0.0524 -0.2343  0.1430
 6808TIP3    H141915   0.448   4.957  14.093 -0.8482  0.5419  0.0051
 6808TIP3    H241916   0.506   4.892  13.969  0.5162  2.5422 -0.4521
 6809TIP3   OH241917   0.545   1.988  13.087 -0.0324 -0.0977 -0.4407
 6809TIP3    H141918   0.479   1.921  13.071 -0.4559  0.7439 -2.4999
 6809TIP3    H241919   0.577   2.012  13.000  1.7343  0.7774  0.3903
 6810TIP3   OH241920   6.709   0.738   1.638 -0.2917 -0.1361 -0.1815
 6810TIP3    H141921   6.660   0.805   1.590  1.9249  3.1537  1.7216
 6810TIP3    H241922   6.666   0.734   1.723  0.6211  0.2012  0.3068
 6811TIP3   OH241923   4.709   5.859   5.952  0.1914  0.6779 -0.4171
 6811TIP3    H141924   4.798   5.828   5.968  0.3990  1.0470 -0.8175
 6811TIP3    H241925   4.721   5.942   5.906 -0.3432  1.3580  0.6317
 6812TIP3   OH241926   3.566   3.187   2.934 -0.1371 -0.2151  0.1956
 6812TIP3    H141927   3.593   3.244   2.862  0.6132 -0.4879  0.2479
 6812TIP3    H241928   3.474   3.209   2.949 -0.6057 -0.8472 -1.4888
 6813TIP3   OH241929   1.566   3.290  12.228 -0.3478 -0.3274 -0.0300
 6813TIP3    H141930   1.567   3.254  12.316  0.9505  0.8935  0.5019
 6813TIP3    H241931   1.565   3.214  12.170  2.5121 -1.3131  1.0278
 6814TIP3   OH241932   6.785   0.660   0.455  0.2101 -0.2112 -0.1913
 6814TIP3    H141933   6.751   0.650   0.366 -0.5355 -2.7955  0.3115
 6814TIP3    H241934   6.708   0.684   0.507  0.1168 -1.1461  0.1260
 6815TIP3   OH241935   2.743   3.712   3.043 -0.4666 -0.5101  0.7937
 6815TIP3    H141936   2.681   3.644   3.072 -0.1664 -1.4615 -0.6559
 6815TIP3    H241937   2.797   3.668   2.978  2.3752  0.0301  2.6364
 6816TIP3   OH241938   4.942   3.907   1.705  0.4469 -0.3614 -0.0750
 6816TIP3    H141939   4.968   3.990   1.665  1.9387 -0.5428  0.4855
 6816TIP3    H241940   4.911   3.854   1.632 -2.0263  1.1733 -0.2803
 6817TIP3   OH241941   6.648   6.146  12.601  0.5001 -0.1329  0.0438
 6817TIP3    H141942   6.657   6.229  12.554  1.8831  0.1576  0.7588
 6817TIP3    H241943   6.583   6.164  12.669  0.3890  0.2020 -0.1459
 6818TIP3   OH241944   1.173   0.324   5.155 -0.2631 -0.3796  0.1009
 6818TIP3    H141945   1.084   0.338   5.187 -0.4236 -1.4052  0.1194
 6818TIP3    H241946   1.185   0.229   5.158  1.0774 -0.2094  0.7594
 6819TIP3   OH241947   1.740   3.226   1.067  0.1603  0.1090  0.5585
 6819TIP3    H141948   1.835   3.225   1.078  0.1199  1.4897  1.1569
 6819TIP3    H241949   1.724   3.300   1.007 -0.3700 -1.5688 -1.5028
 6820TIP3   OH241950   3.342   0.943  12.219  0.5750 -0.2110  0.4250
 6820TIP3    H141951   3.255   0.975  12.196  0.9840  1.1562  0.6890
 6820TIP3    H241952   3.327   0.879  12.289 -0.1609  0.6789  1.1039
 6821TIP3   OH241953   4.051   4.307   4.978  0.2796  0.0119 -0.4620
 6821TIP3    H141954   4.000   4.262   4.911  0.8197 -0.7278 -0.3956
 6821TIP3    H241955   4.012   4.278   5.061  0.1767  0.2243 -0.4367
 6822TIP3   OH241956   1.499   5.229   6.456 -0.3874  0.7902  0.2383
 6822TIP3    H141957   1.535   5.302   6.505  1.6924 -0.4765  0.7301
 6822TIP3    H241958   1.498   5.156   6.518 -0.7125 -0.0518 -0.7158
 6823TIP3   OH241959   6.346   2.278   5.154  0.4478 -0.0617  0.2008
 6823TIP3    H141960   6.394   2.343   5.206  1.0908  0.3292 -0.8388
 6823TIP3    H241961   6.339   2.202   5.211  2.1548 -0.0603  0.4801
 6824TIP3   OH241962   3.931   2.997  16.418 -0.1613  0.0691  0.0028
 6824TIP3    H141963   3.908   2.975  16.328 -0.9241 -0.0589  0.2250
 6824TIP3    H241964   4.023   2.971  16.425  0.3795  1.5120 -1.1920
 6825TIP3   OH241965   5.629   6.391   0.457 -0.7305  0.0856  0.0709
 6825TIP3    H141966   5.569   6.465   0.456 -0.8576 -0.0094  0.5747
 6825TIP3    H241967   5.714   6.429   0.478 -0.8945  0.0252  0.8858
 6826TIP3   OH241968   2.302   0.608   4.938 -0.6004 -0.3560 -0.0912
 6826TIP3    H141969   2.293   0.532   4.880  3.4324  0.9471 -2.8951
 6826TIP3    H241970   2.214   0.647   4.940 -1.7519 -2.5158 -2.4069
 6827TIP3   OH241971   3.502   2.148  16.991 -0.2881  0.2662  0.0209
 6827TIP3    H141972   3.554   2.137  16.912  0.5404 -1.0759  0.7046
 6827TIP3    H241973   3.557   2.200  17.050  0.5013 -1.4344  0.8695
 6828TIP3   OH241974   5.242   0.823   5.185  0.4503 -0.2849 -0.1999
 6828TIP3    H141975   5.332   0.797   5.166  0.6231 -1.3576  1.8438
 6828TIP3    H241976   5.229   0.800   5.277 -1.0262  2.3664  0.3640
 6829TIP3   OH241977   6.226   0.803   1.291  0.0828  0.3620  0.2506
 6829TIP3    H141978   6.219   0.842   1.204  0.2113 -0.3695 -0.0931
 6829TIP3    H241979   6.223   0.878   1.351 -1.0791  0.7962 -0.3223
 6830TIP3   OH241980   4.833   3.119  14.176 -0.3145  0.3095 -0.6066
 6830TIP3    H141981   4.891   3.165  14.237  1.8438 -0.5533 -1.8580
 6830TIP3    H241982   4.845   3.164  14.092 -2.7550  1.0895 -0.6166
 6831TIP3   OH241983   5.959   5.433  14.119  0.4605  0.0039 -0.1064
 6831TIP3    H141984   5.997   5.367  14.178  0.5964  0.7182  0.6211
 6831TIP3    H241985   5.891   5.385  14.072  0.0981 -0.5116  0.8958
 6832TIP3   OH241986   1.672   2.627   3.545 -0.0480 -0.1197  0.3241
 6832TIP3    H141987   1.623   2.580   3.612 -1.2408  0.1790 -0.3055
 6832TIP3    H241988   1.622   2.708   3.531 -0.1188 -0.3954 -1.2486
 6833TIP3   OH241989   3.612   2.024  13.470 -0.1970 -0.8284  0.0747
 6833TIP3    H141990   3.605   1.987  13.558 -0.8912 -0.3192  0.2393
 6833TIP3    H241991   3.695   2.071  13.471  0.3665 -1.7910  0.0761
 6834TIP3   OH241992   6.718   5.977  15.499  0.4563 -0.1832  0.2007
 6834TIP3    H141993   6.650   5.915  15.525  1.4686 -1.1413  0.6681
 6834TIP3    H241994   6.779   5.925  15.446  0.1576  0.9702 -1.3407
 6835TIP3   OH241995   4.760   6.696   4.747 -0.4468 -0.3285 -0.3668
 6835TIP3    H141996   4.740   6.780   4.789 -0.6720 -1.0149  0.9181
 6835TIP3    H241997   4.720   6.630   4.803 -1.9510 -1.2283 -2.3555
 6836TIP3   OH241998   4.145   5.268   2.863 -0.0996  0.7041  0.0539
 6836TIP3    H141999   4.052   5.245   2.858 -0.0898  0.6991 -0.1401
 6836TIP3    H242000   4.150   5.353   2.820  0.0062  0.6426 -0.0562
 6837TIP3   OH242001   4.975   4.458   1.844  0.2986  0.4616 -0.1339
 6837TIP3    H142002   5.057   4.453   1.893  1.0012 -0.2761 -1.3223
 6837TIP3    H242003   4.946   4.549   1.855  1.7667  0.9916 -0.4350
 6838TIP3   OH242004   2.799   6.251   5.026 -0.3303  0.0232  0.3439
 6838TIP3    H142005   2.736   6.180   5.014  1.2157 -1.2928 -0.3921
 6838TIP3    H242006   2.834   6.237   5.114  1.0426 -1.0851 -0.3401
 6839TIP3   OH242007   4.502   4.051   1.590 -0.3213  0.1855 -0.7712
 6839TIP3    H142008   4.505   4.073   1.496 -0.7248 -0.2907 -0.8988
 6839TIP3    H242009   4.448   4.119   1.629 -0.7612 -0.0265 -1.0063
 6840TIP3   OH242010   6.135   4.441  11.297  0.0342 -0.4287 -0.3513
 6840TIP3    H142011   6.084   4.455  11.218  0.6713 -0.1515 -0.7167
 6840TIP3    H242012   6.197   4.371  11.274  2.5211  1.8895 -1.2285
 6841TIP3   OH242013   0.559   4.599   1.484 -0.0417 -0.1027 -0.4091
 6841TIP3    H142014   0.604   4.588   1.568  0.9550 -1.0247 -1.0311
 6841TIP3    H242015   0.541   4.693   1.477 -0.1702 -0.0242  0.8374
 6842TIP3   OH242016   3.664   1.579  11.762 -0.4675  0.0890  0.2505
 6842TIP3    H142017   3.681   1.642  11.692  0.7018 -1.7250 -1.1773
 6842TIP3    H242018   3.601   1.517  11.725  1.3830 -1.8346  0.1320
 6843TIP3   OH242019   4.285   6.462   1.470 -0.2186  0.0115  0.7711
 6843TIP3    H142020   4.284   6.371   1.442 -0.1466  0.2537 -0.0443
 6843TIP3    H242021   4.281   6.458   1.565 -2.4344 -0.7764  0.6845
 6844TIP3   OH242022   5.806   2.791   6.517 -0.0977 -0.1161 -0.0461
 6844TIP3    H142023   5.766   2.861   6.568 -0.3595  0.2338 -0.7156
 6844TIP3    H242024   5.898   2.815   6.510 -0.0803 -0.1172  0.1747
 6845TIP3   OH242025   0.935   5.182   3.317 -0.3647 -0.0858 -0.2073
 6845TIP3    H142026   0.926   5.259   3.261 -0.4370  0.1915  0.1806
 6845TIP3    H242027   1.029   5.175   3.332 -0.5032  2.0306  2.6006
 6846TIP3   OH242028   1.006   4.657   1.117 -0.6141  0.0832 -0.0905
 6846TIP3    H142029   1.001   4.661   1.213 -0.6168  0.3202 -0.1003
 6846TIP3    H242030   0.915   4.644   1.089 -0.5232 -0.7807 -0.0271
 6847TIP3   OH242031   1.114   1.031   2.260 -0.8825 -0.1388  0.3036
 6847TIP3    H142032   1.132   0.937   2.252  1.4528  0.2620  0.2246
 6847TIP3    H242033   1.187   1.065   2.311 -2.0513  1.5571  0.9450
 6848TIP3   OH242034   0.528   5.614   3.334  0.0870  0.1970  0.0637
 6848TIP3    H142035   0.522   5.709   3.330  0.3897  0.1874 -0.7112
 6848TIP3    H242036   0.452   5.583   3.284  1.1540  0.0467 -1.5037
 6849TIP3   OH242037   4.394   5.961  15.894  0.4567 -0.0815 -0.1898
 6849TIP3    H142038   4.341   5.888  15.861 -1.7978  1.0860  0.6054
 6849TIP3    H242039   4.391   5.952  15.990  1.0294  0.4686 -0.1083
 6850TIP3   OH242040   2.273   3.313  13.428 -0.1284  0.3945  0.3555
 6850TIP3    H142041   2.310   3.370  13.360  0.9269  0.2923  0.8218
 6850TIP3    H242042   2.281   3.225  13.392  0.5567  0.3278  0.6537
 6851TIP3   OH242043   1.574   0.042   6.093  0.4574  0.1842  0.1656
 6851TIP3    H142044   1.614   0.009   6.173 -0.3848 -2.2758 -0.3432
 6851TIP3    H242045   1.620  -0.004   6.022  1.1663  2.2870 -0.8061
 6852TIP3   OH242046   0.452   1.418  17.301  0.1624 -0.1364  0.0611
 6852TIP3    H142047   0.547   1.415  17.305  0.1582  0.6580  1.1830
 6852TIP3    H242048   0.427   1.488  17.362 -0.9922  1.7396 -2.3570
 6853TIP3   OH242049   1.445   3.562  13.200  0.1653  0.7244  0.5294
 6853TIP3    H142050   1.502   3.621  13.151  0.3846 -0.2159 -0.3783
 6853TIP3    H242051   1.359   3.573  13.161  0.4462 -0.4222 -0.4754
 6854TIP3   OH242052   4.599   5.029   3.546 -1.0269 -0.4403 -0.3692
 6854TIP3    H142053   4.521   5.020   3.601 -1.2846 -0.4504 -0.7297
 6854TIP3    H242054   4.672   5.013   3.605 -1.2158  1.0516  0.3160
 6855TIP3   OH242055   6.238   4.572   1.083 -0.8396  0.6263 -0.0101
 6855TIP3    H142056   6.202   4.539   1.165  0.5986 -0.4739  0.2149
 6855TIP3    H242057   6.293   4.646   1.109  1.8464 -1.3746  0.4680
 6856TIP3   OH242058   2.255   5.444   2.272 -0.2013 -0.4412  0.1696
 6856TIP3    H142059   2.258   5.459   2.178  0.7569 -0.0594  0.2519
 6856TIP3    H242060   2.244   5.349   2.282  1.4665 -0.7189 -0.3327
 6857TIP3   OH242061   2.693   4.585  13.082 -0.3632 -0.2243  0.1493
 6857TIP3    H142062   2.703   4.492  13.066 -0.8872 -0.2928  0.2124
 6857TIP3    H242063   2.600   4.603  13.067 -0.1486  0.4095 -0.5020
 6858TIP3   OH242064   2.395   6.083  10.692 -0.0830  0.3634  0.2559
 6858TIP3    H142065   2.351   6.166  10.709 -0.4496  0.1068  0.6006
 6858TIP3    H242066   2.374   6.062  10.601  0.1692  0.7386  0.1092
 6859TIP3   OH242067   4.121   5.202  11.128 -0.2045  0.6311 -0.1662
 6859TIP3    H142068   4.174   5.260  11.181  1.0567 -0.4738 -0.1720
 6859TIP3    H242069   4.053   5.169  11.188 -0.6164  1.6711 -0.0390
 6860TIP3   OH242070   5.334   1.643   2.443  0.1206  0.0610 -0.1224
 6860TIP3    H142071   5.392   1.703   2.396  1.6124 -0.7704  0.5913
 6860TIP3    H242072   5.246   1.679   2.430  0.5961  0.4916 -2.5551
 6861TIP3   OH242073   6.143   1.584   4.276 -0.5619 -0.1797 -0.1679
 6861TIP3    H142074   6.162   1.666   4.230 -2.0057  1.3871  1.8505
 6861TIP3    H242075   6.215   1.576   4.339 -0.4907 -0.4004 -0.2776
 6862TIP3   OH242076   0.397   2.859  15.097  0.0649  0.0122 -0.0272
 6862TIP3    H142077   0.436   2.813  15.171  1.1937 -1.0557 -1.2362
 6862TIP3    H242078   0.361   2.939  15.134 -1.0627 -1.3469  1.9891
 6863TIP3   OH242079   6.067   4.579   5.633 -0.1353  0.3436  0.6477
 6863TIP3    H142080   6.067   4.610   5.724  1.4629 -1.3973  1.3155
 6863TIP3    H242081   6.080   4.658   5.581  0.0635  1.2548  2.0243
 6864TIP3   OH242082   3.774   0.691   1.517  0.3249  0.1147 -0.6104
 6864TIP3    H142083   3.742   0.662   1.431  0.0247  0.2361 -0.5402
 6864TIP3    H242084   3.742   0.781   1.525  0.3576  0.1050 -0.3724
 6865TIP3   OH242085   5.950   2.029   5.021  0.4421  0.8792  0.1024
 6865TIP3    H142086   5.869   1.977   5.024 -0.1866  1.8812  0.9485
 6865TIP3    H242087   5.988   2.020   5.108  0.5587  1.4785  0.1179
 6866TIP3   OH242088   3.337   2.495  13.372 -0.2529  0.0272  0.0527
 6866TIP3    H142089   3.321   2.411  13.330  3.4421 -1.4891  1.2406
 6866TIP3    H242090   3.343   2.558  13.301 -3.0925 -0.6011 -0.8608
 6867TIP3   OH242091   3.589   2.697   5.843 -0.1449  0.2419 -0.3869
 6867TIP3    H142092   3.629   2.618   5.880  2.6943  1.1468 -1.2798
 6867TIP3    H242093   3.594   2.761   5.914 -0.2872  0.2818 -0.4125
 6868TIP3   OH242094   5.780   4.667  11.914 -0.5689 -0.1186  0.5208
 6868TIP3    H142095   5.695   4.626  11.933 -0.3541 -0.4888  0.7061
 6868TIP3    H242096   5.831   4.597  11.873 -0.8709  0.5471 -1.0322
 6869TIP3   OH242097   5.845   5.442  15.818 -0.2918  0.4385  0.3264
 6869TIP3    H142098   5.801   5.378  15.762 -0.2582 -0.5810  1.4218
 6869TIP3    H242099   5.817   5.419  15.907  0.8848  1.0421  0.8717
 6870TIP3   OH242100   5.857   4.042  15.964  0.5262  0.8345 -0.2579
 6870TIP3    H142101   5.769   4.010  15.944  0.7329 -0.2161  0.4087
 6870TIP3    H242102   5.909   4.016  15.888  0.8361 -1.1356  0.5544
 6871TIP3   OH242103   2.320   2.556   4.928 -0.1296  0.0160 -0.5168
 6871TIP3    H142104   2.279   2.611   4.861  1.7032  0.7423 -1.0897
 6871TIP3    H242105   2.364   2.487   4.879 -0.3153 -0.5275  0.0666
 6872TIP3   OH242106   1.844   2.920  12.210  0.4461  0.5778 -0.0047
 6872TIP3    H142107   1.749   2.922  12.224  0.3299  1.9894 -0.8584
 6872TIP3    H242108   1.854   2.911  12.115  1.1884  0.1849  0.1019
 6873TIP3   OH242109   3.855   3.171  16.873  0.1024  0.0044 -0.3136
 6873TIP3    H142110   3.907   3.248  16.850 -0.0057  0.1352 -0.1185
 6873TIP3    H242111   3.818   3.142  16.789 -2.4486  2.0364 -0.0156
 6874TIP3   OH242112   3.671   5.917   0.996 -0.3106  0.5061  0.1371
 6874TIP3    H142113   3.651   5.826   1.019 -1.0079  1.0475  1.8770
 6874TIP3    H242114   3.656   5.921   0.901 -0.3469 -1.1554  0.0293
 6875TIP3   OH242115   1.898   0.258   3.988  0.1906  0.3658 -0.3689
 6875TIP3    H142116   1.990   0.256   3.962  0.2308  0.7263 -0.2629
 6875TIP3    H242117   1.849   0.264   3.906 -0.0083 -4.4273 -0.8704
 6876TIP3   OH242118   6.719   2.154   4.469 -0.3730 -0.2376  0.4852
 6876TIP3    H142119   6.812   2.170   4.487 -0.7087  1.1013  1.1445
 6876TIP3    H242120   6.719   2.082   4.406  1.0861 -0.6648  0.9274
 6877TIP3   OH242121   2.121   0.912   1.807 -0.0328 -0.1901  0.1771
 6877TIP3    H142122   2.158   0.847   1.867  0.0703 -0.4637 -0.1801
 6877TIP3    H242123   2.155   0.996   1.838 -1.6296 -0.0711  1.7934
 6878TIP3   OH242124   2.397   2.092   6.082  0.6459  0.4403  0.0621
 6878TIP3    H142125   2.464   2.155   6.056  0.2020  0.4993 -1.0119
 6878TIP3    H242126   2.338   2.142   6.138  1.0859  0.5811  0.4106
 6879TIP3   OH242127   4.626   6.055  16.362  0.0875  0.1743  0.2952
 6879TIP3    H142128   4.651   5.986  16.423 -0.7649  0.0474  0.5201
 6879TIP3    H242129   4.695   6.121  16.370  0.4430 -0.2445  0.7386
 6880TIP3   OH242130   3.005   4.203   0.806  0.2392  0.3219  0.3064
 6880TIP3    H142131   3.018   4.298   0.800  2.2603  0.1687  1.4244
 6880TIP3    H242132   2.983   4.176   0.716  1.8003  1.5841 -0.5049
 6881TIP3   OH242133   6.463   1.054  13.352 -0.7827 -0.2766  0.0118
 6881TIP3    H142134   6.521   1.101  13.292 -0.5270 -1.1667 -0.4578
 6881TIP3    H242135   6.468   0.962  13.323 -2.3736 -0.3862 -0.0064
 6882TIP3   OH242136   2.543   3.906  13.544 -0.1237 -0.5463  0.8299
 6882TIP3    H142137   2.581   3.873  13.463 -1.8377 -2.4691  0.7021
 6882TIP3    H242138   2.535   4.000  13.531  0.7617 -0.6616 -0.7333
 6883TIP3   OH242139   2.555   6.555   6.532  0.5323  0.4075  0.1180
 6883TIP3    H142140   2.478   6.499   6.542  0.3095  0.4901 -1.0774
 6883TIP3    H242141   2.561   6.601   6.616 -0.1093 -0.3534  0.5983
 6884TIP3   OH242142   6.493   6.205  13.509 -0.2921  0.5596  0.2592
 6884TIP3    H142143   6.412   6.230  13.552 -1.3177  0.7111 -1.6783
 6884TIP3    H242144   6.516   6.280  13.454  1.0241  0.4023  0.5518
 6885TIP3   OH242145   6.622   4.504   5.561  0.0465  0.4041 -0.0748
 6885TIP3    H142146   6.615   4.579   5.621 -0.6806  1.0415 -0.9193
 6885TIP3    H242147   6.533   4.471   5.554  0.0586  0.5485 -1.0502
 6886TIP3   OH242148   0.281   0.549  12.590 -0.3341  0.8150 -0.0932
 6886TIP3    H142149   0.352   0.507  12.541 -1.1741  0.3095 -0.9008
 6886TIP3    H242150   0.273   0.635  12.550 -0.0837  0.9274  0.0953
 6887TIP3   OH242151   0.653   0.370  16.340  0.0851  0.2316 -0.1574
 6887TIP3    H142152   0.560   0.361  16.360  0.0501 -0.7397 -0.7135
 6887TIP3    H242153   0.669   0.306  16.271  1.5239 -0.7633  1.0475
 6888TIP3   OH242154   6.417   3.751  15.352  0.2473  0.2922  0.5948
 6888TIP3    H142155   6.484   3.684  15.336  0.4387  0.4015  0.9167
 6888TIP3    H242156   6.411   3.799  15.269 -0.9562 -1.0397 -0.1345
 6889TIP3   OH242157   5.948   5.592   5.638 -0.5715  0.0639  0.2400
 6889TIP3    H142158   5.907   5.634   5.714 -0.0803  0.4531  0.2927
 6889TIP3    H242159   5.890   5.518   5.617 -0.9614  0.2365  0.6988
 6890TIP3   OH242160   2.896   1.661  16.932  0.2347  0.0576  0.2108
 6890TIP3    H142161   2.915   1.727  16.866 -2.8499  1.3060  0.4142
 6890TIP3    H242162   2.811   1.624  16.905  0.3286 -1.5096  1.8725
 6891TIP3   OH242163   0.411   3.103  15.280  0.1679 -0.8647 -0.0370
 6891TIP3    H142164   0.319   3.129  15.277  0.4268  1.3647  3.9761
 6891TIP3    H242165   0.460   3.183  15.262  1.1533 -0.8957  2.1093
 6892TIP3   OH242166   4.545   3.713  12.531 -0.6163  0.5294  0.1215
 6892TIP3    H142167   4.593   3.783  12.575 -0.8589  0.4611  0.5058
 6892TIP3    H242168   4.500   3.667  12.602 -1.5174  0.8010 -0.2605
 6893TIP3   OH242169   4.506   6.512  14.953 -0.0459 -0.4005 -0.4025
 6893TIP3    H142170   4.586   6.532  14.905  0.2191 -2.2957 -0.8254
 6893TIP3    H242171   4.520   6.550  15.040  1.3065 -0.6962 -0.4678
 6894TIP3   OH242172   2.038   2.456  16.323  0.4026 -0.2392 -0.0591
 6894TIP3    H142173   2.040   2.483  16.231  0.6683 -0.7505 -0.2063
 6894TIP3    H242174   2.130   2.460  16.351  0.4302 -0.8626 -0.0477
 6895TIP3   OH242175   2.982   6.612   3.986 -0.1468 -0.4185 -0.0985
 6895TIP3    H142176   2.904   6.614   4.041 -0.7771 -0.0642 -0.9742
 6895TIP3    H242177   2.951   6.578   3.902  0.7520 -0.7761 -0.2958
 6896TIP3   OH242178   1.623   4.508  16.619 -0.0325 -0.1999 -0.3234
 6896TIP3    H142179   1.652   4.548  16.701 -0.6594  0.2144 -0.3010
 6896TIP3    H242180   1.673   4.426  16.613  1.3859  0.6300 -0.4348
 6897TIP3   OH242181   6.561   2.806   1.316 -0.4173 -0.5268  0.1037
 6897TIP3    H142182   6.499   2.753   1.266  0.2164 -1.0738 -0.1152
 6897TIP3    H242183   6.522   2.894   1.316 -0.2758 -0.4262 -1.6394
 6898TIP3   OH242184   2.809   6.144   4.076 -0.2460 -0.2231  0.0433
 6898TIP3    H142185   2.806   6.050   4.094  0.0546 -0.2302  0.0556
 6898TIP3    H242186   2.815   6.150   3.981 -0.2126 -0.2181  0.0457
 6899TIP3   OH242187   2.790   2.773  11.827  0.3308 -0.0941  0.1138
 6899TIP3    H142188   2.815   2.729  11.745  0.0103 -0.2462  0.0971
 6899TIP3    H242189   2.835   2.857  11.823  1.5198 -0.6932  0.4742
 6900TIP3   OH242190   4.693   4.035  17.107  0.1024 -0.2258  0.2263
 6900TIP3    H142191   4.749   3.992  17.171  0.9708  0.8757  0.2321
 6900TIP3    H242192   4.610   4.048  17.153  0.4791 -0.0974  0.8829
 6901TIP3   OH242193   1.849   2.601   2.806  0.1256 -0.1204 -0.1882
 6901TIP3    H142194   1.888   2.623   2.722  0.2294  0.3965 -0.0062
 6901TIP3    H242195   1.772   2.658   2.813  1.3482  1.4504  1.0397
 6902TIP3   OH242196   5.604   4.937   5.960  0.5748 -0.4822  0.1417
 6902TIP3    H142197   5.558   5.014   5.925  1.7076 -0.1943 -0.7679
 6902TIP3    H242198   5.555   4.863   5.925  0.3332 -0.1783 -0.1784
 6903TIP3   OH242199   6.206   4.589  14.974 -0.1578 -0.2280 -0.2732
 6903TIP3    H142200   6.205   4.586  15.069 -0.0963  0.5604 -0.2424
 6903TIP3    H242201   6.298   4.579  14.950 -0.2384 -0.9899 -0.2742
 6904TIP3   OH242202   1.418   1.920  11.777 -0.0697 -0.5798  0.3502
 6904TIP3    H142203   1.361   1.933  11.701 -1.2963  2.0536  1.5610
 6904TIP3    H242204   1.505   1.942  11.745 -0.4271 -0.4086 -0.5425
 6905TIP3   OH242205   5.277   4.428  14.304 -0.5614 -0.2510  0.5320
 6905TIP3    H142206   5.298   4.509  14.349  1.0148 -1.2711  1.7485
 6905TIP3    H242207   5.302   4.359  14.366  0.5043 -1.6903 -1.3752
 6906TIP3   OH242208   6.748   5.354   3.337 -0.2943 -0.2669 -0.5069
 6906TIP3    H142209   6.808   5.415   3.382 -0.1673 -0.3276 -0.5941
 6906TIP3    H242210   6.800   5.319   3.265 -0.6349  0.1516 -0.9550
 6907TIP3   OH242211   0.252   3.030   1.286  0.1086 -0.0328  0.3136
 6907TIP3    H142212   0.243   3.014   1.192 -0.3400  0.8215  0.2047
 6907TIP3    H242213   0.165   3.059   1.314  0.8478  2.2458  0.4644
 6908TIP3   OH242214   4.763   5.182  14.434  0.3586  0.2813  0.7304
 6908TIP3    H142215   4.737   5.093  14.408  1.9392  0.1795 -0.6764
 6908TIP3    H242216   4.812   5.215  14.359 -1.4946  2.9711  0.5756
 6909TIP3   OH242217   4.012   2.200   6.429 -0.1348  0.2638 -0.2074
 6909TIP3    H142218   4.106   2.182   6.429  0.1142  0.8977 -3.4833
 6909TIP3    H242219   3.971   2.115   6.444  0.9668 -0.2719 -0.1373
 6910TIP3   OH242220   5.296   4.176   5.772 -0.1095  0.0754  0.0264
 6910TIP3    H142221   5.266   4.185   5.863 -0.3607  0.0747 -0.0555
 6910TIP3    H242222   5.234   4.115   5.733  0.3328 -0.3775  0.0066
 6911TIP3   OH242223   0.237   4.960  11.660 -0.1231  0.0075  1.0223
 6911TIP3    H142224   0.184   4.929  11.733  0.2482 -0.8629  0.9362
 6911TIP3    H242225   0.318   4.991  11.701 -0.2053  0.1837  1.0483
 6912TIP3   OH242226   4.943   3.915   2.739  0.0262 -0.1374  0.2053
 6912TIP3    H142227   4.886   3.985   2.708 -1.3373 -1.6352 -0.8800
 6912TIP3    H242228   4.883   3.846   2.767  1.2966 -0.3816  2.5693
 6913TIP3   OH242229   5.540   3.604  16.439 -0.0765  0.2912 -0.5866
 6913TIP3    H142230   5.621   3.582  16.485 -0.4607  0.2923  0.0997
 6913TIP3    H242231   5.556   3.577  16.348 -0.2981 -2.3618  0.0717
 6914TIP3   OH242232   0.079   6.073  15.207 -1.0626 -0.1791 -0.3725
 6914TIP3    H142233  -0.013   6.085  15.183 -1.5927 -1.2234  0.9970
 6914TIP3    H242234   0.077   6.009  15.278  0.3139  2.7371  2.6180
 6915TIP3   OH242235   2.587   0.175  16.646 -0.1559  0.7595  0.2176
 6915TIP3    H142236   2.544   0.184  16.731  0.6721  2.1350  0.5195
 6915TIP3    H242237   2.680   0.175  16.665  0.0616 -2.2700 -0.4312
 6916TIP3   OH242238   5.189   5.638  15.285 -0.0334 -0.1478  0.0460
 6916TIP3    H142239   5.276   5.658  15.252 -0.3619 -0.5889 -1.1345
 6916TIP3    H242240   5.152   5.723  15.307  0.2012  0.1682 -0.7372
 6917TIP3   OH242241   5.443   0.891   3.024  0.2789 -0.1400  0.9156
 6917TIP3    H142242   5.422   0.948   3.098 -0.6999  0.1636  0.4142
 6917TIP3    H242243   5.412   0.939   2.947  2.4727  0.1738  0.1390
 6918TIP3   OH242244   5.234   2.952   2.318  0.0985  0.5010 -0.1777
 6918TIP3    H142245   5.162   2.967   2.256 -0.7507  1.1358  0.9162
 6918TIP3    H242246   5.306   2.920   2.264 -0.0405  2.6409 -1.7707
 6919TIP3   OH242247   4.021   6.413   0.653 -0.2614  0.2720  0.4270
 6919TIP3    H142248   4.054   6.406   0.742  0.8609  0.6110  0.0476
 6919TIP3    H242249   4.015   6.507   0.637  1.1033  0.2397 -0.4022
 6920TIP3   OH242250   0.663   0.698  15.600  0.5451  0.2580  0.1669
 6920TIP3    H142251   0.580   0.746  15.603  0.3033  0.0196 -1.8136
 6920TIP3    H242252   0.728   0.763  15.627  0.1085  1.4870 -1.5419
 6921TIP3   OH242253   1.870   0.550   3.372 -0.0700  0.1530 -0.2707
 6921TIP3    H142254   1.899   0.503   3.293  1.4644 -1.3442  1.0827
 6921TIP3    H242255   1.907   0.637   3.363 -0.3339  0.1627 -1.4292
 6922TIP3   OH242256   0.243   5.885  11.483  0.3254 -0.3166  0.1930
 6922TIP3    H142257   0.158   5.870  11.524 -0.1456  1.0149 -0.2433
 6922TIP3    H242258   0.267   5.974  11.510  0.2824  0.3728 -1.8538
 6923TIP3   OH242259   2.911   0.706   5.025 -0.2395 -0.1798  0.4528
 6923TIP3    H142260   2.849   0.761   4.976  0.9843  3.2992  2.4492
 6923TIP3    H242261   2.856   0.642   5.070 -2.3373  1.9052  1.0825
 6924TIP3   OH242262   4.604   2.049   3.708 -0.2852  0.5119  0.1332
 6924TIP3    H142263   4.663   2.116   3.743 -0.1391  1.0852 -1.1256
 6924TIP3    H242264   4.630   1.969   3.753  0.5206  1.0303  0.6267
 6925TIP3   OH242265   0.257   5.712   4.996  0.4885  0.4902  0.3361
 6925TIP3    H142266   0.237   5.792   5.044  0.6046 -0.3633  1.8759
 6925TIP3    H242267   0.255   5.643   5.062  2.0438 -0.5548 -0.6258
 6926TIP3   OH242268   5.963   1.290  13.778  0.0716  0.2129  0.3558
 6926TIP3    H142269   5.890   1.231  13.794  0.7626 -1.7388 -2.8321
 6926TIP3    H242270   6.035   1.255  13.831 -0.8511  1.4413  2.5637
 6927TIP3   OH242271   5.028   2.180   5.489 -0.2717  0.1795  0.1867
 6927TIP3    H142272   5.056   2.093   5.515 -2.8510 -0.4571  1.1632
 6927TIP3    H242273   4.982   2.167   5.406  0.7723  0.9061 -0.5287
 6928TIP3   OH242274   0.767   1.873   3.329 -0.1057 -0.0317  0.0139
 6928TIP3    H142275   0.804   1.953   3.368  1.5041 -0.9212  0.3861
 6928TIP3    H242276   0.835   1.840   3.271 -1.2386 -0.4925 -1.1110
 6929TIP3   OH242277   2.011   1.730  13.358  0.5374  0.5195 -0.1951
 6929TIP3    H142278   2.051   1.656  13.313  0.8073  0.5567 -0.0176
 6929TIP3    H242279   1.946   1.692  13.417 -2.7411  0.5808 -3.3677
 6930TIP3   OH242280   4.567   0.649  12.712 -0.2108  0.5663  0.2342
 6930TIP3    H142281   4.609   0.566  12.691  1.6939  0.8559  2.4949
 6930TIP3    H242282   4.613   0.680  12.790 -3.8449  1.6027  2.1543
 6931TIP3   OH242283   4.386   1.790  15.365  0.4286 -0.1485  0.0320
 6931TIP3    H142284   4.378   1.886  15.371  0.1288 -0.1076 -0.8029
 6931TIP3    H242285   4.330   1.767  15.290 -0.1223 -1.0664  0.7142
 6932TIP3   OH242286   4.367   3.209   0.098 -0.3411  0.1119  0.4932
 6932TIP3    H142287   4.422   3.164   0.162  1.2271  0.5639 -0.4864
 6932TIP3    H242288   4.422   3.280   0.064 -0.4477 -1.1453 -2.6014
 6933TIP3   OH242289   0.676   6.391  12.081 -0.0552  0.2075  0.2279
 6933TIP3    H142290   0.733   6.315  12.069 -0.9055 -0.4998  0.5299
 6933TIP3    H242291   0.698   6.449  12.008 -1.3773 -1.6223 -1.7479
 6934TIP3   OH242292   1.921   3.454   3.660  0.6470  0.2249  0.2394
 6934TIP3    H142293   1.893   3.537   3.697 -0.2210 -0.1548  0.4473
 6934TIP3    H242294   1.841   3.415   3.624  0.8219 -1.0222  1.1276
 6935TIP3   OH242295   5.610   1.974   4.167 -0.3348  0.8161 -0.9872
 6935TIP3    H142296   5.613   2.027   4.088  3.1950 -0.7612 -2.1116
 6935TIP3    H242297   5.610   1.884   4.135  0.8336  0.1341  0.7817
 6936TIP3   OH242298   6.317   4.201  17.226  0.2521 -0.1579  0.1989
 6936TIP3    H142299   6.240   4.257  17.215 -1.0466 -1.6616  0.9648
 6936TIP3    H242300   6.355   4.194  17.139 -2.1536 -1.5514 -0.8444
 6937TIP3   OH242301   6.276   2.962   3.356 -0.2726 -0.1158  0.1828
 6937TIP3    H142302   6.306   3.045   3.320 -0.2230 -1.3846 -3.0810
 6937TIP3    H242303   6.336   2.944   3.429  3.4601  0.1268 -2.5252
 6938TIP3   OH242304   4.533   6.086  11.633 -0.2218  0.3034  0.2104
 6938TIP3    H142305   4.602   6.141  11.596 -0.4736  0.4087 -0.1077
 6938TIP3    H242306   4.476   6.147  11.681 -1.2885  0.5639 -1.2925
 6939TIP3   OH242307   5.836   4.572  17.267  0.4033 -0.0397  0.4655
 6939TIP3    H142308   5.907   4.513  17.292 -0.1869 -2.2784 -2.5152
 6939TIP3    H242309   5.880   4.644  17.223  0.9522 -1.2305 -1.0305
 6940TIP3   OH242310   3.943   6.090  12.311  0.2091  0.2007  0.7121
 6940TIP3    H142311   3.962   6.183  12.326 -0.9636  0.3683  1.2405
 6940TIP3    H242312   3.966   6.048  12.394 -0.0173  0.1323  0.7392
 6941TIP3   OH242313   5.378   3.063  13.133 -0.1126 -0.7309 -0.0109
 6941TIP3    H142314   5.428   3.053  13.213 -1.4820  1.8936  1.3226
 6941TIP3    H242315   5.444   3.063  13.063  1.4108 -0.4393  1.3628
 6942TIP3   OH242316   2.597   5.838   1.834  0.2283  0.1715 -0.6250
 6942TIP3    H142317   2.670   5.889   1.867 -0.1953  0.9038 -0.8115
 6942TIP3    H242318   2.591   5.862   1.741 -0.1260 -0.0349 -0.6568
 6943TIP3   OH242319   4.067   3.965   2.764  0.1952  0.6119  0.4042
 6943TIP3    H142320   4.022   4.008   2.837 -0.4173 -0.4644  0.6855
 6943TIP3    H242321   4.029   4.004   2.686 -1.0813 -0.1022  0.6415
 6944TIP3   OH242322   1.172   2.608   3.575 -0.1940  0.2313  0.3396
 6944TIP3    H142323   1.162   2.604   3.670 -1.5202  0.6858  0.2456
 6944TIP3    H242324   1.111   2.677   3.548  0.6906  0.6103 -0.7726
 6945TIP3   OH242325   2.069   3.851  11.980  0.0528 -0.3028 -0.3592
 6945TIP3    H142326   2.100   3.942  11.980 -1.6355  0.3215  0.0797
 6945TIP3    H242327   2.115   3.810  12.053  1.4936 -0.0631 -1.1111
 6946TIP3   OH242328   0.686   6.185   4.578 -0.2415 -0.3970 -0.2325
 6946TIP3    H142329   0.752   6.225   4.635  0.0958 -1.4489  0.1492
 6946TIP3    H242330   0.610   6.173   4.635 -0.2181 -0.6144 -0.2465
 6947TIP3   OH242331   3.675   6.739   4.403  0.4545 -0.5030  0.0631
 6947TIP3    H142332   3.736   6.666   4.390 -1.0441 -2.2733  2.1953
 6947TIP3    H242333   3.723   6.803   4.454  1.6076 -0.2362 -1.3104
 6948TIP3   OH242334   1.737   3.101   1.585  0.3336 -0.5248  0.0017
 6948TIP3    H142335   1.779   3.145   1.659 -0.6831  3.0169 -1.3234
 6948TIP3    H242336   1.647   3.087   1.614 -0.0769  0.9039 -0.5004
 6949TIP3   OH242337   1.360   1.460   1.120 -0.5441 -0.5403 -0.1567
 6949TIP3    H142338   1.277   1.461   1.071 -1.0511 -0.9978  0.6761
 6949TIP3    H242339   1.424   1.428   1.056 -0.8685  0.4634 -1.0129
 6950TIP3   OH242340   6.294   3.936   5.701 -0.1655  0.2111  0.3408
 6950TIP3    H142341   6.252   4.022   5.690  0.7317  0.6579  0.2459
 6950TIP3    H242342   6.272   3.910   5.790  0.7612  1.2416  0.8982
 6951TIP3   OH242343   6.155   3.587   4.385 -0.3171 -0.1610  0.7970
 6951TIP3    H142344   6.201   3.504   4.387  0.1546  0.0033 -0.9854
 6951TIP3    H242345   6.067   3.567   4.418  0.1341 -1.0992  1.4677
 6952TIP3   OH242346   2.248   0.345  10.864 -0.0529  0.1332 -0.1273
 6952TIP3    H142347   2.249   0.324  10.958 -0.4350 -0.0026 -0.1512
 6952TIP3    H242348   2.158   0.328  10.837 -0.1662  1.0032 -0.3343
 6953TIP3   OH242349   1.463   3.447   6.710 -0.2706 -0.3482  0.4875
 6953TIP3    H142350   1.534   3.506   6.737 -0.1892 -0.4896  0.5840
 6953TIP3    H242351   1.498   3.360   6.725 -0.1129 -0.4419 -0.3311
 6954TIP3   OH242352   0.371   5.429  15.386 -0.2203 -0.4285 -0.7403
 6954TIP3    H142353   0.427   5.506  15.392  0.0112 -0.6433  0.0267
 6954TIP3    H242354   0.323   5.440  15.304  0.9642 -0.2511 -1.4244
 6955TIP3   OH242355   6.222   2.179   0.229  0.2334 -0.3247 -0.1959
 6955TIP3    H142356   6.179   2.265   0.229 -2.1153 -1.3908 -2.1819
 6955TIP3    H242357   6.187   2.134   0.306 -1.2208 -0.6768 -1.0311
 6956TIP3   OH242358   5.459   1.525  12.633  0.4012 -0.2949 -0.2693
 6956TIP3    H142359   5.549   1.501  12.654 -0.6389 -3.9665  0.9081
 6956TIP3    H242360   5.456   1.529  12.538  1.8008 -0.0695 -0.3175
 6957TIP3   OH242361   2.406   2.364  17.267  0.1255 -0.5535  0.1193
 6957TIP3    H142362   2.336   2.299  17.269 -0.2004 -0.2005  0.6603
 6957TIP3    H242363   2.361   2.448  17.259  0.3264 -0.1520  2.3782
 6958TIP3   OH242364   2.996   2.233  15.336 -0.1665 -0.1726 -0.1103
 6958TIP3    H142365   3.072   2.286  15.312 -1.8349  3.1411  1.2654
 6958TIP3    H242366   3.029   2.170  15.400  1.3705  1.4539  0.7731
 6959TIP3   OH242367   2.476   5.664  17.261  0.2069 -0.1945  0.4828
 6959TIP3    H142368   2.418   5.740  17.250 -1.4504 -1.0646  2.6003
 6959TIP3    H242369   2.541   5.692  17.326  3.3147  1.2839 -2.9016
 6960TIP3   OH242370   1.151   5.322  15.688 -0.2091 -0.2671  0.0003
 6960TIP3    H142371   1.145   5.253  15.754 -0.8784 -0.2891 -0.0753
 6960TIP3    H242372   1.241   5.318  15.657 -0.5073 -1.7981 -0.7452
 6961TIP3   OH242373   5.053   3.016  16.030  0.1660  0.0084  1.0022
 6961TIP3    H142374   4.962   3.037  16.049 -0.1826  0.8669 -1.2596
 6961TIP3    H242375   5.054   2.921  16.018 -1.1507  0.2310 -1.8139
 6962TIP3   OH242376   1.743   6.590   1.257 -0.0213 -0.5824  0.1495
 6962TIP3    H142377   1.697   6.548   1.330  0.3150  0.4602  0.9892
 6962TIP3    H242378   1.675   6.641   1.213  0.0770  0.0089  0.6716
 6963TIP3   OH242379   4.052   1.369  10.584  0.3168  0.0207  0.1892
 6963TIP3    H142380   4.041   1.456  10.547  1.3219 -0.3555 -1.0611
 6963TIP3    H242381   4.139   1.371  10.625  0.7419 -0.6610 -0.6569
 6964TIP3   OH242382   4.208   1.879   2.364  0.2153  0.0528 -0.3404
 6964TIP3    H142383   4.278   1.814   2.369  0.4578  0.2448 -1.0940
 6964TIP3    H242384   4.137   1.842   2.417  1.0905  0.1247  0.9055
 6965TIP3   OH242385   4.114   3.491  11.251 -0.3921  0.0855 -0.6822
 6965TIP3    H142386   4.203   3.525  11.242 -0.0008 -1.0968 -1.5561
 6965TIP3    H242387   4.073   3.546  11.318  1.3627 -0.0990  0.5945
 6966TIP3   OH242388   2.483   0.673   6.261 -0.4695 -0.0216  0.2464
 6966TIP3    H142389   2.520   0.757   6.233 -0.7046 -0.2706 -0.8857
 6966TIP3    H242390   2.511   0.663   6.352 -1.3124  1.7581  0.7344
 6967TIP3   OH242391   1.801   5.890  11.679 -0.0414 -0.0743  0.0624
 6967TIP3    H142392   1.795   5.985  11.682 -2.7624 -0.1637  0.1647
 6967TIP3    H242393   1.831   5.870  11.591 -1.0668  0.8629 -0.5201
 6968TIP3   OH242394   3.497   6.290   3.901 -0.4482  0.4678  0.3282
 6968TIP3    H142395   3.460   6.246   3.978  1.3287  0.7036  1.3835
 6968TIP3    H242396   3.514   6.220   3.839 -2.7915  0.3756 -0.3161
 6969TIP3   OH242397   5.831   5.552   4.777 -0.4628  0.1164  0.2152
 6969TIP3    H142398   5.899   5.616   4.756  0.1112 -0.4763  0.2348
 6969TIP3    H242399   5.875   5.486   4.829 -0.7563 -0.9259 -0.8129
 6970TIP3   OH242400   6.504   6.177   0.311 -0.5367  0.4693  0.0114
 6970TIP3    H142401   6.504   6.103   0.371 -1.3637 -0.5795 -1.2359
 6970TIP3    H242402   6.412   6.204   0.306 -0.3530  1.0901 -0.1440
 6971TIP3   OH242403   5.097   2.607  13.133 -0.3321 -0.4302  0.0168
 6971TIP3    H142404   5.035   2.657  13.187 -1.2388  0.1873 -1.5377
 6971TIP3    H242405   5.163   2.671  13.107 -3.3177  1.1726 -4.8907
 6972TIP3   OH242406   0.966   3.413  10.993  0.1832 -0.2738  0.1809
 6972TIP3    H142407   0.961   3.414  11.089 -0.5055 -2.3587  0.2161
 6972TIP3    H242408   1.059   3.425  10.974  0.1835  1.3350  1.0398
 6973TIP3   OH242409   4.336   3.876  12.325  0.5616 -0.0893 -0.0333
 6973TIP3    H142410   4.263   3.936  12.336  0.8179  0.1916  0.1644
 6973TIP3    H242411   4.321   3.835  12.239 -0.3377 -0.7608  0.4263
 6974TIP3   OH242412   5.672   5.355  16.493  0.4846 -0.2662 -0.4959
 6974TIP3    H142413   5.642   5.327  16.407  0.4179  0.4499 -0.7160
 6974TIP3    H242414   5.593   5.353  16.548  0.3678  0.0148 -0.6505
 6975TIP3   OH242415   2.112   4.928  11.304 -0.7828 -0.5792 -0.3532
 6975TIP3    H142416   2.142   4.937  11.213 -1.0706 -0.6875 -0.4610
 6975TIP3    H242417   2.177   4.872  11.345  0.5215  1.1797  0.0773
 6976TIP3   OH242418   3.358   4.713   6.081  0.7436  0.0615 -0.1712
 6976TIP3    H142419   3.316   4.703   6.166 -0.3561 -0.3609 -0.7468
 6976TIP3    H242420   3.379   4.624   6.054  0.3315  0.1178 -0.7009
 6977TIP3   OH242421   2.203   0.725   6.216 -0.6004  0.0825  0.4027
 6977TIP3    H142422   2.179   0.726   6.309 -0.6285  1.8771  0.4228
 6977TIP3    H242423   2.286   0.677   6.213  0.3785  1.5724  1.6627
 6978TIP3   OH242424   5.745   3.510   1.780  0.1968  0.1479  0.0159
 6978TIP3    H142425   5.706   3.425   1.799  0.5467 -0.1632 -0.6326
 6978TIP3    H242426   5.832   3.506   1.821  0.5505 -0.1369 -0.7507
 6979TIP3   OH242427   4.530   1.789  11.847  0.4582 -0.2691  0.1594
 6979TIP3    H142428   4.555   1.730  11.918 -1.0564  0.1014  1.0357
 6979TIP3    H242429   4.466   1.848  11.886  1.0632  1.2283 -1.0071
 6980TIP3   OH242430   2.057   6.026  14.906 -0.9035  0.5526 -0.3326
 6980TIP3    H142431   2.091   6.010  14.817  2.7911 -2.0587  1.2944
 6980TIP3    H242432   2.083   6.116  14.925  2.2319 -0.1985 -0.5065
 6981TIP3   OH242433   0.172   5.615  13.512 -0.0761 -0.0558 -0.2779
 6981TIP3    H142434   0.120   5.535  13.521 -1.4411  0.6639 -1.3928
 6981TIP3    H242435   0.176   5.651  13.600  1.7156 -1.9942  0.5268
 6982TIP3   OH242436   0.575   1.491   1.639 -0.2592 -0.1553 -0.3895
 6982TIP3    H142437   0.512   1.419   1.640 -0.4156 -0.0257 -0.8376
 6982TIP3    H242438   0.640   1.465   1.574 -0.7999  0.5120 -1.2260
 6983TIP3   OH242439   2.051   2.296   3.303 -0.6293  0.1113  0.0731
 6983TIP3    H142440   2.140   2.276   3.273 -0.4992 -0.0448  0.5475
 6983TIP3    H242441   2.057   2.291   3.399 -1.1596  0.0707  0.1052
 6984TIP3   OH242442   4.569   0.817  16.898 -0.0202  0.1063 -0.0220
 6984TIP3    H142443   4.507   0.774  16.957  0.1810  1.0250  0.9070
 6984TIP3    H242444   4.650   0.822  16.948 -0.2138  2.0983  0.1802
 6985TIP3   OH242445   4.681   4.171  10.305  0.0628  0.5568 -0.0333
 6985TIP3    H142446   4.755   4.214  10.349 -0.0469  1.1220 -0.3991
 6985TIP3    H242447   4.712   4.156  10.216  0.9677 -2.2229  0.6417
 6986TIP3   OH242448   2.573   2.188  13.405  0.4565 -0.5498 -0.0814
 6986TIP3    H142449   2.528   2.189  13.321  0.5373  1.2206 -0.1424
 6986TIP3    H242450   2.661   2.221  13.386  0.4713 -0.0973  0.7076
 6987TIP3   OH242451   2.093   2.817   2.838 -0.3330  0.6102  0.2261
 6987TIP3    H142452   2.025   2.750   2.835 -1.0921  1.3625  0.3222
 6987TIP3    H242453   2.120   2.820   2.929  0.6193 -0.4401  0.0095
 6988TIP3   OH242454   4.477   5.046  16.575  0.2868  0.7646  0.0252
 6988TIP3    H142455   4.570   5.031  16.562 -0.1745  0.0241 -3.8302
 6988TIP3    H242456   4.437   4.960  16.565 -0.9973  1.5503 -2.5398
 6989TIP3   OH242457   5.931   4.736   5.036 -0.6819 -0.1197  0.1422
 6989TIP3    H142458   5.900   4.785   4.959 -0.3427  2.8560  1.7485
 6989TIP3    H242459   5.851   4.708   5.080 -0.8819 -1.4417 -1.0039
 6990TIP3   OH242460   5.813   5.692   2.188  0.1995 -0.0706 -0.1476
 6990TIP3    H142461   5.812   5.759   2.257  0.1108  0.1173 -0.3321
 6990TIP3    H242462   5.721   5.680   2.165  0.3205  0.9740 -1.3039
 6991TIP3   OH242463   4.107   3.988  11.945  0.6842  0.2796 -0.1377
 6991TIP3    H142464   4.088   3.996  11.851 -0.0483  1.0624  0.0555
 6991TIP3    H242465   4.144   4.073  11.969  3.0223 -0.6813 -0.1554
 6992TIP3   OH242466   3.659   2.735   3.683  0.2013  0.7183  0.1713
 6992TIP3    H142467   3.583   2.723   3.625  1.0204  1.1227 -1.0067
 6992TIP3    H242468   3.673   2.648   3.721 -0.3863  0.4632 -0.1721
 6993TIP3   OH242469   3.793   1.806   3.329  0.0032 -0.2382  0.0655
 6993TIP3    H142470   3.760   1.787   3.416  1.6498 -0.5068  0.6642
 6993TIP3    H242471   3.809   1.900   3.329  0.6754 -0.3505  0.3023
 6994TIP3   OH242472   6.471   3.886  13.884  0.1268 -0.1476  0.2860
 6994TIP3    H142473   6.534   3.958  13.876 -1.1527  1.2483  2.0732
 6994TIP3    H242474   6.513   3.825  13.945  1.3994 -1.2185 -1.5526
 6995TIP3   OH242475   1.946   2.182  13.672 -0.2044  0.1970 -0.0492
 6995TIP3    H142476   1.973   2.102  13.716 -0.9752  0.3159  0.6678
 6995TIP3    H242477   1.871   2.155  13.618  1.2022 -0.1164 -1.9456
 6996TIP3   OH242478   4.186   2.021   0.594  0.1533 -0.3158 -0.0384
 6996TIP3    H142479   4.124   2.091   0.576  2.0242  1.5996  0.4802
 6996TIP3    H242480   4.133   1.943   0.604 -2.0907  1.1243 -0.1016
 6997TIP3   OH242481   0.627   3.588  10.998 -0.1675  0.1048  0.2505
 6997TIP3    H142482   0.685   3.572  10.924 -1.4410  2.6988 -1.4662
 6997TIP3    H242483   0.682   3.630  11.064  0.4446  0.1775 -0.2958
 6998TIP3   OH242484   5.164   5.190  15.712 -0.7062 -0.0602 -0.1660
 6998TIP3    H142485   5.116   5.107  15.723  0.1041 -0.3855  1.1775
 6998TIP3    H242486   5.132   5.225  15.629 -3.0692 -0.3882  0.5152
 6999TIP3   OH242487   4.763   1.870   5.579 -0.1316 -0.4514 -0.6744
 6999TIP3    H142488   4.702   1.944   5.577 -0.5605 -0.8135 -2.3034
 6999TIP3    H242489   4.845   1.907   5.611 -1.0246  0.1692  0.9908
 7000TIP3   OH242490   1.514   4.599   0.375  0.0280 -0.0814 -0.2338
 7000TIP3    H142491   1.545   4.511   0.351  0.0656 -0.3413  0.7021
 7000TIP3    H242492   1.581   4.631   0.436 -0.6455  0.0710  0.4298
 7001TIP3   OH242493   6.272   6.189   3.846  0.4365  0.1713 -0.0329
 7001TIP3    H142494   6.365   6.192   3.823  0.4730  0.9332  0.1915
 7001TIP3    H242495   6.242   6.279   3.837 -0.4405 -0.1827 -0.7271
 7002TIP3   OH242496   1.434   1.964  13.477  0.2283  0.1179 -0.0438
 7002TIP3    H142497   1.357   1.930  13.431  2.0989 -1.7154 -2.0612
 7002TIP3    H242498   1.406   2.049  13.512 -3.0444 -1.0317  0.4494
 7003TIP3   OH242499   5.149   2.005   4.309  0.0795  0.2744 -0.0443
 7003TIP3    H142500   5.236   1.977   4.338  0.6858  1.6116 -0.4798
 7003TIP3    H242501   5.088   1.959   4.367  1.0600 -0.7671  0.2032
 7004TIP3   OH242502   5.721   6.684  11.244 -0.4255 -0.4962  0.1007
 7004TIP3    H142503   5.629   6.701  11.223 -0.7674 -0.8559  1.2006
 7004TIP3    H242504   5.720   6.663  11.338  0.9216  0.5540  0.3801
 7005TIP3   OH242505   3.633   1.858  10.807  0.0332 -0.4077  0.0697
 7005TIP3    H142506   3.638   1.933  10.747  0.7896 -0.8838 -0.4796
 7005TIP3    H242507   3.541   1.855  10.833 -0.3438 -0.2367 -1.1435
 7006TIP3   OH242508   0.820   5.914   4.277 -0.6081 -0.1608  0.5336
 7006TIP3    H142509   0.787   5.901   4.189 -1.9742 -0.1247  1.0153
 7006TIP3    H242510   0.832   5.825   4.312 -0.0952 -0.1746  0.3230
 7007TIP3   OH242511   4.049   6.605   5.536  0.1975  0.3082  0.0034
 7007TIP3    H142512   4.012   6.534   5.484  1.1412 -0.8477  0.8640
 7007TIP3    H242513   4.132   6.626   5.494 -0.5765  1.7099 -0.9048
 7008TIP3   OH242514   2.288   4.331  14.428 -0.0869 -0.4213 -0.4033
 7008TIP3    H142515   2.330   4.417  14.420  0.7532 -0.7267  0.5418
 7008TIP3    H242516   2.356   4.269  14.405 -0.3791 -0.8775 -0.0447
 7009TIP3   OH242517   2.357   5.490   3.728 -0.2881  0.3375  0.2658
 7009TIP3    H142518   2.422   5.454   3.788  0.3648 -0.2744 -0.7769
 7009TIP3    H242519   2.338   5.419   3.666 -0.4037  1.1546 -0.6743
 7010TIP3   OH242520   3.867   3.246  14.613  0.5101 -0.3519  0.1752
 7010TIP3    H142521   3.837   3.221  14.525 -2.0104  1.5578  0.3845
 7010TIP3    H242522   3.907   3.332  14.601  3.4792 -1.5849  0.4250
 7011TIP3   OH242523   6.137   1.231   2.603  0.0520 -0.0391 -0.1351
 7011TIP3    H142524   6.078   1.295   2.563  0.8792  1.4936  1.0070
 7011TIP3    H242525   6.194   1.204   2.531 -1.0791 -0.4243 -0.9097
 7012TIP3   OH242526   3.539   6.195   1.238  0.8183 -0.3214  0.1375
 7012TIP3    H142527   3.491   6.150   1.170  0.2743 -4.2703  2.8179
 7012TIP3    H242528   3.628   6.203   1.203 -0.2648  1.5979 -2.4981
 7013TIP3   OH242529   1.204   4.510  11.419 -0.0631 -0.0597 -0.2258
 7013TIP3    H142530   1.176   4.419  11.415 -1.0040  0.2450 -1.6273
 7013TIP3    H242531   1.164   4.550  11.341  1.0000  1.3536 -0.0825
 7014TIP3   OH242532   2.781   2.571  11.184 -0.0347  0.3377 -0.0405
 7014TIP3    H142533   2.733   2.502  11.139  0.8104 -0.1192 -0.2827
 7014TIP3    H242534   2.850   2.597  11.123 -1.7723  3.1767 -0.9849
 7015TIP3   OH242535   6.197   3.830  12.004 -0.1888 -0.1293  0.0067
 7015TIP3    H142536   6.139   3.785  12.065 -1.4063 -1.7664 -2.1957
 7015TIP3    H242537   6.285   3.801  12.028 -0.7442 -1.7034  0.2519
 7016TIP3   OH242538   3.681   2.595   2.940  0.5530  0.3220 -0.4877
 7016TIP3    H142539   3.651   2.589   2.849  0.7155 -0.8682 -0.4797
 7016TIP3    H242540   3.641   2.520   2.983  1.8334 -0.1045  0.0184
 7017TIP3   OH242541   1.332   3.400   6.047  0.2927 -0.2020  0.2437
 7017TIP3    H142542   1.366   3.466   6.107  0.2924 -0.7821  0.8987
 7017TIP3    H242543   1.273   3.448   5.989  2.1916  0.8419 -0.9381
 7018TIP3   OH242544   4.188   3.065  10.750 -0.0327  0.1242  0.1033
 7018TIP3    H142545   4.139   3.135  10.707 -2.0709 -1.1509  0.2131
 7018TIP3    H242546   4.199   2.998  10.683  2.2793  0.6316 -0.1271
 7019TIP3   OH242547   5.123   4.180  15.483 -0.5205 -0.7529  0.0793
 7019TIP3    H142548   5.139   4.197  15.575  0.3392 -1.2469  0.0358
 7019TIP3    H242549   5.173   4.100  15.464 -1.2609 -1.0650 -0.6381
 7020TIP3   OH242550   5.114   6.027   2.256  0.5403  0.4191  0.1177
 7020TIP3    H142551   5.146   6.093   2.318 -1.4354 -0.1971  1.9464
 7020TIP3    H242552   5.061   6.077   2.193  0.2796  0.7600  0.5983
 7021TIP3   OH242553   6.008   0.736   0.129 -0.1819 -0.4884 -0.1909
 7021TIP3    H142554   6.093   0.771   0.158 -0.0796 -0.3853 -0.5997
 7021TIP3    H242555   5.944   0.785   0.179 -0.0440  0.4148 -0.8697
 7022TIP3   OH242556   0.326   3.218  13.468  0.7369  1.0876 -0.1536
 7022TIP3    H142557   0.250   3.177  13.511  0.0587  2.9602  0.5443
 7022TIP3    H242558   0.401   3.189  13.520  0.4970 -0.5554 -0.6735
 7023TIP3   OH242559   6.020   3.031   1.874  0.1667 -0.1423  0.1946
 7023TIP3    H142560   6.108   3.002   1.850 -0.3029 -0.8254 -0.7374
 7023TIP3    H242561   5.981   3.060   1.792 -0.7644 -0.6006  0.4647
 7024TIP3   OH242562   4.870   0.001   3.670  0.5467  0.8811  0.1585
 7024TIP3    H142563   4.865   0.094   3.650  0.7283  0.5072 -1.7605
 7024TIP3    H242564   4.951  -0.029   3.628  0.5433 -0.1391  0.8353
 7025TIP3   OH242565   3.863   2.358   3.007 -0.1799  0.1688  0.1355
 7025TIP3    H142566   3.781   2.382   3.049 -0.1425  0.5134  0.0204
 7025TIP3    H242567   3.886   2.435   2.955  1.3697  0.9800  1.8988
 7026TIP3   OH242568   4.962   0.833  13.255 -0.0885  0.0359  0.2460
 7026TIP3    H142569   5.028   0.872  13.198 -1.5972  1.7367 -0.4293
 7026TIP3    H242570   4.942   0.749  13.215  1.0842 -0.1544  0.0265
 7027TIP3   OH242571   5.824   4.425  11.439 -0.3071 -0.2244  0.6283
 7027TIP3    H142572   5.887   4.450  11.506  0.5107  0.3612 -0.3475
 7027TIP3    H242573   5.863   4.453  11.356 -2.3439  1.2137  0.0799
 7028TIP3   OH242574   4.319   1.911  14.287  0.3114  0.0921 -0.2768
 7028TIP3    H142575   4.368   1.851  14.344 -0.6915 -0.1479  0.3521
 7028TIP3    H242576   4.328   1.873  14.199  1.8388  0.4426 -0.2993
 7029TIP3   OH242577   2.885   6.121   1.166  0.0407  0.1276  0.1107
 7029TIP3    H142578   2.889   6.029   1.192  0.2321  0.2243  0.4433
 7029TIP3    H242579   2.940   6.166   1.231 -3.1589  1.0349  2.4241
 7030TIP3   OH242580   6.709   1.741   2.555 -0.5171  0.3263  0.1297
 7030TIP3    H142581   6.730   1.788   2.636 -2.0132  0.5923  0.3954
 7030TIP3    H242582   6.624   1.777   2.528  0.7810  1.6691 -2.6471
 7031TIP3   OH242583   2.387   1.352  15.973  0.4662 -0.2537  0.1114
 7031TIP3    H142584   2.443   1.388  15.905 -1.0373  0.8876 -0.6077
 7031TIP3    H242585   2.319   1.305  15.925  0.0105 -0.3868  0.8729
 7032TIP3   OH242586   4.214   2.367   1.220 -0.2793  0.2929  0.1844
 7032TIP3    H142587   4.214   2.348   1.314  1.7324  0.1357  0.2135
 7032TIP3    H242588   4.299   2.334   1.190 -0.2237  1.7438 -1.3764
 7033TIP3   OH242589   2.174   5.671  12.337 -0.1239 -0.2265 -0.4380
 7033TIP3    H142590   2.229   5.680  12.259 -0.1091  2.0540 -0.2489
 7033TIP3    H242591   2.190   5.752  12.386 -1.2369 -0.9652  1.2128
 7034TIP3   OH242592   3.861   0.792  17.256  0.7089  0.2824  0.5226
 7034TIP3    H142593   3.819   0.795  17.342  0.9186  1.9989  0.6079
 7034TIP3    H242594   3.790   0.773  17.195  0.7776 -2.3605  1.1584
 7035TIP3   OH242595   0.902   4.868   1.274  0.7794 -0.4226  0.1654
 7035TIP3    H142596   0.909   4.802   1.343  2.0515 -0.3016  0.1624
 7035TIP3    H242597   0.991   4.902   1.263  0.2148  1.0320 -0.1011
 7036TIP3   OH242598   1.246   1.684  11.541  0.5496  0.2501  0.5479
 7036TIP3    H142599   1.192   1.607  11.521  0.0475  0.0425  2.4466
 7036TIP3    H242600   1.329   1.647  11.571  0.3650  0.4185  1.3010
 7037TIP3   OH242601   1.722   6.375   5.331  0.2233  0.1679  0.0565
 7037TIP3    H142602   1.681   6.306   5.278  1.3419  0.7683 -1.6415
 7037TIP3    H242603   1.662   6.385   5.405 -0.0943 -2.4712  0.2834
 7038TIP3   OH242604   4.949   6.006  12.135 -0.1728 -0.2247 -0.1305
 7038TIP3    H142605   4.941   6.091  12.091 -2.7268  0.2488  1.0475
 7038TIP3    H242606   4.974   5.945  12.066  0.6354  1.2830 -1.2276
 7039TIP3   OH242607   2.153   2.203  12.633  0.1838  0.3116  0.2994
 7039TIP3    H142608   2.204   2.145  12.577  0.0967  1.2187 -0.7592
 7039TIP3    H242609   2.191   2.194  12.720  1.4139  0.1239 -0.2439
 7040TIP3   OH242610   5.627   1.977   3.653 -0.4561 -0.3047  0.1257
 7040TIP3    H142611   5.555   1.967   3.590  0.1553 -1.7863 -0.4099
 7040TIP3    H242612   5.672   1.892   3.650 -0.0978 -0.2322  2.2006
 7041TIP3   OH242613   2.142   4.014   1.872  1.0279 -0.4232 -0.1821
 7041TIP3    H142614   2.176   3.980   1.955  1.6074 -0.6514 -0.5124
 7041TIP3    H242615   2.061   4.059   1.897  2.3917  1.5831  0.8712
 7042TIP3   OH242616   0.940   0.641   4.312  0.2484  0.0951  0.4244
 7042TIP3    H142617   0.888   0.664   4.235 -0.9178  0.8407  1.3932
 7042TIP3    H242618   0.984   0.560   4.288  0.3991  0.6308 -1.2404
 7043TIP3   OH242619   3.497   4.570  11.298 -0.4384 -0.1636  0.5203
 7043TIP3    H142620   3.592   4.565  11.310 -0.3093 -0.4389 -0.5463
 7043TIP3    H242621   3.474   4.659  11.325  0.3008  0.2985 -0.3591
 7044TIP3   OH242622   0.678   6.812  16.455  0.5612 -0.0703 -0.4687
 7044TIP3    H142623   0.734   6.830  16.531  0.8721  1.7734 -1.0799
 7044TIP3    H242624   0.590   6.805  16.490  1.1020 -3.9116  0.6486
 7045TIP3   OH242625   1.931   0.278   0.836  0.1587 -0.3115 -0.6715
 7045TIP3    H142626   1.979   0.329   0.771 -0.4258  2.6870  1.0761
 7045TIP3    H242627   1.997   0.248   0.897  0.3604 -0.5799 -1.0158
 7046TIP3   OH242628   5.146   2.407  14.756 -0.3378  0.2784 -0.2262
 7046TIP3    H142629   5.082   2.473  14.730 -0.7934  0.0304  0.2353
 7046TIP3    H242630   5.137   2.337  14.692 -1.9425 -0.6394  0.9343
 7047TIP3   OH242631   5.747   0.181  16.003  0.5714 -0.0421 -0.1167
 7047TIP3    H142632   5.746   0.271  16.035  0.3539  0.3375 -1.1793
 7047TIP3    H242633   5.808   0.136  16.061  0.4504  0.7128  0.6147
 7048TIP3   OH242634   0.835   1.882  12.974 -0.1915 -0.0193  0.0464
 7048TIP3    H142635   0.839   1.940  13.050 -2.1305 -0.1077  0.2651
 7048TIP3    H242636   0.775   1.926  12.913 -1.3528 -1.5505  0.0306
 7049TIP3   OH242637   1.952   1.915   6.101  0.0232 -0.6803  0.3988
 7049TIP3    H142638   1.909   1.918   6.187 -0.1613 -1.3645  0.3441
 7049TIP3    H242639   2.013   1.841   6.108  2.0752  0.9644  0.8473
 7050TIP3   OH242640   2.362   1.180   1.610  0.4518  0.4886  0.3985
 7050TIP3    H142641   2.389   1.089   1.598 -0.1720  0.2148  0.9820
 7050TIP3    H242642   2.375   1.221   1.525  0.0909 -0.3154 -0.0538
 7051TIP3   OH242643   0.408   0.001   0.355  0.3793 -0.5979  0.3777
 7051TIP3    H142644   0.378  -0.001   0.446 -0.5358 -1.0334  0.0766
 7051TIP3    H242645   0.337   0.043   0.307  1.6773  1.4417  0.1362
 7052TIP3   OH242646   3.658   1.799   2.021 -0.2470  0.0392  0.2335
 7052TIP3    H142647   3.662   1.895   2.022 -0.0479  0.0394 -0.3335
 7052TIP3    H242648   3.584   1.779   1.964  0.5912 -0.1589 -0.7996
 7053TIP3   OH242649   1.614   4.812   1.091  0.5592  0.1768 -0.6702
 7053TIP3    H142650   1.551   4.808   1.019  1.7847  1.3306 -1.8640
 7053TIP3    H242651   1.642   4.721   1.104  1.4474  0.0955 -2.7289
 7054TIP3   OH242652   6.492   2.327   6.160  0.0221 -0.1762  0.9619
 7054TIP3    H142653   6.471   2.406   6.210  0.7398  1.7967 -1.6095
 7054TIP3    H242654   6.411   2.307   6.112 -0.2903 -1.3351  1.9110
 7055TIP3   OH242655   1.522   0.771  12.776 -0.1560  0.3274  0.3419
 7055TIP3    H142656   1.559   0.806  12.695  0.4698  0.2184  0.5742
 7055TIP3    H242657   1.481   0.688  12.750  0.2374  0.1830  0.1777
 7056TIP3   OH242658   1.594   4.932   5.759 -0.1167  0.0423 -0.0897
 7056TIP3    H142659   1.616   4.841   5.740  1.5280  0.1804  0.9348
 7056TIP3    H242660   1.604   4.978   5.675  1.8726 -0.2571 -0.0809
 7057TIP3   OH242661   3.566   2.964   0.539  0.3366 -0.2858  0.2976
 7057TIP3    H142662   3.642   2.995   0.588 -1.1496  1.8138  1.4013
 7057TIP3    H242663   3.602   2.941   0.453  2.2531  0.4543  0.8433
 7058TIP3   OH242664   2.966   4.026   6.465 -0.0466  0.2295 -0.1751
 7058TIP3    H142665   2.904   4.071   6.408 -0.9956  1.8804  2.0111
 7058TIP3    H242666   2.932   4.040   6.554  1.9635 -1.2165  0.9049
 7059TIP3   OH242667   6.591   1.520   5.696 -0.0220  0.5461 -0.3332
 7059TIP3    H142668   6.615   1.603   5.654 -0.0211  2.2051  2.6428
 7059TIP3    H242669   6.516   1.542   5.751 -0.1758 -1.5137  0.3682
 7060TIP3   OH242670   5.112   0.674   4.317 -0.3124 -0.0097 -0.0136
 7060TIP3    H142671   5.066   0.755   4.338  0.2683 -0.0472  1.4648
 7060TIP3    H242672   5.205   0.698   4.319 -0.1734 -0.1257 -2.1582
 7061TIP3   OH242673   6.050   5.588   5.094 -0.0799  0.0987  0.4786
 7061TIP3    H142674   6.025   5.615   5.183 -0.8882  0.2583  0.2113
 7061TIP3    H242675   6.088   5.666   5.055  1.9149 -0.4296  1.2470
 7062TIP3   OH242676   2.933   0.409   1.426 -0.6579 -0.3482 -0.7447
 7062TIP3    H142677   2.961   0.318   1.425 -2.3094 -0.8752 -1.1775
 7062TIP3    H242678   2.904   0.425   1.516  0.7651  0.1388 -0.3482
 7063TIP3   OH242679   6.464   2.948   4.915 -0.4352  0.2915  0.1509
 7063TIP3    H142680   6.418   3.023   4.951 -1.6310  0.4123 -1.5247
 7063TIP3    H242681   6.465   2.884   4.986 -2.6384  0.5386  0.4681
 7064TIP3   OH242682   5.734   4.699   0.389  0.3414  0.7767 -0.7233
 7064TIP3    H142683   5.682   4.621   0.407  0.6752  0.2460 -1.9896
 7064TIP3    H242684   5.737   4.745   0.473  1.9993 -1.6637  0.7074
 7065TIP3   OH242685   6.620   4.484   2.053  0.3497 -0.2826 -0.0255
 7065TIP3    H142686   6.556   4.426   2.012 -2.1782  2.2149  0.1216
 7065TIP3    H242687   6.662   4.430   2.120 -0.4914 -2.4254 -1.1518
 7066TIP3   OH242688   0.639   5.489  11.797 -0.2807  0.5630  0.6709
 7066TIP3    H142689   0.601   5.554  11.855 -0.4951 -0.5189  1.7741
 7066TIP3    H242690   0.734   5.503  11.804 -0.2751  0.0825  1.7383
 7067TIP3   OH242691   6.449   6.026   2.433  0.8129 -0.0486  0.0471
 7067TIP3    H142692   6.359   5.993   2.441  1.6243 -2.7175 -0.8436
 7067TIP3    H242693   6.442   6.095   2.367 -0.5746 -0.2681 -0.0808
 7068TIP3   OH242694   2.121   0.791   3.577  0.1003 -0.4583  0.1564
 7068TIP3    H142695   2.077   0.842   3.509 -1.2585  0.9599  2.0009
 7068TIP3    H242696   2.186   0.739   3.529 -0.5681  0.6915 -2.1679
 7069TIP3   OH242697   0.125   3.450   4.591  0.3684  0.0777 -0.4401
 7069TIP3    H142698   0.190   3.479   4.654 -0.7853  0.7826  0.4807
 7069TIP3    H242699   0.170   3.451   4.506  1.2879  1.3877  0.0463
 7070TIP3   OH242700   4.344   3.516  12.701 -0.2747  0.2292  0.6636
 7070TIP3    H142701   4.421   3.480  12.745  0.1743  0.1650 -0.1595
 7070TIP3    H242702   4.336   3.605  12.737  0.6019  0.4876  0.2594
 7071TIP3   OH242703   2.074   4.459  11.806 -0.0982 -0.1731 -0.2616
 7071TIP3    H142704   2.036   4.499  11.727  0.8700 -0.0206 -0.6750
 7071TIP3    H242705   2.003   4.459  11.870 -1.4874 -2.0319 -1.6960
 7072TIP3   OH242706   2.245   5.109   0.726  0.0678 -0.5111 -0.0757
 7072TIP3    H142707   2.222   5.199   0.702 -0.7436 -0.6608  0.0914
 7072TIP3    H242708   2.162   5.061   0.719  0.0839 -0.8649  1.5924
 7073TIP3   OH242709   1.045   4.317  16.805 -1.2160 -0.6359  0.2735
 7073TIP3    H142710   1.098   4.261  16.747 -0.6969  0.2586 -0.1366
 7073TIP3    H242711   1.092   4.318  16.888  0.1520  1.1944 -0.4714
 7074TIP3   OH242712   4.790   4.179  13.424  0.7216 -0.0118  0.1712
 7074TIP3    H142713   4.815   4.115  13.491  1.1317 -0.1725 -0.1302
 7074TIP3    H242714   4.863   4.241  13.422  0.2160  0.6121  0.6341
 7075TIP3   OH242715   4.839   3.257  16.501  0.1308 -0.4858  0.2648
 7075TIP3    H142716   4.889   3.293  16.573 -0.0736 -0.3452  0.3373
 7075TIP3    H242717   4.778   3.196  16.542  0.8982 -1.4006  0.0857
 7076TIP3   OH242718   3.564   6.369   4.270  0.0752  0.0133  0.4131
 7076TIP3    H142719   3.534   6.343   4.358 -0.5362 -2.2902 -0.4167
 7076TIP3    H242720   3.658   6.384   4.280 -0.0150 -0.0486  1.4777
 7077TIP3   OH242721   4.449   3.654  17.087  0.3597 -0.3931  0.0769
 7077TIP3    H142722   4.498   3.706  17.151 -1.0860  0.0752  0.8653
 7077TIP3    H242723   4.372   3.708  17.067  0.6736 -0.6155 -1.9440
 7078TIP3   OH242724   4.451   6.248  12.639 -0.1055  0.5190  0.1535
 7078TIP3    H142725   4.401   6.165  12.638  1.1454 -0.2553 -0.1099
 7078TIP3    H242726   4.404   6.303  12.702  0.1461 -1.1143  1.8773
 7079TIP3   OH242727   1.813   3.704   0.138 -0.0911  0.5574  0.5371
 7079TIP3    H142728   1.719   3.709   0.121  0.1531  3.2339 -0.5250
 7079TIP3    H242729   1.854   3.724   0.054  1.3334  2.4019  1.5842
 7080TIP3   OH242730   5.484   3.959   1.686  0.4510 -0.4329 -0.0438
 7080TIP3    H142731   5.456   4.050   1.675  0.6060 -0.4791 -0.9184
 7080TIP3    H242732   5.403   3.909   1.681 -0.1750 -0.1576  4.0707
 7081TIP3   OH242733   3.518   2.623   5.582 -0.9457  0.0809 -0.6105
 7081TIP3    H142734   3.523   2.550   5.521 -1.6001  0.4104 -1.0746
 7081TIP3    H242735   3.578   2.600   5.653  0.9234  0.3248 -2.0508
 7082TIP3   OH242736   1.550   1.816  13.072  0.2332  0.2288  0.3668
 7082TIP3    H142737   1.472   1.772  13.106  0.4521 -1.5814 -1.3096
 7082TIP3    H242738   1.619   1.793  13.135  0.4474 -2.3468 -0.6926
 7083TIP3   OH242739   6.235   5.787  12.933  0.0921  0.2496 -0.0713
 7083TIP3    H142740   6.310   5.743  12.894 -1.0630 -1.3756 -0.5572
 7083TIP3    H242741   6.219   5.740  13.015 -1.7995 -1.0467 -1.0950
 7084TIP3   OH242742   6.263   5.166  16.664  0.2619 -0.0758  0.2064
 7084TIP3    H142743   6.344   5.174  16.713  0.8298  0.1821 -0.7453
 7084TIP3    H242744   6.272   5.083  16.617  0.2984  0.3003 -0.4625
 7085TIP3   OH242745   1.359   2.179   4.250  0.5291  0.0641  0.0834
 7085TIP3    H142746   1.412   2.251   4.216  0.5210  1.3669  2.5742
 7085TIP3    H242747   1.292   2.222   4.303 -2.9141 -1.5435 -2.5664
 7086TIP3   OH242748   4.719   0.280   2.081 -0.0620 -0.2735  1.2143
 7086TIP3    H142749   4.732   0.317   1.993 -1.5639  0.7228  1.3741
 7086TIP3    H242750   4.756   0.346   2.140 -1.0578  0.1308  1.4106
 7087TIP3   OH242751   5.758   0.510   4.236  0.1594 -0.1814 -0.1122
 7087TIP3    H142752   5.687   0.455   4.202  0.2462 -0.3648  0.0019
 7087TIP3    H242753   5.713   0.583   4.278  0.0326  1.8465 -3.4363
 7088TIP3   OH242754   6.787   4.803  16.402  0.1926  0.1002 -0.1944
 7088TIP3    H142755   6.806   4.779  16.493 -2.0082 -1.0201  0.0306
 7088TIP3    H242756   6.861   4.768  16.352  1.7361  1.2272  1.1691
 7089TIP3   OH242757   5.587   4.077  15.881 -0.0668  0.5446  0.2965
 7089TIP3    H142758   5.509   4.030  15.910 -0.0866  0.8138  0.6812
 7089TIP3    H242759   5.554   4.160  15.847  0.1884  1.4428  2.1298
 7090TIP3   OH242760   4.542   1.411  14.668 -0.1122 -0.1202 -0.0495
 7090TIP3    H142761   4.583   1.497  14.681 -0.0811 -0.1327 -0.0659
 7090TIP3    H242762   4.470   1.428  14.608 -0.0576 -0.1195 -0.1152
 7091TIP3   OH242763   4.968   3.415   5.122  0.0374  0.0676  0.6304
 7091TIP3    H142764   5.051   3.397   5.167  0.0462 -1.9932 -0.1113
 7091TIP3    H242765   4.919   3.333   5.128 -1.9287  1.1891  0.9203
 7092TIP3   OH242766   4.121   5.065   0.828 -0.9428 -0.4536  0.2461
 7092TIP3    H142767   4.027   5.073   0.847 -1.1127  1.0362 -1.0478
 7092TIP3    H242768   4.130   5.095   0.738  0.6905 -1.3282  0.0859
 7093TIP3   OH242769   0.970   4.099   4.589  0.3991 -0.2646  0.3784
 7093TIP3    H142770   0.975   4.004   4.599  0.2801 -0.2899  0.1947
 7093TIP3    H242771   0.915   4.113   4.512 -0.7104 -0.0159  1.1904
 7094TIP3   OH242772   4.641   4.202   4.511 -0.2337 -0.1027  0.0360
 7094TIP3    H142773   4.679   4.115   4.501  0.3395  0.2761 -1.3736
 7094TIP3    H242774   4.578   4.208   4.439 -1.2224  0.1689  0.9114
 7095TIP3   OH242775   1.448   4.892   2.034 -0.3746 -0.3161 -0.3741
 7095TIP3    H142776   1.395   4.812   2.040  0.3685 -0.9688 -1.8944
 7095TIP3    H242777   1.412   4.950   2.101  0.4127 -2.6891  2.2810
 7096TIP3   OH242778   2.947   6.186  12.890  0.4359 -0.3948  0.4711
 7096TIP3    H142779   3.021   6.137  12.854 -0.3193 -1.1056 -0.1624
 7096TIP3    H242780   2.934   6.150  12.977  1.8670  0.8889  1.2654
 7097TIP3   OH242781   4.809   0.960  13.743 -0.5415  0.5013  0.0533
 7097TIP3    H142782   4.773   0.872  13.729 -0.2472  0.3210  0.4056
 7097TIP3    H242783   4.875   0.969  13.675 -1.0828  0.7424 -0.4485
 7098TIP3   OH242784   1.337   3.840  17.241  0.3688  0.6205 -0.2987
 7098TIP3    H142785   1.256   3.891  17.241 -1.6269 -2.3101 -0.2328
 7098TIP3    H242786   1.377   3.859  17.326 -1.1315  0.8813  0.3878
 7099TIP3   OH242787   3.830   4.670  14.116 -0.2893  0.1450 -0.0750
 7099TIP3    H142788   3.914   4.702  14.147 -0.2432 -0.1306  0.0932
 7099TIP3    H242789   3.815   4.589  14.166 -1.5308  1.1583  1.2819
 7100TIP3   OH242790   0.103   3.545   5.649  0.2523  0.0569 -0.5130
 7100TIP3    H142791   0.115   3.464   5.600  1.2112 -0.3490  0.3386
 7100TIP3    H242792   0.020   3.581   5.618  0.7068 -0.2963 -2.2334
 7101TIP3   OH242793   4.969   4.100  14.877  0.6177 -0.1316  0.1543
 7101TIP3    H142794   4.942   4.148  14.955  2.5963 -1.5942  1.8312
 7101TIP3    H242795   5.064   4.090  14.886  1.1840  0.8116 -3.1553
 7102TIP3   OH242796   2.780   4.931   2.218 -0.1426  0.4307 -0.1066
 7102TIP3    H142797   2.685   4.926   2.204 -0.2749 -0.7847  1.0120
 7102TIP3    H242798   2.815   4.850   2.180  0.2774  0.2870  0.5554
 7103TIP3   OH242799   6.670   4.280   4.837 -0.0105  0.3877 -0.3029
 7103TIP3    H142800   6.641   4.221   4.907 -0.1623  0.3914 -0.3603
 7103TIP3    H242801   6.760   4.256   4.820 -0.3691 -0.4954 -1.0114
 7104TIP3   OH242802   6.070   1.209   3.582  0.1410  0.1406 -0.3847
 7104TIP3    H142803   6.019   1.130   3.564  0.5281  0.0864 -1.2611
 7104TIP3    H242804   6.153   1.195   3.536  0.1076  1.1723 -0.7630
 7105TIP3   OH242805   0.458   6.048  10.926  0.1404 -0.9377  0.1520
 7105TIP3    H142806   0.389   6.062  10.861  0.9276 -0.4524 -0.5960
 7105TIP3    H242807   0.465   5.953  10.934  1.6373 -1.1018 -2.2597
 7106TIP3   OH242808   3.229   0.055  11.387  0.4194  0.2278  0.0024
 7106TIP3    H142809   3.166   0.091  11.324  0.9923  0.5328 -0.4083
 7106TIP3    H242810   3.268   0.133  11.428 -0.0106  0.0298  0.7975
 7107TIP3   OH242811   4.584   0.140   5.837 -0.2318  0.0067  0.6678
 7107TIP3    H142812   4.633   0.217   5.865  0.4715  0.0997 -0.7276
 7107TIP3    H242813   4.506   0.175   5.794  1.2754  0.1223 -2.2172
 7108TIP3   OH242814   6.776   0.405   6.207  0.0944  0.1336  0.4574
 7108TIP3    H142815   6.729   0.353   6.142  1.5031 -0.6677  0.0167
 7108TIP3    H242816   6.739   0.492   6.201  0.3549  0.1442 -1.6413
 7109TIP3   OH242817   2.532   6.599   4.737 -0.0324  0.0700  0.2677
 7109TIP3    H142818   2.464   6.545   4.698  0.7214 -0.7069 -0.0075
 7109TIP3    H242819   2.557   6.553   4.817 -0.9376  1.1881  1.2392
 7110TIP3   OH242820   3.230   5.107   0.675  0.2467 -0.6054  0.2859
 7110TIP3    H142821   3.181   5.025   0.662  1.0052 -0.7951 -1.5639
 7110TIP3    H242822   3.310   5.080   0.719 -0.4627 -0.5327  1.6778
 7111TIP3   OH242823   0.869   3.881  13.831 -0.2110 -0.0550 -0.1283
 7111TIP3    H142824   0.865   3.799  13.783  1.3310 -0.1957 -0.0646
 7111TIP3    H242825   0.933   3.934  13.784  0.4060  0.2803  1.0533
 7112TIP3   OH242826   0.404   2.835  14.794  0.8647 -0.6002 -0.0679
 7112TIP3    H142827   0.335   2.842  14.860  0.2413  0.8813 -0.8456
 7112TIP3    H242828   0.485   2.852  14.843  0.3227  1.5416  0.1728
 7113TIP3   OH242829   3.350   0.330   5.968  0.7271  0.5868 -0.5266
 7113TIP3    H142830   3.413   0.258   5.973 -1.7899 -1.7295  0.2214
 7113TIP3    H242831   3.314   0.323   5.879 -1.9523 -1.4602  0.5810
 7114TIP3   OH242832   1.398   4.986   3.997 -0.2580  0.4993 -0.7557
 7114TIP3    H142833   1.374   4.993   3.905 -0.5228 -2.1099 -0.9545
 7114TIP3    H242834   1.432   4.897   4.006  2.0082  1.4422  1.1990
 7115TIP3   OH242835   6.170   4.366  11.797 -0.5996  0.3478  0.4927
 7115TIP3    H142836   6.254   4.377  11.753 -0.4345 -1.4239  0.3016
 7115TIP3    H242837   6.192   4.360  11.890 -0.1079 -2.9351  0.2818
 7116TIP3   OH242838   2.798   2.703   5.941  0.8015  0.5265 -0.1189
 7116TIP3    H142839   2.885   2.738   5.965  1.7252 -1.2905 -0.6736
 7116TIP3    H242840   2.737   2.755   5.993  2.4832 -1.1796  4.0177
 7117TIP3   OH242841   4.621   6.606  12.348 -0.4287  0.1379  0.3084
 7117TIP3    H142842   4.676   6.528  12.356 -0.4734  0.1277  0.5426
 7117TIP3    H242843   4.566   6.588  12.272 -0.0608  0.1793  0.0345
 7118TIP3   OH242844   2.543   5.754  12.204  0.0036 -0.1947 -0.1450
 7118TIP3    H142845   2.592   5.813  12.262 -0.6959 -0.4288  0.7063
 7118TIP3    H242846   2.484   5.811  12.156 -1.5055 -0.2618  1.5139
 7119TIP3   OH242847   6.673   2.102  14.794 -0.5576 -0.3161 -0.3211
 7119TIP3    H142848   6.608   2.120  14.726  0.0306  0.8253 -0.5972
 7119TIP3    H242849   6.630   2.126  14.876 -0.2189  1.2640 -0.5747
 7120TIP3   OH242850   5.610   4.766   6.533 -0.4677 -0.4359  0.3985
 7120TIP3    H142851   5.526   4.797   6.567  0.1266  0.2613  1.2669
 7120TIP3    H242852   5.624   4.681   6.576  0.0541  0.2223  1.5670
 7121TIP3   OH242853   5.469   5.605   6.739 -0.3676 -0.1077 -0.1615
 7121TIP3    H142854   5.563   5.620   6.731 -0.4507  0.1370 -0.6981
 7121TIP3    H242855   5.429   5.689   6.719 -0.7652 -0.6017 -1.5507
 7122TIP3   OH242856   5.429   3.971  12.111 -0.1168  0.3723 -0.0255
 7122TIP3    H142857   5.429   3.923  12.194 -0.7537  0.3395 -0.0337
 7122TIP3    H242858   5.389   4.055  12.132 -0.3893  0.3196 -0.3228
 7123TIP3   OH242859   3.658   5.600  12.778  0.6614 -0.6569  1.1653
 7123TIP3    H142860   3.626   5.681  12.819  0.7976  0.1335 -0.2098
 7123TIP3    H242861   3.747   5.591  12.811  0.9757  0.2926  0.6287
 7124TIP3   OH242862   4.605   4.475   4.780 -0.0596  0.3498  0.5495
 7124TIP3    H142863   4.637   4.385   4.788 -1.5189 -0.2337  0.1607
 7124TIP3    H242864   4.630   4.501   4.691 -0.5016 -0.0346  0.3107
 7125TIP3   OH242865   2.789   3.617   0.605  0.1799 -0.0368  0.0467
 7125TIP3    H142866   2.813   3.686   0.543 -0.8159  1.1773  0.9891
 7125TIP3    H242867   2.851   3.627   0.677  1.7747 -1.8724 -0.9680
 7126TIP3   OH242868   4.420   6.320  16.617  0.0274  1.0334 -0.1912
 7126TIP3    H142869   4.391   6.400  16.572 -2.7825  0.9422  1.2445
 7126TIP3    H242870   4.342   6.289  16.663  1.8080 -0.9003  1.7323
 7127TIP3   OH242871   1.873   5.868   1.600  0.3209 -0.0426  0.0648
 7127TIP3    H142872   1.836   5.800   1.657 -0.9010  0.8316  0.3767
 7127TIP3    H242873   1.796   5.918   1.572  0.7278 -1.1016 -3.2956
 7128TIP3   OH242874   3.379   4.071  16.449  0.2116 -0.1535 -0.1518
 7128TIP3    H142875   3.436   4.099  16.520  0.4416 -3.6351  1.2262
 7128TIP3    H242876   3.291   4.068  16.488  0.0478 -0.4077 -0.5287
 7129TIP3   OH242877   5.821   0.618  11.830 -0.5188  0.1403 -0.3954
 7129TIP3    H142878   5.896   0.582  11.876 -1.4155 -0.4312  0.6570
 7129TIP3    H242879   5.822   0.711  11.851  1.2546  0.6361 -2.3534
 7130TIP3   OH242880   3.987   5.168  11.410  0.3706  0.2631 -0.2241
 7130TIP3    H142881   3.920   5.225  11.449  1.3756  0.4818  1.2450
 7130TIP3    H242882   3.942   5.127  11.336 -1.4009  0.3931  0.7106
 7131TIP3   OH242883   3.725   0.867  14.403  0.0884  0.2729  0.6047
 7131TIP3    H142884   3.630   0.867  14.389  0.1739  2.1506 -0.2812
 7131TIP3    H242885   3.740   0.940  14.462  0.9768 -0.1537  0.9207
 7132TIP3   OH242886   0.028   5.316  14.323  0.4695  0.3558  0.1487
 7132TIP3    H142887   0.030   5.384  14.390 -4.3895 -1.2950  2.4325
 7132TIP3    H242888   0.086   5.247  14.357 -0.3286  0.3998  1.6659
 7133TIP3   OH242889   0.620   5.923  17.320  0.2062 -0.2217 -0.0595
 7133TIP3    H142890   0.641   5.845  17.370  0.8392 -0.4541 -0.6764
 7133TIP3    H242891   0.705   5.960  17.296 -0.0892  0.1437 -0.5648
 7134TIP3   OH242892   6.089   0.148  12.736  0.6690  0.4677  0.1597
 7134TIP3    H142893   6.180   0.116  12.733  0.3571 -0.5790  1.1793
 7134TIP3    H242894   6.036   0.073  12.711  0.0004  0.6404  1.0167
 7135TIP3   OH242895   5.160   4.770   2.064  0.5702 -0.4007  0.2391
 7135TIP3    H142896   5.108   4.828   2.120  0.0672  0.5713 -1.1658
 7135TIP3    H242897   5.146   4.682   2.101 -1.0507  0.0025  0.6715
 7136TIP3   OH242898   5.319   3.607  10.740  0.4121 -0.8903 -0.7504
 7136TIP3    H142899   5.337   3.549  10.666  2.0217  0.7885 -1.7640
 7136TIP3    H242900   5.354   3.692  10.713 -1.4715  0.4921  0.8171
 7137TIP3   OH242901   2.111   3.512   0.880 -0.1458 -0.2545  0.3232
 7137TIP3    H142902   2.204   3.536   0.886 -0.3635  0.6235  0.3673
 7137TIP3    H242903   2.075   3.573   0.816 -1.0700  0.6240  1.6296
 7138TIP3   OH242904   2.842   6.020  13.724  0.4260 -0.1885 -0.5643
 7138TIP3    H142905   2.933   6.036  13.748  0.9754 -1.4821 -1.6132
 7138TIP3    H242906   2.845   6.002  13.630 -1.1246  1.1503 -0.9046
 7139TIP3   OH242907   0.221   3.712  10.325  0.7487  0.4228 -0.2052
 7139TIP3    H142908   0.244   3.801  10.350 -1.4973  0.6953  1.2119
 7139TIP3    H242909   0.127   3.716  10.306  0.4480 -1.7556  0.5383
 7140TIP3   OH242910   0.106   6.120   0.100  0.2665 -0.1903  0.0820
 7140TIP3    H142911   0.172   6.088   0.039 -0.7339  0.4958 -1.4010
 7140TIP3    H242912   0.048   6.045   0.113 -0.0441 -0.0606 -0.5464
 7141TIP3   OH242913   2.408   2.006   1.628  0.0400  0.0686 -0.6060
 7141TIP3    H142914   2.315   2.008   1.653 -0.6146 -1.3196 -2.6737
 7141TIP3    H242915   2.415   2.067   1.555  0.7441  0.0976 -0.5213
 7142TIP3   OH242916   6.785   1.268  15.035  0.6905  0.2826 -0.3177
 7142TIP3    H142917   6.771   1.362  15.031 -0.9229  0.1891  1.5539
 7142TIP3    H242918   6.855   1.257  15.099  0.2613  0.1807  0.1385
 7143TIP3   OH242919   3.385   4.445  15.172  0.1093 -0.2421  0.4501
 7143TIP3    H142920   3.464   4.469  15.123 -0.9037  0.3309 -0.9925
 7143TIP3    H242921   3.400   4.354  15.198  0.6938 -0.5914 -1.0062
 7144TIP3   OH242922   6.352   0.564  14.344  0.6888 -0.0187  0.5146
 7144TIP3    H142923   6.332   0.631  14.279 -0.2735  0.5682  1.3820
 7144TIP3    H242924   6.330   0.481  14.301  0.6423  0.3162 -0.1144
 7145TIP3   OH242925   0.943   2.934  16.717 -0.4393  0.1244  0.2784
 7145TIP3    H142926   0.857   2.941  16.757 -0.4597  1.3339  0.0556
 7145TIP3    H242927   1.000   2.987  16.773  0.0249 -0.1268  0.0503
 7146TIP3   OH242928   1.998   1.099  17.023  0.1050  0.0149  0.1370
 7146TIP3    H142929   1.946   1.150  16.961  0.4964  1.3562  0.8715
 7146TIP3    H242930   2.056   1.047  16.969 -1.2320 -0.6815 -0.6688
 7147TIP3   OH242931   1.423   3.773   0.372  0.0710 -0.1187  0.1606
 7147TIP3    H142932   1.354   3.809   0.317 -1.5599 -2.1956  0.7303
 7147TIP3    H242933   1.433   3.836   0.444  1.3178  1.9621 -1.7165
 7148TIP3   OH242934   2.571   2.302  17.046 -0.1668  0.7125  0.4629
 7148TIP3    H142935   2.548   2.300  17.138 -0.6077  0.0369  0.3450
 7148TIP3    H242936   2.592   2.211  17.024  0.8544  1.0060  0.1208
 7149TIP3   OH242937   4.910   3.372  16.735  0.2178  0.4349  0.0732
 7149TIP3    H142938   4.920   3.467  16.743 -1.8337  0.6245  1.1549
 7149TIP3    H242939   4.959   3.336  16.809 -1.4842  0.9025  1.5059
 7150TIP3   OH242940   5.288   1.753  15.788  0.2976 -0.2407  0.2531
 7150TIP3    H142941   5.202   1.717  15.770  0.0423  0.3365  0.2760
 7150TIP3    H242942   5.271   1.844  15.812  0.9513  0.0152 -0.2126
 7151TIP3   OH242943   2.599   3.489  13.224  0.3096  0.6416 -0.4038
 7151TIP3    H142944   2.631   3.399  13.219 -1.7487 -0.5157  3.2839
 7151TIP3    H242945   2.588   3.515  13.133  0.8562 -2.9057 -1.6657
 7152TIP3   OH242946   4.192   2.095   5.706  0.3164  0.1312 -0.2480
 7152TIP3    H142947   4.194   2.175   5.653  0.8505  1.4421  1.6598
 7152TIP3    H242948   4.281   2.086   5.739  0.3201 -1.4178 -0.6223
 7153TIP3   OH242949   4.588   3.311  16.886  0.6459 -0.3873  0.1266
 7153TIP3    H142950   4.674   3.300  16.927  0.6529 -2.5386 -0.3481
 7153TIP3    H242951   4.595   3.265  16.803 -0.1635  1.7487 -1.2182
 7154TIP3   OH242952   2.667   2.226  12.956 -0.0807  0.0004  0.1543
 7154TIP3    H142953   2.751   2.270  12.970  0.8798 -1.6418 -0.1736
 7154TIP3    H242954   2.638   2.204  13.045  0.0325  0.2175  0.2480
 7155TIP3   OH242955   1.641   2.713   1.970  0.1757  0.3806 -1.0503
 7155TIP3    H142956   1.675   2.679   1.887 -0.3963 -1.5963 -0.5165
 7155TIP3    H242957   1.719   2.735   2.021  0.5778 -0.0975 -1.4447
 7156TIP3   OH242958   6.074   4.787  12.891 -0.2004 -0.2044  0.3550
 7156TIP3    H142959   6.003   4.731  12.923  0.1899 -0.9113  0.0220
 7156TIP3    H242960   6.152   4.753  12.936  0.5259 -1.8104 -1.9204
 7157TIP3   OH242961   6.272   6.234  13.648  0.0056  0.3009 -0.0181
 7157TIP3    H142962   6.219   6.278  13.581  1.4998  0.7853 -0.9340
 7157TIP3    H242963   6.211   6.174  13.690 -1.3780  1.1290 -0.7335
 7158TIP3   OH242964   2.410   0.091  17.159  0.8804 -0.1219 -0.0288
 7158TIP3    H142965   2.355   0.038  17.100 -0.2652 -0.2079  1.0693
 7158TIP3    H242966   2.369   0.081  17.245 -0.1082  3.4834  0.0655
 7159TIP3   OH242967   6.427   3.306  13.540  0.1035  0.1492  0.3130
 7159TIP3    H142968   6.367   3.235  13.518  0.5109  0.4626 -2.1009
 7159TIP3    H242969   6.371   3.383  13.545  0.0291  0.1225 -0.0318
 7160TIP3   OH242970   0.172   1.639   2.643 -0.3650 -0.1526 -0.2404
 7160TIP3    H142971   0.121   1.653   2.722  0.7196 -1.2184  0.6821
 7160TIP3    H242972   0.171   1.724   2.598 -1.7305  0.2259  0.4430
 7161TIP3   OH242973   6.395   5.644   0.169  0.0915  0.0201 -0.2073
 7161TIP3    H142974   6.475   5.668   0.121  0.4385 -0.1112  0.2972
 7161TIP3    H242975   6.327   5.698   0.130  0.7506  1.4698  0.5571
 7162TIP3   OH242976   3.065   2.031  13.485  0.0803 -0.0189 -0.3886
 7162TIP3    H142977   3.160   2.033  13.491  0.3121  5.8173 -0.0174
 7162TIP3    H242978   3.046   2.049  13.393 -0.5638  0.7347 -0.1204
 7163TIP3   OH242979   5.559   4.431   2.309  0.4965 -0.0163 -0.5787
 7163TIP3    H142980   5.605   4.349   2.297  0.8364  0.3967 -2.4385
 7163TIP3    H242981   5.500   4.437   2.234  0.0393  1.1488 -0.1563
 7164TIP3   OH242982   0.854   4.753  14.495  0.0127 -0.1677  0.3392
 7164TIP3    H142983   0.809   4.824  14.450 -1.3869 -0.8513  0.6086
 7164TIP3    H242984   0.876   4.690  14.426 -1.0207 -0.6336  0.4132
 7165TIP3   OH242985   4.682   3.652  14.529 -0.2190 -0.2682  0.0786
 7165TIP3    H142986   4.645   3.665  14.442 -0.1525  0.4166  0.1469
 7165TIP3    H242987   4.619   3.595  14.574  0.0717 -1.1499 -0.6216
 7166TIP3   OH242988   4.365   4.597   5.753  0.3183 -0.1610 -0.1549
 7166TIP3    H142989   4.306   4.670   5.771  0.8636 -0.1940  2.0475
 7166TIP3    H242990   4.413   4.624   5.675 -0.0223  1.5020  0.1804
 7167TIP3   OH242991   2.426   3.663  13.893 -0.3584  0.0881  0.3203
 7167TIP3    H142992   2.385   3.716  13.824 -1.3897 -1.5600 -0.3983
 7167TIP3    H242993   2.508   3.632  13.853 -1.1723 -1.2422 -0.3904
 7168TIP3   OH242994   4.142   0.741   1.433 -0.1232 -0.0995 -0.8121
 7168TIP3    H142995   4.048   0.724   1.431 -0.1245 -0.3059  0.4380
 7168TIP3    H242996   4.182   0.657   1.453  0.2239  0.2839  0.1560
 7169TIP3   OH242997   4.873   3.196   0.425 -0.0538  0.4330  0.3180
 7169TIP3    H142998   4.883   3.245   0.343  2.5760 -2.4809 -1.3166
 7169TIP3    H242999   4.948   3.223   0.478 -0.0257  0.0763  0.4599
 7170TIP3   OH243000   6.520   2.621   2.117  0.1277  0.3833 -0.1159
 7170TIP3    H143001   6.571   2.671   2.054 -0.2465  0.3344 -0.4604
 7170TIP3    H243002   6.530   2.530   2.089 -2.7850  0.5747 -2.1991
 7171TIP3   OH243003   4.373   4.869   1.652 -0.3347  0.2370  0.1809
 7171TIP3    H143004   4.358   4.817   1.731 -2.7642  1.1400  0.4139
 7171TIP3    H243005   4.387   4.805   1.583 -1.6720 -0.7180  0.7487
 7172TIP3   OH243006   6.549   5.800  15.617  0.4187  0.0602 -0.0709
 7172TIP3    H143007   6.519   5.720  15.661  4.6696 -1.0010  1.3627
 7172TIP3    H243008   6.499   5.802  15.535 -1.2629 -2.9793  0.7074
 7173TIP3   OH243009   2.029   5.210  12.974  0.0381 -0.2927  0.4280
 7173TIP3    H143010   2.031   5.259  12.892 -0.4030 -0.7083  0.1662
 7173TIP3    H243011   2.093   5.141  12.963  0.3980  0.0003  0.6591
 7174TIP3   OH243012   6.478   0.839  11.225  0.3170  0.3505  0.8882
 7174TIP3    H143013   6.562   0.885  11.222  0.0417  1.1140  3.1470
 7174TIP3    H243014   6.473   0.793  11.141  1.2906  3.1903 -0.8440
 7175TIP3   OH243015   0.412   0.835   1.155 -0.3747  0.1829 -0.1317
 7175TIP3    H143016   0.458   0.904   1.106 -1.0505  0.4156 -0.4487
 7175TIP3    H243017   0.368   0.783   1.088  0.2230 -0.6380  0.0988
 7176TIP3   OH243018   4.701   1.237  15.508 -0.2930  0.0810 -0.0171
 7176TIP3    H143019   4.766   1.171  15.533  0.4607  0.4180 -1.0207
 7176TIP3    H243020   4.626   1.219  15.565  0.2141 -1.0998  0.3163
 7177TIP3   OH243021   6.292   5.365  13.616  0.1301 -0.3152 -0.2931
 7177TIP3    H143022   6.243   5.366  13.698  0.7271 -1.5931  0.1135
 7177TIP3    H243023   6.354   5.437  13.623 -0.2688 -0.0079  0.0930
 7178TIP3   OH243024   3.006   4.504  16.331  0.6289 -0.1564  0.3010
 7178TIP3    H143025   2.921   4.544  16.316  0.7357 -0.5733 -1.6905
 7178TIP3    H243026   3.067   4.557  16.279  1.3605 -0.6695  0.6173
 7179TIP3   OH243027   0.035   6.390   0.125 -0.4343  0.0659  0.3967
 7179TIP3    H143028   0.032   6.295   0.111 -0.3920  0.2676 -1.1966
 7179TIP3    H243029   0.124   6.415   0.100 -0.9130  0.7198 -0.7375
 7180TIP3   OH243030   3.288   0.903   6.417  0.2969 -0.0620  0.6000
 7180TIP3    H143031   3.253   0.966   6.480  0.6657  0.1077  0.6410
 7180TIP3    H243032   3.212   0.872   6.369  0.1003  0.3727  0.6249
 7181TIP3   OH243033   1.464   6.312   5.226  0.0287 -0.2506  0.3190
 7181TIP3    H143034   1.426   6.224   5.221 -1.4837  0.3894  0.0793
 7181TIP3    H243035   1.400   6.363   5.274 -0.3951  1.3543 -1.8003
 7182TIP3   OH243036   2.329   4.019  14.017  0.8051  0.1146  0.5538
 7182TIP3    H143037   2.268   3.958  13.975  2.5337 -1.0747 -0.3399
 7182TIP3    H243038   2.277   4.062  14.085 -1.0315 -0.7842 -0.2222
 7183TIP3   OH243039   3.205   4.863  16.787  0.5294 -0.3170  0.0822
 7183TIP3    H143040   3.285   4.810  16.784  0.6032 -0.3917  2.2001
 7183TIP3    H243041   3.228   4.938  16.842 -0.2925  0.7125 -0.9225
 7184TIP3   OH243042   5.149   5.549   2.696  0.0813  0.0325 -0.4445
 7184TIP3    H143043   5.123   5.473   2.748 -2.2926 -0.0562 -1.6054
 7184TIP3    H243044   5.141   5.623   2.756 -1.1664 -0.2428 -0.2352
 7185TIP3   OH243045   4.433   2.105   1.656  0.0821 -0.1751  0.2331
 7185TIP3    H143046   4.524   2.077   1.648  0.4852  0.1487  2.8812
 7185TIP3    H243047   4.423   2.129   1.748 -3.0903 -1.5715  0.3755
 7186TIP3   OH243048   0.293   2.893  11.737 -0.1345  0.5098 -0.3865
 7186TIP3    H143049   0.261   2.880  11.648  2.1185 -1.3475 -1.0214
 7186TIP3    H243050   0.244   2.831  11.790  0.1208 -0.0162 -0.7604
 7187TIP3   OH243051   2.945   5.042   1.325 -0.3975 -0.1251  0.7313
 7187TIP3    H143052   2.866   5.084   1.359  0.3191  1.8855  0.0541
 7187TIP3    H243053   3.013   5.063   1.389  0.0252 -0.0892  0.2739
 7188TIP3   OH243054   5.498   2.419  10.601  0.3940 -0.5694  0.5641
 7188TIP3    H143055   5.544   2.350  10.647 -0.5137 -2.1510 -0.7932
 7188TIP3    H243056   5.461   2.377  10.523 -0.8670  1.2537  0.0841
 7189TIP3   OH243057   6.100   2.075  11.945 -0.2531  0.0021  0.3199
 7189TIP3    H143058   6.124   1.988  11.913 -1.4238  0.1311 -0.9759
 7189TIP3    H243059   6.074   2.060  12.036  1.1549 -0.7063  0.6436
 7190TIP3   OH243060   3.662   1.830   1.649  1.0339 -0.1363  0.3189
 7190TIP3    H143061   3.707   1.771   1.710 -1.6467 -0.7798  1.8362
 7190TIP3    H243062   3.585   1.860   1.697  0.9844  2.7063 -1.3166
 7191TIP3   OH243063   2.295   0.367   4.819  0.6242 -0.5548 -0.1618
 7191TIP3    H143064   2.371   0.340   4.767  0.9851  0.1512 -0.0260
 7191TIP3    H243065   2.239   0.414   4.757  0.0664 -1.4781 -0.3682
 7192TIP3   OH243066   1.129   3.830   2.153 -0.8803 -0.8588 -0.4807
 7192TIP3    H143067   1.118   3.781   2.234  2.0258 -0.5850  0.1708
 7192TIP3    H243068   1.166   3.768   2.091  3.3845  0.3831  0.5187
 7193TIP3   OH243069   5.637   5.054   6.645  0.3886 -0.0028  0.5107
 7193TIP3    H143070   5.707   5.103   6.602  0.4663 -1.5624 -1.2595
 7193TIP3    H243071   5.652   4.963   6.620 -1.9907 -0.4374  0.4515
 7194TIP3   OH243072   3.843   1.757   0.415 -0.6084 -0.4852 -0.2171
 7194TIP3    H143073   3.772   1.694   0.429 -1.4204  0.6116  0.8438
 7194TIP3    H243074   3.800   1.833   0.375 -0.2123  0.5053  1.1626
 7195TIP3   OH243075   6.400   5.383  12.749  0.4623 -0.1528 -0.3913
 7195TIP3    H143076   6.313   5.405  12.780  0.5976  2.5451 -1.6622
 7195TIP3    H243077   6.459   5.424  12.812  0.7694  0.2650 -0.9410
 7196TIP3   OH243078   6.817   1.707  12.956  0.0678  0.2509  0.1838
 7196TIP3    H143079   6.743   1.655  12.923  0.4355 -1.4910  1.8962
 7196TIP3    H243080   6.822   1.781  12.897 -1.1455 -1.1534 -1.8258
 7197TIP3   OH243081   4.091   1.501  12.361 -0.5371 -0.5911  0.2848
 7197TIP3    H143082   4.096   1.436  12.431 -0.2641 -0.9499 -0.0611
 7197TIP3    H243083   4.083   1.450  12.281 -1.6645 -0.1690  0.1103
 7198TIP3   OH243084   5.873   1.365  14.479 -0.0646 -0.1431  0.3184
 7198TIP3    H143085   5.883   1.309  14.556 -0.2587 -0.8378 -0.1421
 7198TIP3    H243086   5.906   1.311  14.407  1.6014  1.0913  0.1216
 7199TIP3   OH243087   3.113   4.419  14.455 -0.0298  0.4777  0.2267
 7199TIP3    H143088   3.019   4.399  14.461 -0.1519  0.7579 -0.5926
 7199TIP3    H243089   3.133   4.469  14.534 -0.0585 -1.5240  1.5652
 7200TIP3   OH243090   2.101   2.064   4.810 -0.4125  0.0424  0.0283
 7200TIP3    H143091   2.061   2.054   4.723 -2.5414  0.5299  0.8739
 7200TIP3    H243092   2.109   2.159   4.822 -3.0604  0.1976  1.4855
 7201TIP3   OH243093   0.076   5.433  15.984  0.4882  0.3817 -0.2299
 7201TIP3    H143094   0.072   5.473  16.071  4.3699  1.8762 -0.4993
 7201TIP3    H243095   0.015   5.484  15.930 -1.1468  0.1345  1.3079
 7202TIP3   OH243096   5.777   5.997   2.737 -0.0733 -0.4149 -0.2541
 7202TIP3    H143097   5.786   5.908   2.702  0.8670 -1.0871  1.5830
 7202TIP3    H243098   5.773   5.985   2.832 -2.4827  1.3259 -0.0338
 7203TIP3   OH243099   5.137   2.506  16.626 -0.3519  0.2081  0.2635
 7203TIP3    H143100   5.227   2.528  16.605 -0.2655  0.2499  0.6787
 7203TIP3    H243101   5.106   2.455  16.551 -0.8167  2.4139 -1.1478
 7204TIP3   OH243102   5.430   2.988   1.109 -0.0046 -0.6561  0.9136
 7204TIP3    H143103   5.523   2.967   1.111 -0.1074 -1.0918  1.7569
 7204TIP3    H243104   5.401   2.961   1.021  1.0356  1.2814 -0.0791
 7205TIP3   OH243105   3.508   0.616   3.592 -0.1150 -0.4277  0.2303
 7205TIP3    H143106   3.509   0.556   3.517 -0.1275  1.1693 -1.1012
 7205TIP3    H243107   3.585   0.592   3.643 -0.2280 -1.6892 -0.1590
 7206TIP3   OH243108   6.649   1.020  14.393  0.1474  0.2039 -0.6306
 7206TIP3    H143109   6.610   1.006  14.479 -0.5708  1.0307 -0.8131
 7206TIP3    H243110   6.742   1.003  14.406 -0.2505 -1.9735 -0.2166
 7207TIP3   OH243111   4.455   6.513   3.448  1.0079 -0.0911 -0.4563
 7207TIP3    H143112   4.430   6.597   3.408  0.0567  0.0041  0.2852
 7207TIP3    H243113   4.539   6.530   3.489 -0.2625  1.2853  1.8128
 7208TIP3   OH243114   1.915   5.910   3.077  1.0885  0.0662 -0.2147
 7208TIP3    H143115   1.875   5.931   3.162 -1.0054  0.8089 -1.2963
 7208TIP3    H243116   1.946   5.820   3.086 -0.1143 -0.2554  1.0050
 7209TIP3   OH243117   4.574   6.220   3.968  0.9561 -0.5232 -0.2684
 7209TIP3    H143118   4.567   6.307   4.008  0.8127 -0.3158 -0.7357
 7209TIP3    H243119   4.559   6.236   3.875 -0.4775 -1.2349 -0.1919
 7210TIP3   OH243120   6.013   5.139   1.694 -0.1102 -0.1037 -0.2643
 7210TIP3    H143121   6.046   5.216   1.648 -0.9057  1.7514  2.0908
 7210TIP3    H243122   5.948   5.101   1.634  0.9854  0.4381 -1.8578
 7211TIP3   OH243123   1.678   0.865   3.826  0.0095 -0.4365 -0.7266
 7211TIP3    H143124   1.740   0.884   3.896  1.6504  0.5737 -2.3526
 7211TIP3    H243125   1.633   0.947   3.810  0.4481 -0.3460 -1.5688
 7212TIP3   OH243126   1.154   3.763   1.111  0.3950  0.2684  1.0292
 7212TIP3    H143127   1.146   3.854   1.138  0.7874  1.0443 -1.2246
 7212TIP3    H243128   1.077   3.747   1.056  1.4008 -0.0353 -0.3630
 7213TIP3   OH243129   0.791   1.289  15.864  1.1839 -0.0118 -0.1094
 7213TIP3    H143130   0.726   1.357  15.845  0.2787 -0.4669  1.1868
 7213TIP3    H243131   0.875   1.334  15.857  0.9006  0.2669 -3.2440
 7214TIP3   OH243132   0.270   5.291   6.267  0.2957  0.4057 -0.0975
 7214TIP3    H143133   0.214   5.276   6.190 -0.4616 -0.0024  0.5166
 7214TIP3    H243134   0.212   5.333   6.330  1.0032  1.0387  0.1343
 7215TIP3   OH243135   2.459   6.026   1.049 -0.6887  0.2890 -0.8657
 7215TIP3    H143136   2.418   6.101   1.092 -0.3014  0.2706 -0.4551
 7215TIP3    H243137   2.495   5.973   1.121  3.0725  2.0080 -1.2376
 7216TIP3   OH243138   5.535   0.542   1.906 -0.2197  0.3611  0.2192
 7216TIP3    H143139   5.518   0.449   1.894  1.4918 -0.0895  0.9586
 7216TIP3    H243140   5.477   0.568   1.978  1.1911 -0.8051  1.8318
 7217TIP3   OH243141   4.006   2.062   4.910  0.4878  0.4065  0.0780
 7217TIP3    H143142   4.036   2.088   4.822  1.4676 -0.3923  0.1606
 7217TIP3    H243143   4.050   1.979   4.927  1.0412  0.9889  1.7023
 7218TIP3   OH243144   5.321   0.530   2.937 -0.2297  0.4933  0.6219
 7218TIP3    H143145   5.324   0.600   2.872 -1.8188  0.0435  0.0245
 7218TIP3    H243146   5.325   0.449   2.886  0.0413  0.1324  1.2008
 7219TIP3   OH243147   1.782   5.171   6.562 -0.1573 -0.7452  0.1627
 7219TIP3    H143148   1.857   5.143   6.511  0.0367 -0.6796  0.4068
 7219TIP3    H243149   1.820   5.203   6.644 -0.2662  1.2615 -0.5229
 7220TIP3   OH243150   0.801   6.401   4.756  0.0216  0.0753  0.2198
 7220TIP3    H143151   0.743   6.462   4.709  0.2326 -0.3600 -0.6198
 7220TIP3    H243152   0.781   6.417   4.848 -0.0458  1.3000  0.0153
 7221TIP3   OH243153   0.853   2.261   1.342 -0.3975  0.0917 -0.3278
 7221TIP3    H143154   0.897   2.185   1.378  1.4561 -0.2374 -3.0350
 7221TIP3    H243155   0.831   2.237   1.252 -2.8549  1.5975 -0.2500
 7222TIP3   OH243156   2.446   0.987   3.504 -0.5907  0.3874 -0.2074
 7222TIP3    H143157   2.499   1.005   3.427  0.2110  0.1843  0.2851
 7222TIP3    H243158   2.479   1.046   3.571  0.0408 -0.7747  0.5438
 7223TIP3   OH243159   6.755   1.707   3.687  0.2888 -0.1022 -0.1593
 7223TIP3    H143160   6.687   1.739   3.746  0.9297  1.6754 -0.3175
 7223TIP3    H243161   6.707   1.660   3.619 -0.7780  0.8628 -0.1131
 7224TIP3   OH243162   2.309   5.778  11.465  0.0342  0.0924 -0.1221
 7224TIP3    H143163   2.391   5.763  11.513  0.9806  1.1746 -1.3235
 7224TIP3    H243164   2.281   5.865  11.491  0.0744  0.3260 -0.8235
 7225TIP3   OH243165   0.355   6.078  11.848 -0.3786 -0.5630 -0.1846
 7225TIP3    H143166   0.400   6.081  11.933 -0.0220 -0.1025 -0.3895
 7225TIP3    H243167   0.262   6.066  11.871 -0.3181 -0.1565  0.2818
 7226TIP3   OH243168   2.520   2.622  15.451  0.0643 -0.1981 -0.0609
 7226TIP3    H143169   2.560   2.662  15.528  1.7916  0.7444 -1.3961
 7226TIP3    H243170   2.445   2.678  15.431  0.0772  0.0038  0.4373
 7227TIP3   OH243171   1.611   5.814   0.658  0.3308 -0.0885  0.1415
 7227TIP3    H143172   1.693   5.828   0.609  0.5567 -1.4621  0.0929
 7227TIP3    H243173   1.565   5.898   0.652  1.2935  0.4048 -0.6635
 7228TIP3   OH243174   1.667   2.022  15.813 -0.3894  0.3096 -0.3197
 7228TIP3    H143175   1.745   2.077  15.809 -1.8566  2.4152 -1.6533
 7228TIP3    H243176   1.655   1.989  15.724 -1.6249  0.9330 -0.4102
 7229TIP3   OH243177   5.567   5.194   0.508  0.2752 -0.2159 -0.0620
 7229TIP3    H143178   5.507   5.120   0.508  0.7229 -0.5869  0.2095
 7229TIP3    H243179   5.637   5.168   0.568  0.7442  0.1715 -0.4284
 7230TIP3   OH243180   4.067   6.040   4.169  0.2906 -0.9390  0.0771
 7230TIP3    H143181   4.019   5.999   4.242  2.3139  0.1178  2.1211
 7230TIP3    H243182   4.032   6.129   4.165  0.0192 -1.0622 -0.4543
 7231TIP3   OH243183   4.709   0.620  17.283 -0.1034  0.3675 -0.0268
 7231TIP3    H143184   4.617   0.621  17.309  0.0639  0.4352  0.5632
 7231TIP3    H243185   4.741   0.534  17.312  0.1369  0.5297  0.1888
 7232TIP3   OH243186   1.423   1.412   0.081  0.1510  0.2369  0.2826
 7232TIP3    H143187   1.433   1.468   0.159  3.3279  2.9680 -1.8380
 7232TIP3    H243188   1.503   1.361   0.078  0.5185  0.8656 -1.6371
 7233TIP3   OH243189   5.948   6.817  13.496 -0.0503 -0.4835 -0.3037
 7233TIP3    H143190   5.856   6.790  13.489 -0.5874  1.3225 -0.7910
 7233TIP3    H243191   5.944   6.902  13.540  1.0126  1.3232 -3.3636
 7234TIP3   OH243192   0.037   0.265   0.212 -1.1312  0.4267 -0.1543
 7234TIP3    H143193   0.107   0.330   0.214 -0.6771 -0.0578 -0.1594
 7234TIP3    H243194  -0.043   0.317   0.201 -0.7888  0.9909 -0.0507
 7235TIP3   OH243195   4.158   4.109   3.672 -0.1823  0.8761 -0.1991
 7235TIP3    H143196   4.102   4.036   3.644 -0.3206 -0.1505  2.4725
 7235TIP3    H243197   4.247   4.079   3.656 -0.2402  0.0914  0.8483
 7236TIP3   OH243198   4.639   0.800  13.033  0.4815 -0.2945 -0.1593
 7236TIP3    H143199   4.642   0.896  13.039  1.4666 -0.4119  1.7727
 7236TIP3    H243200   4.727   0.775  13.006  0.1195 -0.6588 -1.0401
 7237TIP3   OH243201   1.901   1.377   4.168  0.3919  0.0504  0.3508
 7237TIP3    H143202   1.973   1.370   4.231  1.1262  0.3531 -0.4282
 7237TIP3    H243203   1.916   1.306   4.105 -0.9594 -0.9376  1.1054
 7238TIP3   OH243204   5.950   3.453   1.442 -0.1957  0.0844 -0.5845
 7238TIP3    H143205   5.943   3.380   1.504 -1.4664  0.3333 -0.4099
 7238TIP3    H243206   6.041   3.482   1.449 -0.3846  0.3432  1.4795
 7239TIP3   OH243207   3.806   5.660   3.684 -0.7842 -0.1268 -0.4744
 7239TIP3    H143208   3.831   5.751   3.701 -0.2719 -0.2380 -0.6244
 7239TIP3    H243209   3.887   5.610   3.693 -0.9191 -0.4744 -1.0963
 7240TIP3   OH243210   1.898   5.052   5.336 -0.1229 -0.9470  0.1024
 7240TIP3    H143211   1.859   5.034   5.251  2.5641  1.3525 -1.7994
 7240TIP3    H243212   1.921   5.145   5.333 -1.8286 -0.1383  4.2725
 7241TIP3   OH243213   1.960   1.706   2.346 -0.3257 -0.0992  0.1819
 7241TIP3    H143214   1.949   1.721   2.440  0.3799 -1.3975  0.4983
 7241TIP3    H243215   1.872   1.685   2.314 -0.5432  0.1885  0.5843
 7242TIP3   OH243216   5.244   3.438  13.555  0.0349  0.0498  0.5261
 7242TIP3    H143217   5.339   3.442  13.541 -0.2452 -0.9206 -2.3785
 7242TIP3    H243218   5.232   3.371  13.623  1.3843 -0.8584 -0.0886
 7243TIP3   OH243219   2.659   4.851   4.699 -0.4850  0.3024 -0.7135
 7243TIP3    H143220   2.727   4.786   4.681  0.4794  1.3928 -1.0684
 7243TIP3    H243221   2.577   4.804   4.683  0.1163 -1.3950  0.9042
 7244TIP3   OH243222   4.472   2.121   0.357 -0.3310  0.0968 -0.2087
 7244TIP3    H143223   4.562   2.128   0.327 -0.3924  1.5934 -0.1286
 7244TIP3    H243224   4.427   2.074   0.287  0.1868  0.7596 -1.0080
 7245TIP3   OH243225   4.969   0.464   4.446 -0.4469  0.9575 -0.2393
 7245TIP3    H143226   5.016   0.540   4.411 -2.0682  2.3908  0.5991
 7245TIP3    H243227   5.039   0.406   4.477  0.9011  1.3083 -2.3767
 7246TIP3   OH243228   3.741   1.297  14.480 -0.1158 -0.2684  0.3846
 7246TIP3    H143229   3.741   1.205  14.505 -0.5507 -0.8285 -1.5169
 7246TIP3    H243230   3.715   1.297  14.388 -2.2129  1.9245  0.8832
 7247TIP3   OH243231   3.689   3.694   0.669  0.1809 -0.5043  0.5670
 7247TIP3    H143232   3.727   3.608   0.684  1.5385 -0.7501 -3.2543
 7247TIP3    H243233   3.601   3.676   0.634  0.6159 -0.4161 -0.6202
 7248TIP3   OH243234   4.726   0.387  16.554  0.7115 -0.2223 -0.8295
 7248TIP3    H143235   4.698   0.300  16.527  1.3544 -0.7580  0.1693
 7248TIP3    H243236   4.786   0.371  16.627 -0.1984  1.0986  0.2603
 7249TIP3   OH243237   5.307   2.018   3.945  0.2004 -0.2846  0.4755
 7249TIP3    H143238   5.283   1.976   3.862  1.4152 -1.0209  0.4651
 7249TIP3    H243239   5.227   2.061   3.974 -0.3203 -0.2251 -0.9467
 7250TIP3   OH243240   5.361   6.550  14.569  0.1217 -0.0884 -0.4999
 7250TIP3    H143241   5.298   6.611  14.607  0.8035 -0.2516  0.9655
 7250TIP3    H243242   5.400   6.597  14.496 -0.5622  0.5980 -0.4266
 7251TIP3   OH243243   3.047   1.391  15.716  0.1943  0.1289  0.2227
 7251TIP3    H143244   3.053   1.456  15.647 -0.9142 -0.4498 -0.4406
 7251TIP3    H243245   2.992   1.322  15.680  0.6387 -0.7820  1.2251
 7252TIP3   OH243246   2.560   1.406  16.551 -0.1758 -0.5009  0.4242
 7252TIP3    H143247   2.636   1.388  16.495 -0.3831 -2.1249  0.5959
 7252TIP3    H243248   2.497   1.448  16.493 -0.0921 -1.4428 -0.3965
 7253TIP3   OH243249   4.413   5.949   2.374  0.2100  0.0269  0.1308
 7253TIP3    H143250   4.390   6.036   2.406  1.3525  1.0357 -1.6206
 7253TIP3    H243251   4.336   5.920   2.326  0.3393  0.7019 -0.4927
 7254TIP3   OH243252   3.347   3.234   5.176 -0.1501 -0.1946 -0.1636
 7254TIP3    H143253   3.347   3.303   5.109  0.3001 -0.3483 -0.3325
 7254TIP3    H243254   3.373   3.278   5.256  0.1379 -0.1650 -0.2717
 7255TIP3   OH243255   4.327   5.467  17.030  0.0778 -0.1061  0.1153
 7255TIP3    H143256   4.295   5.546  16.987  0.5849  0.0121 -0.0572
 7255TIP3    H243257   4.272   5.397  16.996  0.6528 -0.0585 -0.9779
 7256TIP3   OH243258   3.931   0.034   4.292  0.2449  0.0319  0.3000
 7256TIP3    H143259   3.940   0.050   4.386  1.0106  0.6071  0.1401
 7256TIP3    H243260   3.869   0.100   4.261  1.0982  0.7880  0.1630
 7257TIP3   OH243261   4.184   0.502   0.080 -0.5594  0.0239 -0.2463
 7257TIP3    H143262   4.194   0.408   0.096 -1.0979  0.0472  0.2767
 7257TIP3    H243263   4.112   0.528   0.138  0.7923  1.1280  0.9960
 7258TIP3   OH243264   5.210   2.973  17.243  0.0360  0.3959  0.3797
 7258TIP3    H143265   5.283   3.034  17.229  0.4411 -0.4156 -1.2419
 7258TIP3    H243266   5.134   3.030  17.260  0.3755  1.4028 -1.2403
 7259TIP3   OH243267   5.538   2.052  13.510 -0.3562  0.1440  0.2282
 7259TIP3    H143268   5.554   1.958  13.495 -0.6257 -0.0003  0.8194
 7259TIP3    H243269   5.443   2.060  13.503 -0.3056  0.4355 -0.1410
 7260TIP3   OH243270   0.986   5.621   0.341 -0.0658 -0.8991 -0.9300
 7260TIP3    H143271   1.029   5.627   0.426 -1.1261  1.7660 -0.5024
 7260TIP3    H243272   0.966   5.528   0.331 -2.9849 -0.9837  3.3307
 7261TIP3   OH243273   1.306   2.729  11.508  0.8443  0.2041  0.1071
 7261TIP3    H143274   1.346   2.664  11.566 -0.1352 -1.1227 -0.6603
 7261TIP3    H243275   1.281   2.801  11.566  1.1805 -0.4656  1.1066
 7262TIP3   OH243276   5.936   1.997   3.753  0.1994 -0.0860 -0.5016
 7262TIP3    H143277   5.934   1.983   3.848  2.5365 -0.3638 -0.4384
 7262TIP3    H243278   5.909   1.914   3.715  0.1267 -0.2514 -0.0855
 7263TIP3   OH243279   3.347   5.865  16.143  0.4938 -0.3827 -0.5049
 7263TIP3    H143280   3.269   5.920  16.153 -0.4534 -1.7083 -0.2411
 7263TIP3    H243281   3.398   5.908  16.075  0.7053  1.7841  0.9420
 7264TIP3   OH243282   1.867   2.734  15.935  0.0513 -1.0819  1.0421
 7264TIP3    H143283   1.785   2.763  15.975  0.2236 -1.3349  1.5815
 7264TIP3    H243284   1.935   2.776  15.988  0.2767 -0.3214  0.1908
 7265TIP3   OH243285   0.227   1.908   1.781  0.2724  0.5165  0.3117
 7265TIP3    H143286   0.290   1.878   1.715 -1.0017 -1.6085 -0.0284
 7265TIP3    H243287   0.193   1.991   1.746  1.6379  0.8542 -0.2960
 7266TIP3   OH243288   2.724   3.846  16.188  0.3164  0.1645  0.6516
 7266TIP3    H143289   2.744   3.868  16.097 -2.7075 -0.1931 -0.2038
 7266TIP3    H243290   2.803   3.803  16.221  1.7683  1.0066 -1.5170
 7267TIP3   OH243291   6.517   3.538   2.984  0.0786 -0.1595  0.6025
 7267TIP3    H143292   6.472   3.612   2.943  1.9670  0.6663 -0.1263
 7267TIP3    H243293   6.461   3.512   3.056 -1.3191  1.0757  0.0066
 7268TIP3   OH243294   4.079   1.654   5.589 -0.2967 -0.0418 -0.4876
 7268TIP3    H143295   4.059   1.593   5.517  1.0885  0.8001 -1.6282
 7268TIP3    H243296   4.168   1.683   5.572 -0.4937  1.3840  0.7199
 7269TIP3   OH243297   2.323   0.188  12.533  0.0374 -0.0074 -0.1267
 7269TIP3    H143298   2.278   0.103  12.539 -2.1145  1.0671 -0.1298
 7269TIP3    H243299   2.372   0.183  12.451 -1.4914 -0.6235 -1.0529
 7270TIP3   OH243300   4.300   5.047  13.131  0.2727  0.0301  0.3261
 7270TIP3    H143301   4.395   5.054  13.143  0.3676 -1.1866  0.4952
 7270TIP3    H243302   4.287   5.057  13.037  0.3089  2.3870  0.5175
 7271TIP3   OH243303   3.284   1.480  15.251 -0.2636  0.3352 -0.0451
 7271TIP3    H143304   3.193   1.455  15.268 -0.0882 -0.3428 -0.0693
 7271TIP3    H243305   3.336   1.416  15.301  0.2136 -0.0720 -1.0446
 7272TIP3   OH243306   6.012   1.549  15.883  0.7011 -0.5719  0.4152
 7272TIP3    H143307   6.057   1.525  15.964  0.6416  1.1075  0.9822
 7272TIP3    H243308   6.050   1.633  15.859 -0.4550 -0.2654 -0.4086
 7273TIP3   OH243309   2.255   4.528  17.198  0.1031 -0.2214 -0.0072
 7273TIP3    H143310   2.255   4.434  17.218 -0.8758 -0.2290  0.0032
 7273TIP3    H243311   2.228   4.570  17.280 -0.0174  0.0310 -0.1762
 7274TIP3   OH243312   5.559   0.832  12.983  0.3258  0.3656  0.3240
 7274TIP3    H143313   5.547   0.842  13.078  2.6297  2.1882  0.4962
 7274TIP3    H243314   5.494   0.766  12.958  0.2859 -0.8946  3.3255
 7275TIP3   OH243315   3.990   3.738   4.145  0.1075 -0.2207  0.4440
 7275TIP3    H143316   4.018   3.824   4.112 -0.5833  0.4025  1.4232
 7275TIP3    H243317   4.029   3.732   4.232 -2.6692  0.6936  1.8782
 7276TIP3   OH243318   0.784   0.077   4.819 -0.0380 -0.0858  0.4418
 7276TIP3    H143319   0.713   0.088   4.882 -0.8543 -0.2127 -0.4267
 7276TIP3    H243320   0.848   0.021   4.864 -0.4702  0.0645  1.2505
 7277TIP3   OH243321   2.425   4.242  10.927  0.4630  0.5570 -0.6639
 7277TIP3    H143322   2.451   4.193  11.005  0.3359  1.3113 -0.1444
 7277TIP3    H243323   2.469   4.196  10.855  1.3276  0.4042 -0.0579
 7278TIP3   OH243324   5.433   5.630   2.633  0.1286 -0.4093 -0.4261
 7278TIP3    H143325   5.342   5.603   2.621  0.2709 -0.3763 -1.6766
 7278TIP3    H243326   5.428   5.723   2.652 -0.1208 -0.4836 -0.1244
 7279TIP3   OH243327   4.251   2.775  16.210 -0.3623 -0.1023 -0.0494
 7279TIP3    H143328   4.252   2.709  16.279  0.2028 -0.1743 -0.1251
 7279TIP3    H243329   4.196   2.737  16.141  0.5824 -0.8462 -0.4277
 7280TIP3   OH243330   3.677   4.850  10.386  0.0379  0.5509 -0.1115
 7280TIP3    H143331   3.761   4.892  10.364 -0.6428  1.5235 -0.9325
 7280TIP3    H243332   3.623   4.920  10.420 -0.0986 -0.2918  1.4910
 7281TIP3   OH243333   3.768   4.731  12.724  1.2220  0.0704 -0.2514
 7281TIP3    H143334   3.795   4.823  12.712  1.3299  0.1185  0.3288
 7281TIP3    H243335   3.690   4.722  12.670  1.0799  0.5690 -0.1369
 7282TIP3   OH243336   4.688   6.339  15.687  0.3972  0.0395  0.7871
 7282TIP3    H143337   4.702   6.433  15.682  0.3713  0.0135  0.1534
 7282TIP3    H243338   4.601   6.330  15.727 -0.4260  0.3403 -0.8410
 7283TIP3   OH243339   2.306   4.147   3.493  0.1766 -0.4789  0.0084
 7283TIP3    H143340   2.354   4.068   3.466  0.6272  0.3498 -1.7610
 7283TIP3    H243341   2.362   4.187   3.559  1.0970 -0.4524 -0.7571
 7284TIP3   OH243342   0.314   1.322   5.820  0.3914  0.2799 -0.1323
 7284TIP3    H143343   0.386   1.350   5.877  0.5994 -0.8671  0.1928
 7284TIP3    H243344   0.352   1.322   5.732  0.5363  0.4972 -0.0721
 7285TIP3   OH243345   5.817   2.531   3.722 -0.0599  0.3615 -0.6590
 7285TIP3    H143346   5.902   2.561   3.690  0.5544  1.2921  1.6048
 7285TIP3    H243347   5.835   2.445   3.761  0.3939  1.3887  1.6131
 7286TIP3   OH243348   2.531   1.434  15.425 -0.3110 -0.0557 -0.6506
 7286TIP3    H143349   2.519   1.528  15.439  0.5243 -0.1318  0.8353
 7286TIP3    H243350   2.494   1.418  15.339 -3.3968  1.0682  0.3285
 7287TIP3   OH243351   6.566   5.941   5.227 -0.6554  0.3803 -0.3403
 7287TIP3    H143352   6.500   6.002   5.192  0.1095  0.9131 -0.8717
 7287TIP3    H243353   6.646   5.962   5.179 -0.0333 -0.0939  0.4724
 7288TIP3   OH243354   5.156   0.253   2.053  0.0976 -0.0285  0.2435
 7288TIP3    H143355   5.117   0.177   2.010 -0.5054 -0.0740  0.8553
 7288TIP3    H243356   5.250   0.243   2.038  0.0929 -1.3030  0.9596
 7289TIP3   OH243357   3.080   3.879   2.994  0.3730 -0.2368 -0.3026
 7289TIP3    H143358   3.126   3.807   3.038 -1.2252 -2.1175 -1.5210
 7289TIP3    H243359   3.073   3.850   2.903 -1.6448  0.7626 -0.5161
 7290TIP3   OH243360   1.953   0.158  11.809 -0.1385  0.2383 -0.4842
 7290TIP3    H143361   1.956   0.242  11.763  0.4549 -0.2401 -1.3328
 7290TIP3    H243362   1.973   0.180  11.900 -0.5420  1.0856 -0.5910
 7291TIP3   OH243363   0.330   5.328  11.367 -0.7305 -0.5659 -0.2153
 7291TIP3    H143364   0.285   5.397  11.319 -1.9784 -0.6983  0.6941
 7291TIP3    H243365   0.404   5.372  11.409 -2.2330  0.5708  1.4065
 7292TIP3   OH243366   6.181   0.962   5.290  0.0210 -0.1688 -0.4781
 7292TIP3    H143367   6.132   1.002   5.362 -0.2346 -1.6758  0.2382
 7292TIP3    H243368   6.268   0.946   5.327 -0.2031 -1.2278 -0.3786
 7293TIP3   OH243369   4.570   6.346   5.670  0.1168  0.0275 -0.0521
 7293TIP3    H143370   4.537   6.418   5.617  1.2729  0.2493 -0.5001
 7293TIP3    H243371   4.501   6.280   5.666  0.8171 -0.7102 -3.3423
 7294TIP3   OH243372   5.827   4.453  13.229 -0.3433 -0.0365 -0.8501
 7294TIP3    H143373   5.782   4.402  13.162 -0.2408 -2.5612  0.8896
 7294TIP3    H243374   5.758   4.487  13.285 -0.2992 -0.5283 -0.4898
 7295TIP3   OH243375   3.208   2.645   2.751 -0.0915  0.5657  0.3506
 7295TIP3    H143376   3.155   2.702   2.806 -1.2976  1.7082 -1.8557
 7295TIP3    H243377   3.159   2.638   2.669  0.4598 -2.9624  0.1645
 7296TIP3   OH243378   6.662   0.372  16.370  0.3809 -0.2118 -0.3831
 7296TIP3    H143379   6.741   0.423  16.355  1.5321 -1.9310 -0.4495
 7296TIP3    H243380   6.595   0.416  16.318  1.0313  1.8265  0.4237
 7297TIP3   OH243381   6.076   2.824  14.037 -0.0149  0.2959  0.1445
 7297TIP3    H143382   5.986   2.796  14.054 -0.0373  0.1193 -0.2590
 7297TIP3    H243383   6.123   2.803  14.118  0.1099 -1.5334 -0.3617
 7298TIP3   OH243384   5.817   6.160  14.216 -0.1164  0.6240 -0.2254
 7298TIP3    H143385   5.739   6.179  14.164  0.0516 -0.5456 -0.9511
 7298TIP3    H243386   5.793   6.083  14.267 -0.1591  1.5558  1.2100
 7299TIP3   OH243387   0.867   2.233   6.056  0.1091  0.6379 -0.1274
 7299TIP3    H143388   0.933   2.170   6.025 -0.0214  0.9560 -1.0648
 7299TIP3    H243389   0.785   2.204   6.016 -0.1694  0.7320  0.3692
 7300TIP3   OH243390   3.051   0.820   1.419  0.6924  0.0193 -0.0226
 7300TIP3    H143391   3.142   0.843   1.436  0.5164 -0.0446  1.0784
 7300TIP3    H243392   3.055   0.740   1.367  1.2597  0.3185 -0.4509
 7301TIP3   OH243393   6.273   4.557   2.191  0.2069  0.2618  0.2560
 7301TIP3    H143394   6.311   4.586   2.108  1.5339 -0.4164  0.5905
 7301TIP3    H243395   6.320   4.476   2.211 -0.6453  0.0057  1.2842
 7302TIP3   OH243396   3.711   6.119  13.795 -0.0481  0.1322 -0.0671
 7302TIP3    H143397   3.763   6.091  13.871  0.3194  0.9424 -0.0067
 7302TIP3    H243398   3.699   6.213  13.808  0.8748  0.4750 -1.5243
 7303TIP3   OH243399   6.667   3.289   3.338  0.2101 -0.0064 -0.4237
 7303TIP3    H143400   6.601   3.317   3.401  0.1415  2.0215 -1.3118
 7303TIP3    H243401   6.711   3.370   3.312  2.9693 -1.2538  0.0014
 7304TIP3   OH243402   3.959   0.814  13.010 -0.0065  0.2603 -0.3232
 7304TIP3    H143403   3.864   0.831  13.007 -0.4427 -1.9113 -0.2527
 7304TIP3    H243404   3.972   0.767  13.092  1.4194  1.7686  0.3783
 7305TIP3   OH243405   1.647   0.677  14.110 -0.2871 -0.5469 -0.0499
 7305TIP3    H143406   1.738   0.652  14.125 -0.2151 -0.3239 -0.1232
 7305TIP3    H243407   1.646   0.718  14.024 -0.7060 -1.8442 -0.7037
 7306TIP3   OH243408   6.214   2.582  17.213 -0.0253 -0.9233  0.1683
 7306TIP3    H143409   6.283   2.615  17.271 -0.6464  1.5973 -0.4082
 7306TIP3    H243410   6.260   2.560  17.132  0.1951  0.1902 -0.0179
 7307TIP3   OH243411   5.484   2.475   0.825 -0.2986 -0.6782 -0.0273
 7307TIP3    H143412   5.395   2.508   0.811 -0.7976 -2.0607 -0.3418
 7307TIP3    H243413   5.473   2.405   0.890  0.5558 -0.8828 -0.0969
 7308TIP3   OH243414   4.376   5.091   0.064 -0.8345  0.2710 -0.2698
 7308TIP3    H143415   4.454   5.087   0.120 -0.5754  0.3314 -0.6286
 7308TIP3    H243416   4.392   5.027  -0.005 -0.7006  0.9274 -0.8589
 7309TIP3   OH243417   1.119   1.039   3.805  0.4788  0.2633 -0.0282
 7309TIP3    H143418   1.115   1.133   3.823  1.8048  0.4698 -0.7200
 7309TIP3    H243419   1.037   1.005   3.841  0.3827  1.5372  1.0604
 7310TIP3   OH243420   1.314   4.200   0.651 -0.2394 -0.5728  0.0304
 7310TIP3    H143421   1.396   4.216   0.605 -0.3279 -1.1753 -0.3351
 7310TIP3    H243422   1.252   4.261   0.612  0.0250 -0.1314  0.2922
 7311TIP3   OH243423   0.565   5.180   2.598 -0.3280 -0.1774  0.6430
 7311TIP3    H143424   0.592   5.246   2.534  1.5431 -1.3447  0.1681
 7311TIP3    H243425   0.638   5.176   2.660 -0.0063 -2.3470  0.1954
 7312TIP3   OH243426   6.585   0.401   3.901 -0.0863  0.2435 -0.4615
 7312TIP3    H143427   6.552   0.374   3.987 -1.8049  1.4219 -0.6979
 7312TIP3    H243428   6.679   0.411   3.913 -0.4170  1.4586  1.5931
 7313TIP3   OH243429   4.739   3.460  13.113  0.5050  0.3351 -0.1758
 7313TIP3    H143430   4.680   3.535  13.115  0.4470  0.2838  0.0157
 7313TIP3    H243431   4.691   3.390  13.156  0.7886  0.3530  0.1721
 7314TIP3   OH243432   5.666   5.540  14.671 -0.0703 -0.4470  1.0242
 7314TIP3    H143433   5.614   5.533  14.751  0.0622  1.8424  1.3908
 7314TIP3    H243434   5.699   5.630  14.673 -0.0118 -0.3612 -1.5897
 7315TIP3   OH243435   1.805   6.812   5.875  0.1904 -0.4183  0.0652
 7315TIP3    H143436   1.760   6.731   5.899 -0.5248 -0.0383  0.0367
 7315TIP3    H243437   1.880   6.784   5.824  0.4207 -1.1112  0.7706
 7316TIP3   OH243438   4.671   6.484   6.527 -0.5830  0.1873  0.3680
 7316TIP3    H143439   4.684   6.571   6.489  0.8480 -0.4673 -0.7483
 7316TIP3    H243440   4.759   6.457   6.554 -1.2713 -0.2098  2.3665
 7317TIP3   OH243441   6.301   2.671  12.139  0.3382 -0.5137 -0.5471
 7317TIP3    H143442   6.322   2.709  12.053 -1.0799 -0.5591 -0.9413
 7317TIP3    H243443   6.235   2.730  12.176  1.8038  0.1925  1.0848
 7318TIP3   OH243444   0.285   2.093  16.554 -0.3119  0.0926  0.2312
 7318TIP3    H143445   0.246   2.042  16.625 -0.1697 -0.1648  0.1245
 7318TIP3    H243446   0.212   2.145  16.520 -0.0762  1.3144  1.5010
 7319TIP3   OH243447   4.279   0.120   0.966 -0.6509  0.0294  0.2294
 7319TIP3    H143448   4.218   0.192   0.948  0.3249  0.6226 -0.8028
 7319TIP3    H243449   4.326   0.148   1.045 -1.6718 -0.4267  1.0273
 7320TIP3   OH243450   1.896   5.928   0.707 -0.0602  0.1161 -0.2809
 7320TIP3    H143451   1.938   5.896   0.627  1.1849  0.0550  0.3674
 7320TIP3    H243452   1.882   5.850   0.760 -0.0561  0.2557 -0.0719
 7321TIP3   OH243453   4.848   2.577   3.975  0.1706 -0.2748 -0.4943
 7321TIP3    H143454   4.873   2.663   3.942  0.3708 -0.2782 -0.3530
 7321TIP3    H243455   4.763   2.560   3.935 -0.9431  0.9544  1.2270
 7322TIP3   OH243456   4.372   0.413  12.986 -0.0601 -0.1498 -0.0421
 7322TIP3    H143457   4.444   0.360  13.021 -0.1496 -0.6100 -0.5338
 7322TIP3    H243458   4.294   0.362  13.005 -0.1706 -0.0808 -0.3020
 7323TIP3   OH243459   1.842   1.128  14.943  0.0479 -0.3666  0.5044
 7323TIP3    H143460   1.753   1.118  14.976 -1.5049  0.1970 -3.1244
 7323TIP3    H243461   1.866   1.218  14.966 -1.3694  0.3483 -0.6714
 7324TIP3   OH243462   0.030   1.757  17.158 -0.3324 -0.0377  0.5514
 7324TIP3    H143463   0.038   1.704  17.079  0.4507 -2.4228  2.1085
 7324TIP3    H243464   0.119   1.766  17.191 -0.7421 -0.0154  1.7090
 7325TIP3   OH243465   0.604   2.957  13.163 -0.3580  0.4230 -0.5491
 7325TIP3    H143466   0.527   2.966  13.106 -2.2524  0.7986  1.9295
 7325TIP3    H243467   0.600   2.866  13.194  0.2561  0.4372 -0.4148
 7326TIP3   OH243468   0.754   3.300  11.780  0.0316  0.1048 -0.8916
 7326TIP3    H143469   0.823   3.237  11.801 -0.2114 -0.2054 -1.0078
 7326TIP3    H243470   0.678   3.246  11.760 -0.1655  0.4354 -1.0488
 7327TIP3   OH243471   0.241   4.029   6.674 -0.2052  0.4389 -0.0528
 7327TIP3    H143472   0.289   3.974   6.737  1.4124  0.0076 -1.5920
 7327TIP3    H243473   0.149   4.015   6.696  0.2851  1.0689  2.8306
 7328TIP3   OH243474   2.306   2.276   5.018 -0.6940 -0.1076  0.3756
 7328TIP3    H143475   2.241   2.331   4.974  0.4424 -0.8605 -2.5549
 7328TIP3    H243476   2.255   2.205   5.057 -1.7925  0.3353 -0.1991
 7329TIP3   OH243477   4.446   1.803   1.007 -0.2780 -0.3639 -0.4630
 7329TIP3    H143478   4.441   1.838   1.096 -0.9924 -0.2611 -0.5403
 7329TIP3    H243479   4.356   1.805   0.975 -0.1370 -1.0848 -0.9290
 7330TIP3   OH243480   5.504   1.466  14.319 -0.5058  0.1556  0.3912
 7330TIP3    H143481   5.500   1.381  14.363 -0.5647 -0.4639 -0.7888
 7330TIP3    H243482   5.581   1.460  14.262  0.2632  1.3718  1.2361
 7331TIP3   OH243483   5.402   2.199  14.552 -0.3195  0.1365  0.1808
 7331TIP3    H143484   5.408   2.203  14.457 -0.9047 -1.5632  0.0233
 7331TIP3    H243485   5.430   2.285  14.582 -3.2736  1.9324 -1.6682
 7332TIP3   OH243486   3.040   1.112   1.603 -0.4263 -0.2598 -0.1674
 7332TIP3    H143487   3.126   1.144   1.577 -0.0471  0.6666  1.9979
 7332TIP3    H243488   3.042   1.018   1.585  1.2958 -0.3609  0.4302
 7333TIP3   OH243489   6.022   5.708   4.121  0.1913 -0.1527 -0.1148
 7333TIP3    H143490   6.059   5.631   4.164  0.6079  0.2423  0.2563
 7333TIP3    H243491   6.086   5.732   4.054 -0.4052 -0.7004 -0.8915
 7334TIP3   OH243492   0.338   3.611   1.557  0.2050  0.0449 -0.5166
 7334TIP3    H143493   0.429   3.588   1.575 -0.1859 -1.5256 -0.4101
 7334TIP3    H243494   0.343   3.663   1.477  1.3598  1.7727  0.6109
 7335TIP3   OH243495   6.221   3.367   3.445 -0.0790  0.2800 -0.2128
 7335TIP3    H143496   6.211   3.316   3.526  1.3017  2.4289  1.4486
 7335TIP3    H243497   6.158   3.438   3.454 -0.0678  0.4165 -1.1502
 7336TIP3   OH243498   4.907   0.960  14.483 -0.1139 -1.1870  0.5142
 7336TIP3    H143499   4.828   0.953  14.537 -0.2917 -1.5849  0.2136
 7336TIP3    H243500   4.979   0.962  14.546 -0.4109  0.3320  0.8454
 7337TIP3   OH243501   4.615   4.765  17.055 -0.0772 -0.2757  0.1197
 7337TIP3    H143502   4.685   4.741  17.116  0.8277 -0.3218 -0.9017
 7337TIP3    H243503   4.660   4.780  16.972 -0.6629  3.8177  0.3343
 7338TIP3   OH243504   3.013   3.932  12.549  0.6621  0.0973  0.5945
 7338TIP3    H143505   2.996   3.956  12.458 -0.4110 -1.5028  0.3209
 7338TIP3    H243506   2.940   3.969  12.598 -0.7409 -2.0020  0.2369
 7339TIP3   OH243507   2.605   4.783  15.605 -0.0959 -0.2011 -0.1874
 7339TIP3    H143508   2.678   4.844  15.614  1.5951 -2.4177  2.4714
 7339TIP3    H243509   2.527   4.838  15.619  1.2110  1.7082  0.0185
 7340TIP3   OH243510   4.804   2.632  16.058 -0.0623 -0.4794 -0.4519
 7340TIP3    H143511   4.714   2.622  16.027 -0.1761 -1.0108  0.0263
 7340TIP3    H243512   4.795   2.684  16.138  0.0167 -0.8309 -0.2141
 7341TIP3   OH243513   5.899   3.014  13.492  0.1094  0.2903  0.3745
 7341TIP3    H143514   5.942   3.049  13.415  0.3883  0.3188  0.5420
 7341TIP3    H243515   5.911   3.081  13.559 -2.2165  1.3968 -0.1966
 7342TIP3   OH243516   1.316   4.115  12.742  0.6801 -0.6209  0.5073
 7342TIP3    H143517   1.225   4.123  12.714  0.7604 -0.2512  0.3507
 7342TIP3    H243518   1.365   4.100  12.661  0.9658  0.8793  0.3806
 7343TIP3   OH243519   0.929   2.153   4.913  0.1796  0.3267 -0.2760
 7343TIP3    H143520   0.991   2.080   4.917  1.5818  1.2751 -2.3468
 7343TIP3    H243521   0.984   2.229   4.893 -1.5524  1.3949 -1.2246
 7344TIP3   OH243522   1.223   6.276  11.003  0.6036  0.0771 -0.1579
 7344TIP3    H143523   1.229   6.369  10.981  0.0039 -0.1024 -1.0982
 7344TIP3    H243524   1.178   6.236  10.929  0.4687 -0.8980  0.4349
 7345TIP3   OH243525   4.019   5.817   1.981 -0.8373  0.0553 -0.3867
 7345TIP3    H143526   4.106   5.778   1.975 -1.9876 -2.6972 -0.5563
 7345TIP3    H243527   4.001   5.849   1.892 -1.4151 -2.8319 -1.4033
 7346TIP3   OH243528   5.439   4.627  11.450  0.5475  0.1333  0.2066
 7346TIP3    H143529   5.380   4.551  11.456  1.8071 -0.9863 -0.8634
 7346TIP3    H243530   5.466   4.644  11.540 -1.0915  0.4392  0.6704
 7347TIP3   OH243531   1.734   2.183  12.845 -0.3547  0.0573  0.1600
 7347TIP3    H143532   1.773   2.262  12.882 -1.3937  0.2730  0.8413
 7347TIP3    H243533   1.800   2.149  12.785 -0.2771  2.0421 -0.9826
 7348TIP3   OH243534   2.013   1.396   6.183  0.0569 -0.2925  0.0661
 7348TIP3    H143535   2.071   1.324   6.207  0.3613 -0.1056 -0.0943
 7348TIP3    H243536   1.929   1.374   6.223 -0.1510 -1.2632 -0.8550
 7349TIP3   OH243537   0.983   0.447  13.835 -0.0936  0.6859  0.3534
 7349TIP3    H143538   0.998   0.542  13.832  1.7160  0.4418  0.5024
 7349TIP3    H243539   0.956   0.430  13.926  1.6225  0.8307  0.9257
 7350TIP3   OH243540   4.243   1.865  15.848 -0.0606 -0.7033 -0.4290
 7350TIP3    H143541   4.186   1.881  15.773 -1.5014 -1.3679  0.4680
 7350TIP3    H243542   4.236   1.771  15.863  1.2740 -0.7894 -0.2721
 7351TIP3   OH243543   4.918   6.079   0.659 -0.1659 -0.0487  0.2876
 7351TIP3    H143544   4.953   6.004   0.612  0.7618 -0.1713  1.1272
 7351TIP3    H243545   4.918   6.150   0.595  0.7406 -0.2968 -0.0052
 7352TIP3   OH243546   5.303   3.101  15.516 -0.2180 -0.0785  0.1255
 7352TIP3    H143547   5.260   3.034  15.464 -0.8538 -0.0128  0.5622
 7352TIP3    H243548   5.255   3.103  15.599  2.2201 -1.8690  1.7320
 7353TIP3   OH243549   1.625   2.831  16.048  0.2745  0.2393 -0.1103
 7353TIP3    H143550   1.552   2.795  15.999 -1.5915 -0.1329  2.6951
 7353TIP3    H243551   1.644   2.766  16.116  0.0701  2.2897  2.0689
 7354TIP3   OH243552   2.544   6.229  12.701  0.0466 -0.7444  0.1218
 7354TIP3    H143553   2.543   6.236  12.797  0.9857  0.7450  0.0553
 7354TIP3    H243554   2.628   6.188  12.681 -0.1604 -1.0788 -0.0648
 7355TIP3   OH243555   5.489   3.873   0.256  0.5156  0.3700 -0.5284
 7355TIP3    H143556   5.407   3.920   0.238  0.5666  0.4954 -0.4367
 7355TIP3    H243557   5.513   3.899   0.345 -0.3544 -1.1771  0.1916
 7356TIP3   OH243558   5.263   4.068   4.885  0.2261 -0.4846  0.0704
 7356TIP3    H143559   5.313   4.074   4.966  0.9129 -0.4914 -0.3480
 7356TIP3    H243560   5.214   3.986   4.893  1.2069 -1.0931 -0.0300
 7357TIP3   OH243561   4.128   2.382   3.925  0.4340  0.1046 -0.0735
 7357TIP3    H143562   4.175   2.463   3.905  1.2913 -0.2940  0.2884
 7357TIP3    H243563   4.111   2.343   3.839  1.7427 -0.2846 -0.1782
 7358TIP3   OH243564   5.853   6.213  14.977  0.6051  0.0126 -0.5589
 7358TIP3    H143565   5.790   6.152  14.939  0.5036 -0.5749  0.5165
 7358TIP3    H243566   5.932   6.160  14.991 -0.2083 -0.5871  2.5771
 7359TIP3   OH243567   2.774   3.535  10.701 -0.3479  0.0143 -0.8955
 7359TIP3    H143568   2.711   3.541  10.629  1.0790  0.8515 -2.1274
 7359TIP3    H243569   2.731   3.581  10.774 -0.8244  1.3406 -1.9659
 7360TIP3   OH243570   2.324   0.168  15.067 -0.2665 -0.5124 -0.1633
 7360TIP3    H143571   2.297   0.206  14.983 -0.6835  0.1658  0.2647
 7360TIP3    H243572   2.420   0.172  15.065 -0.2889  2.0054  0.4624
 7361TIP3   OH243573   6.055   0.708  17.190  1.1027 -1.2412 -0.0747
 7361TIP3    H143574   5.995   0.649  17.145 -0.9650  1.7305 -1.6074
 7361TIP3    H243575   6.033   0.700  17.283  0.5264 -2.4226 -0.2992
 7362TIP3   OH243576   3.013   5.459   1.726 -0.5561  0.5673  0.0155
 7362TIP3    H143577   2.931   5.508   1.737 -0.1710  1.4005 -0.7331
 7362TIP3    H243578   3.071   5.497   1.792 -0.4608  0.6547 -0.1206
 7363TIP3   OH243579   1.858   5.812  17.120  0.3132 -0.0589 -0.6649
 7363TIP3    H143580   1.923   5.854  17.175  0.4390 -0.4837 -0.4801
 7363TIP3    H243581   1.889   5.721  17.112 -0.1821 -0.2275 -0.6898
 7364TIP3   OH243582   6.028   3.974  15.755 -0.1450  0.2250  0.1974
 7364TIP3    H143583   6.119   3.978  15.783 -0.2288 -0.5182  0.6176
 7364TIP3    H243584   6.019   3.887  15.716 -0.5602  0.4629 -0.2558
 7365TIP3   OH243585   6.702   4.146   4.134  0.1508  0.8276  0.5311
 7365TIP3    H143586   6.660   4.143   4.220 -3.8899  2.0218 -1.1255
 7365TIP3    H243587   6.648   4.089   4.079  3.0181 -0.4670 -1.1635
 7366TIP3   OH243588   4.332   6.396   4.609  0.4701  0.2575  0.6522
 7366TIP3    H143589   4.401   6.446   4.652  2.7430 -0.3057 -2.0668
 7366TIP3    H243590   4.262   6.459   4.595  2.1643  2.0362 -0.2772
 7367TIP3   OH243591   2.812   0.741   3.093 -0.1563 -0.0926 -0.0934
 7367TIP3    H143592   2.745   0.707   3.034  0.0040 -1.2857  0.3807
 7367TIP3    H243593   2.879   0.778   3.036 -0.3139 -0.6294 -0.6327
 7368TIP3   OH243594   5.635   3.749   3.518  0.0297 -0.4566 -0.2316
 7368TIP3    H143595   5.683   3.830   3.533 -2.4327  1.6168 -2.5636
 7368TIP3    H243596   5.552   3.777   3.479 -0.6347 -4.1581 -1.9092
 7369TIP3   OH243597   0.611   2.280   5.421  0.6167  0.0535 -0.6742
 7369TIP3    H143598   0.705   2.299   5.411  0.2571  1.9623 -0.7313
 7369TIP3    H243599   0.600   2.262   5.514  1.2085 -1.3626 -0.8486
 7370TIP3   OH243600   0.480   3.695  11.418 -0.6580 -0.2149 -0.0150
 7370TIP3    H143601   0.573   3.708  11.397 -0.2228 -0.3079  1.7119
 7370TIP3    H243602   0.479   3.682  11.513 -2.4422 -0.2683 -0.0212
 7371TIP3   OH243603   4.908   0.206  12.765  0.2355  0.4332  0.1441
 7371TIP3    H143604   4.922   0.155  12.845 -0.3596  0.6096  0.3676
 7371TIP3    H243605   4.968   0.280  12.774 -1.5051  1.7687  1.6016
 7372TIP3   OH243606   4.953   5.323   2.204  0.2710  0.2539  0.2726
 7372TIP3    H143607   4.944   5.419   2.203 -1.8392  0.1089  0.0730
 7372TIP3    H243608   4.992   5.303   2.288 -1.6108  1.1882  1.4398
 7373TIP3   OH243609   4.465   3.844   2.053  0.4310 -0.4164 -0.3314
 7373TIP3    H143610   4.373   3.841   2.028  0.1742 -0.1952  0.5570
 7373TIP3    H243611   4.512   3.860   1.970 -0.4810  1.7246 -0.4973
 7374TIP3   OH243612   4.245   5.058  14.873  0.3338 -0.4277 -0.1243
 7374TIP3    H143613   4.329   5.062  14.827 -0.3626  2.1883 -1.3515
 7374TIP3    H243614   4.267   5.076  14.965  1.0277  1.3989 -0.6219
 7375TIP3   OH243615   3.511   4.479   1.111  0.1071  0.0449  0.0576
 7375TIP3    H143616   3.454   4.547   1.075  0.6733 -0.1069 -1.1605
 7375TIP3    H243617   3.513   4.411   1.044 -0.0758 -0.9899  1.0556
 7376TIP3   OH243618   5.113   4.175  14.655  0.0808 -0.1464  0.0658
 7376TIP3    H143619   5.049   4.106  14.640 -0.1933  0.5617 -2.4272
 7376TIP3    H243620   5.063   4.248  14.692  0.0721 -0.6655  1.1157
 7377TIP3   OH243621   1.528   3.110  12.022  0.3599  0.1998  0.4189
 7377TIP3    H143622   1.488   3.120  11.936  1.5742  1.4523 -0.0321
 7377TIP3    H243623   1.513   3.019  12.045 -1.5089  0.2790 -0.3331
 7378TIP3   OH243624   4.912   6.148  15.828 -0.4787  0.3934 -0.1182
 7378TIP3    H143625   4.825   6.164  15.792 -0.7429 -2.8980 -1.2188
 7378TIP3    H243626   4.895   6.098  15.908  0.3790  0.4014  0.0716
 7379TIP3   OH243627   4.407   5.171  15.768  0.2090  0.1355  0.0756
 7379TIP3    H143628   4.395   5.118  15.689  1.8711  0.9103 -0.7676
 7379TIP3    H243629   4.462   5.118  15.825 -1.2951 -0.5744  0.9042
 7380TIP3   OH243630   5.363   0.870   3.878  0.1896 -0.1630 -0.3100
 7380TIP3    H143631   5.306   0.880   3.802  0.2530  0.7493 -0.2474
 7380TIP3    H243632   5.403   0.956   3.890  0.3923 -0.3686  0.5932
 7381TIP3   OH243633   2.627   3.272   2.526 -0.4616  0.8634  0.0093
 7381TIP3    H143634   2.711   3.302   2.491  0.3894  0.1027  1.2622
 7381TIP3    H243635   2.597   3.344   2.582 -0.7272  1.2023 -0.5687
 7382TIP3   OH243636   0.179   0.470   1.082 -0.9467 -0.0278  0.0511
 7382TIP3    H143637   0.273   0.480   1.099 -0.6118 -1.9282 -0.4241
 7382TIP3    H243638   0.137   0.487   1.166 -0.2080  0.9909  0.2359
 7383TIP3   OH243639   6.783   0.647   4.766 -0.1721 -0.0841 -0.2893
 7383TIP3    H143640   6.842   0.695   4.824 -1.4553  0.2823  0.7432
 7383TIP3    H243641   6.826   0.651   4.680  1.3299  0.1116  0.4358
 7384TIP3   OH243642   3.372   3.288   1.199 -0.5570 -0.8775 -0.7155
 7384TIP3    H143643   3.416   3.211   1.236  0.4485  0.2720  0.5425
 7384TIP3    H243644   3.357   3.345   1.274 -1.0019  0.3056 -1.6829
 7385TIP3   OH243645   5.421   6.386   0.742 -0.0393 -0.1669  0.5269
 7385TIP3    H143646   5.413   6.349   0.655  0.8238 -2.3125  1.3069
 7385TIP3    H243647   5.340   6.360   0.787  0.3374 -0.6806  0.9200
 7386TIP3   OH243648   0.036   5.741  12.078  0.2114 -0.1131 -0.0631
 7386TIP3    H143649   0.077   5.778  12.156 -0.6150  1.9028 -0.5118
 7386TIP3    H243650   0.110   5.713  12.023  0.9194  1.1803  0.1911
 7387TIP3   OH243651   2.874   6.380   2.747 -0.0779  0.0957  0.6089
 7387TIP3    H143652   2.790   6.366   2.791 -0.3584 -2.9854 -0.6325
 7387TIP3    H243653   2.872   6.471   2.720 -4.1277 -0.3675 -1.4380
 7388TIP3   OH243654   0.463   0.923   1.427  0.4355 -0.1636 -0.5292
 7388TIP3    H143655   0.496   1.008   1.398  0.4662  0.2028  0.5296
 7388TIP3    H243656   0.434   0.879   1.347  1.7087  0.2763 -1.2625
 7389TIP3   OH243657   4.579   5.716  12.251  0.2077  0.5336 -0.3638
 7389TIP3    H143658   4.502   5.715  12.194 -0.0215  0.6281 -0.0621
 7389TIP3    H243659   4.629   5.792  12.224 -0.1971  0.9154 -0.0536
 7390TIP3   OH243660   1.571   3.620  11.498  0.5146 -0.4887  0.6073
 7390TIP3    H143661   1.574   3.677  11.422 -0.5605  0.8150  1.4874
 7390TIP3    H243662   1.662   3.593  11.513  1.1256  1.3903  0.4407
 7391TIP3   OH243663   2.857   0.911  16.108  0.4835  0.0160 -0.4005
 7391TIP3    H143664   2.917   0.958  16.051 -0.2326  0.4198 -0.8289
 7391TIP3    H243665   2.836   0.831  16.060  1.1039 -0.3953 -0.0054
 7392TIP3   OH243666   1.183   3.584   5.866  0.9355 -1.0179  0.2834
 7392TIP3    H143667   1.139   3.645   5.925  0.4163 -2.1843  1.1449
 7392TIP3    H243668   1.267   3.626   5.846  0.9661 -0.4288  1.5598
 7393TIP3   OH243669   4.883   2.440   6.339 -0.3068  0.2834  0.6878
 7393TIP3    H143670   4.936   2.443   6.260 -0.0096  0.0590  0.8756
 7393TIP3    H243671   4.812   2.502   6.323  0.2672  0.9365  0.6096
 7394TIP3   OH243672   5.857   2.724  15.622  0.3247  0.1093  0.3550
 7394TIP3    H143673   5.895   2.667  15.689  0.6415  1.3006  1.2336
 7394TIP3    H243674   5.763   2.718  15.636  0.4101  0.9447  1.4600
 7395TIP3   OH243675   5.191   5.559  15.776  0.0882  0.4005 -0.3124
 7395TIP3    H143676   5.178   5.592  15.865 -0.1243  0.0078 -0.1955
 7395TIP3    H243677   5.107   5.522  15.751 -0.1544  1.4342 -1.0748
 7396TIP3   OH243678   6.077   1.329  11.656 -0.6064  0.6429  0.3103
 7396TIP3    H143679   6.002   1.282  11.621 -0.7197  1.4697 -0.5793
 7396TIP3    H243680   6.128   1.354  11.579  0.7012 -0.0900  0.9065
 7397TIP3   OH243681   0.302   1.395  15.941 -0.0999 -0.1921 -0.2795
 7397TIP3    H143682   0.305   1.490  15.927  2.2964 -0.2408 -0.5425
 7397TIP3    H243683   0.238   1.383  16.011 -0.8010  1.5436 -0.5620
 7398TIP3   OH243684   2.762   5.513   4.044  0.0200  0.4005 -0.6038
 7398TIP3    H143685   2.832   5.578   4.041  0.9117 -0.5542 -1.2628
 7398TIP3    H243686   2.790   5.452   4.112 -0.1349 -0.0190 -0.9117
 7399TIP3   OH243687   0.078   3.782  13.964  0.1399 -0.3863  0.0085
 7399TIP3    H143688   0.113   3.698  13.993  0.5741 -0.3501 -0.4101
 7399TIP3    H243689  -0.012   3.783  13.997 -0.8049 -2.1921 -2.2269
 7400TIP3   OH243690   4.203   5.192  16.235  0.0376  0.0036  0.1207
 7400TIP3    H143691   4.110   5.215  16.228 -0.7886 -2.7042  0.7085
 7400TIP3    H243692   4.245   5.269  16.272 -1.8747  1.4967 -0.6542
 7401TIP3   OH243693   0.508   6.473  16.582 -0.1031 -0.3051  0.0729
 7401TIP3    H143694   0.526   6.396  16.635  1.8324  0.7632  1.0687
 7401TIP3    H243695   0.420   6.457  16.546 -0.1060 -2.5528  0.9080
 7402TIP3   OH243696   1.276   1.298  11.509 -0.5807 -0.2596 -0.4145
 7402TIP3    H143697   1.345   1.360  11.488 -0.7074  0.2608  0.5892
 7402TIP3    H243698   1.196   1.350  11.506 -0.7362 -0.4648  0.0173
 7403TIP3   OH243699   1.242   0.914  12.152  0.0225 -0.4210  0.8554
 7403TIP3    H143700   1.281   0.867  12.226 -0.2800 -0.7282  0.8174
 7403TIP3    H243701   1.154   0.878  12.144  1.0170 -2.5829 -1.5495
 7404TIP3   OH243702   5.731   2.830   6.260 -0.0388  0.1048 -0.2863
 7404TIP3    H143703   5.760   2.790   6.342 -2.1913  0.6136  0.8024
 7404TIP3    H243704   5.699   2.917   6.285  2.3424  1.6936 -2.2299
 7405TIP3   OH243705   0.852   0.207   5.871 -0.0252 -0.1326  0.2529
 7405TIP3    H143706   0.909   0.169   5.804  1.1094  0.5848  0.7781
 7405TIP3    H243707   0.890   0.180   5.954 -2.7924 -3.1084  0.7501
 7406TIP3   OH243708   1.592   1.023  16.861 -0.4925 -0.6014 -0.0828
 7406TIP3    H143709   1.497   1.012  16.858 -0.5928 -0.0201  0.6970
 7406TIP3    H243710   1.607   1.117  16.853  0.0605 -0.7487 -0.9193
 7407TIP3   OH243711   3.137   2.081   0.839 -0.3934  0.1251  0.4929
 7407TIP3    H143712   3.041   2.090   0.834 -0.6477 -2.0561  0.7246
 7407TIP3    H243713   3.152   2.010   0.901  1.4440  1.1064  1.2336
 7408TIP3   OH243714   1.743   1.414  11.633  0.0325 -0.2408  0.0227
 7408TIP3    H143715   1.716   1.371  11.715 -1.7650 -1.9612 -1.3705
 7408TIP3    H243716   1.750   1.342  11.570  1.2389  1.0577 -1.3998
 7409TIP3   OH243717   5.105   5.470  14.168  0.0794 -0.9366  0.2295
 7409TIP3    H143718   5.074   5.522  14.242 -1.0962 -0.7842 -0.3416
 7409TIP3    H243719   5.176   5.522  14.129  1.2045 -1.3487  1.6469
 7410TIP3   OH243720   1.467   1.027   3.723  0.1219 -0.0430 -0.0384
 7410TIP3    H143721   1.491   1.107   3.677 -0.1636  1.1445  1.7724
 7410TIP3    H243722   1.459   0.961   3.655  1.4825  1.2014 -1.4580
 7411TIP3   OH243723   5.161   3.244  11.549 -0.1670 -0.0122  0.3951
 7411TIP3    H143724   5.186   3.334  11.573 -0.0778 -0.1340  0.7661
 7411TIP3    H243725   5.156   3.246  11.453 -0.3060  0.4265  0.4054
 7412TIP3   OH243726   0.361   5.240  11.989 -0.4001  0.2672 -0.2451
 7412TIP3    H143727   0.327   5.161  12.031  1.7184 -0.4935  0.1340
 7412TIP3    H243728   0.401   5.209  11.908 -0.5283  1.1291 -0.6500
 7413TIP3   OH243729   0.726   4.692  16.996  0.4900  0.2755  0.3212
 7413TIP3    H143730   0.737   4.750  17.072 -0.3236  0.6462  0.1657
 7413TIP3    H243731   0.649   4.727  16.950  1.1259  0.2241 -0.8275
 7414TIP3   OH243732   5.677   4.387   3.154 -0.1177 -0.0409 -0.5023
 7414TIP3    H143733   5.705   4.306   3.197  0.1460  0.4599  0.2984
 7414TIP3    H243734   5.727   4.390   3.073 -0.6759 -1.0449 -0.9031
 7415TIP3   OH243735   5.103   4.185  11.453  0.1040 -0.2382  0.2740
 7415TIP3    H143736   5.098   4.161  11.360 -0.3321 -0.8716  0.4577
 7415TIP3    H243737   5.197   4.187  11.471  0.3645  2.7672 -0.8957
 7416TIP3   OH243738   3.198   2.690   3.204  0.1431 -0.1796  0.5785
 7416TIP3    H143739   3.256   2.733   3.140 -1.0574  0.6835  0.0153
 7416TIP3    H243740   3.145   2.762   3.239 -0.1217 -0.8501  1.5733
 7417TIP3   OH243741   1.387   6.018  14.420  0.0466  0.1283 -0.2864
 7417TIP3    H143742   1.319   6.085  14.423  0.0540  0.2312 -1.6800
 7417TIP3    H243743   1.398   5.990  14.511 -1.6025  0.3674  0.0175
 7418TIP3   OH243744   2.234   0.972   3.280 -0.2975 -1.2097  0.0169
 7418TIP3    H143745   2.280   1.020   3.349 -1.6411 -1.5652  1.2022
 7418TIP3    H243746   2.142   0.979   3.304 -0.5613 -4.5247  0.3596
 7419TIP3   OH243747   5.368   3.677  12.550  0.1769  0.7484 -0.1836
 7419TIP3    H143748   5.395   3.637  12.468 -1.3575  0.3376 -0.5253
 7419TIP3    H243749   5.293   3.732  12.527  0.7235  1.9136  0.6926
 7420TIP3   OH243750   1.276   2.816  13.389 -0.2838 -0.0314 -0.0284
 7420TIP3    H143751   1.298   2.909  13.392  3.6405 -0.7881  2.2235
 7420TIP3    H243752   1.318   2.783  13.310 -0.3852 -0.1351 -0.0402
 7421TIP3   OH243753   2.244   1.422  12.655  0.5418 -0.3380  0.3513
 7421TIP3    H143754   2.285   1.370  12.724 -0.6206  0.8533  2.0000
 7421TIP3    H243755   2.210   1.357  12.593  0.1304 -1.5128  1.7664
 7422TIP3   OH243756   5.062   2.734   1.494 -0.1870 -0.6608 -0.1612
 7422TIP3    H143757   4.982   2.729   1.546  0.4748 -2.4281  0.7719
 7422TIP3    H243758   5.055   2.817   1.447 -1.3229  0.4924  1.9111
 7423TIP3   OH243759   0.185   2.297  12.150 -0.3022 -0.4380  0.1213
 7423TIP3    H143760   0.119   2.322  12.215 -0.3524 -0.4044  0.0579
 7423TIP3    H243761   0.237   2.377  12.137 -0.5150 -0.3431 -0.1432
 7424TIP3   OH243762   3.648   1.464   5.412  0.2293 -0.3407  1.0203
 7424TIP3    H143763   3.654   1.560   5.412  0.3655 -0.3482  1.0551
 7424TIP3    H243764   3.580   1.445   5.478  1.1445 -0.3126  2.0009
 7425TIP3   OH243765   3.552   0.445   5.482 -0.2926 -0.4882 -0.7092
 7425TIP3    H143766   3.539   0.354   5.507  0.8274 -1.3059 -2.8215
 7425TIP3    H243767   3.647   0.456   5.478 -0.4021  0.8713 -0.2090
 7426TIP3   OH243768   1.052   3.309   1.049 -0.5855  0.3013  0.5880
 7426TIP3    H143769   0.972   3.280   1.004 -0.3318 -0.1506  0.4192
 7426TIP3    H243770   1.123   3.264   1.003 -0.0588  2.0322 -0.4076
 7427TIP3   OH243771   3.880   3.403  13.958  0.0735 -0.4186  0.5854
 7427TIP3    H143772   3.889   3.477  13.897  0.0677  0.4497  1.6056
 7427TIP3    H243773   3.944   3.339  13.928  1.5189  0.8338  0.8489
 7428TIP3   OH243774   3.381   5.649   6.266 -0.2362  0.2107 -0.2530
 7428TIP3    H143775   3.460   5.596   6.263  0.6926  1.5225 -0.1023
 7428TIP3    H243776   3.354   5.647   6.358  0.3925  0.8069 -0.0436
 7429TIP3   OH243777   3.899   4.235   3.172  0.3678  0.2517 -0.3186
 7429TIP3    H143778   3.976   4.282   3.204  1.1502 -0.8202 -0.5593
 7429TIP3    H243779   3.842   4.228   3.248  1.3993 -0.6826  0.4045
 7430TIP3   OH243780   1.976   0.831   5.115 -0.2124  0.0975 -0.0006
 7430TIP3    H143781   1.949   0.875   5.196  0.7974  0.0854  0.3577
 7430TIP3    H243782   1.912   0.761   5.103  1.4303 -2.0176  2.5965
 7431TIP3   OH243783   5.042   2.297  16.927 -0.5736 -0.1527 -0.0714
 7431TIP3    H143784   5.018   2.204  16.935  0.6103 -0.7134 -2.3270
 7431TIP3    H243785   5.089   2.316  17.008 -1.2377 -1.3624  0.6389
 7432TIP3   OH243786   6.824   3.044   1.426  0.0794  0.3992  0.1606
 7432TIP3    H143787   6.772   3.116   1.464  0.7986  1.4113 -0.7228
 7432TIP3    H243788   6.782   3.026   1.342 -1.2365 -1.5417  1.1430
 7433TIP3   OH243789   2.789   6.653  14.653  0.2705  0.3898  0.0318
 7433TIP3    H143790   2.831   6.675  14.736  0.5915 -0.0945  0.0008
 7433TIP3    H243791   2.859   6.614  14.600  0.4133  1.9454 -0.9799
 7434TIP3   OH243792   4.732   4.397   0.751 -0.0663 -0.0445 -0.0970
 7434TIP3    H143793   4.810   4.425   0.800  0.5184 -1.0031 -0.4495
 7434TIP3    H243794   4.733   4.301   0.759 -1.3399 -0.0569  0.0814
 7435TIP3   OH243795   3.454   0.831   5.960 -0.7224 -0.0255 -0.5355
 7435TIP3    H143796   3.476   0.745   5.997  1.3798  1.0058  0.7944
 7435TIP3    H243797   3.530   0.853   5.906 -1.8149  0.4636 -1.9154
 7436TIP3   OH243798   3.480   6.220  13.405 -0.4719 -0.3242 -0.3515
 7436TIP3    H143799   3.446   6.130  13.405 -0.9497 -0.1467 -0.5699
 7436TIP3    H243800   3.402   6.275  13.397 -0.2806  0.1542  0.8870
 7437TIP3   OH243801   6.176   2.849   5.038  0.5622  0.5117 -0.1320
 7437TIP3    H143802   6.198   2.814   5.125  1.5306 -1.0049 -0.9492
 7437TIP3    H243803   6.201   2.942   5.043  0.2229  0.5567  1.3237
 7438TIP3   OH243804   3.980   0.784  14.359 -0.6523 -0.3694 -0.0604
 7438TIP3    H143805   3.990   0.749  14.447 -0.6442  0.2494  0.1907
 7438TIP3    H243806   3.891   0.819  14.357 -0.5710 -0.1676 -0.2156
 7439TIP3   OH243807   0.248   1.535   3.770 -0.1279  0.1188  0.9909
 7439TIP3    H143808   0.310   1.476   3.814  0.4257 -1.2217 -1.4286
 7439TIP3    H243809   0.182   1.553   3.837  1.5802 -0.3170  2.9336
 7440TIP3   OH243810   1.660   2.022  13.624  0.3124  0.2675  0.4150
 7440TIP3    H143811   1.653   1.930  13.651  0.3170  0.2191  0.2555
 7440TIP3    H243812   1.577   2.041  13.580  0.6030  0.1126 -0.2210
 7441TIP3   OH243813   5.294   6.081  14.441  0.1323  0.1963 -0.1795
 7441TIP3    H143814   5.335   5.995  14.448  0.4013  0.4232  1.7685
 7441TIP3    H243815   5.307   6.107  14.350 -0.0678 -1.8479 -0.8459
 7442TIP3   OH243816   3.708   0.962   5.908 -0.0105 -0.0875 -0.1787
 7442TIP3    H143817   3.732   1.021   5.836  0.9897 -2.4127 -1.8651
 7442TIP3    H243818   3.709   1.019   5.986 -0.0835  2.2995 -1.7994
 7443TIP3   OH243819   0.277   1.124  13.499 -0.3191  0.5506  0.6196
 7443TIP3    H143820   0.281   1.162  13.587 -2.1426 -0.0522  0.9994
 7443TIP3    H243821   0.290   1.030  13.513  0.4962  0.5753  0.0984
 7444TIP3   OH243822   0.085   5.183  11.817  0.1302 -0.6071 -0.5079
 7444TIP3    H143823   0.142   5.207  11.744  0.0937 -0.2509 -0.4196
 7444TIP3    H243824   0.074   5.264  11.867  1.4478 -1.1840  0.7934
 7445TIP3   OH243825   2.868   2.228   4.392  0.6983  0.0653  0.1418
 7445TIP3    H143826   2.786   2.200   4.431  0.9605 -0.4375  0.3343
 7445TIP3    H243827   2.893   2.307   4.441  1.1243 -0.6677  1.1302
 7446TIP3   OH243828   3.942   4.298  16.585  0.3360  0.2800  0.4783
 7446TIP3    H143829   3.998   4.228  16.552 -0.6765 -0.7101  0.8272
 7446TIP3    H243830   3.938   4.361  16.513 -0.8334 -1.2453 -0.8615
 7447TIP3   OH243831   5.950   3.914  16.677  0.3055 -0.2545 -0.3550
 7447TIP3    H143832   5.924   4.005  16.660  0.0750 -0.4192 -0.9387
 7447TIP3    H243833   5.974   3.912  16.769  1.4510  0.6633 -0.6113
 7448TIP3   OH243834   3.299   3.021   3.824  0.3674  0.3772  0.2993
 7448TIP3    H143835   3.236   3.086   3.792  2.5349  2.3671 -0.1694
 7448TIP3    H243836   3.301   3.034   3.919  2.0164  2.2544  0.0538
 7449TIP3   OH243837   0.158   5.501   2.954 -0.3547  0.6898 -0.5188
 7449TIP3    H143838   0.154   5.563   2.881 -0.6618  1.2152 -0.0617
 7449TIP3    H243839   0.180   5.555   3.030 -1.1771  0.3329 -0.0139
 7450TIP3   OH243840   3.214   6.510  16.875  0.9278 -0.4446 -0.6448
 7450TIP3    H143841   3.258   6.530  16.792  0.0491 -0.9973 -1.2612
 7450TIP3    H243842   3.173   6.425  16.861 -0.8240  0.3011 -0.3207
 7451TIP3   OH243843   1.389   5.446   1.567 -0.5807 -0.5210  0.4944
 7451TIP3    H143844   1.372   5.505   1.494  0.1434 -0.5590  0.2860
 7451TIP3    H243845   1.396   5.359   1.527  2.7364 -0.2151  0.1205
 7452TIP3   OH243846   4.935   5.419   4.721 -0.0391  0.0712 -0.5416
 7452TIP3    H143847   4.989   5.435   4.644 -0.5712 -0.9033 -1.1397
 7452TIP3    H243848   4.992   5.440   4.795  1.2044 -1.0082 -1.1604
 7453TIP3   OH243849   1.034   3.109   3.653 -0.0087 -0.4674 -0.3949
 7453TIP3    H143850   1.004   3.171   3.720 -0.3276 -1.9266  0.8853
 7453TIP3    H243851   1.100   3.158   3.603  1.3406  0.2821  1.9107
 7454TIP3   OH243852   3.784   4.859   3.220  0.3911 -0.3224 -0.4061
 7454TIP3    H143853   3.797   4.888   3.310  0.1567  0.4982 -0.6299
 7454TIP3    H243854   3.691   4.833   3.217  0.2738  0.1074 -0.5348
 7455TIP3   OH243855   0.816   0.237  11.253 -0.3013  0.3167  0.6800
 7455TIP3    H143856   0.772   0.213  11.171  1.0054 -2.4463  0.6756
 7455TIP3    H243857   0.756   0.298  11.295 -0.9002  2.1246 -2.4339
 7456TIP3   OH243858   3.891   1.805  17.252  0.2031 -0.4132 -0.2015
 7456TIP3    H143859   3.907   1.899  17.246 -0.6932 -0.2560 -0.2559
 7456TIP3    H243860   3.935   1.768  17.175 -0.8455  0.1644 -1.1146
 7457TIP3   OH243861   1.077   0.560   2.880  0.1241 -0.8314 -0.3200
 7457TIP3    H143862   1.069   0.652   2.904  1.7407 -0.9275  0.7354
 7457TIP3    H243863   1.138   0.559   2.807 -0.0799 -1.0622 -0.4917
 7458TIP3   OH243864   6.475   5.053   1.895  0.0456 -0.1401 -0.2910
 7458TIP3    H143865   6.522   5.012   1.967 -0.1557 -1.4737 -0.8942
 7458TIP3    H243866   6.477   4.988   1.825 -2.2044 -0.0078 -0.5307
 7459TIP3   OH243867   1.538   0.289  15.371 -0.1303 -0.1928 -0.8237
 7459TIP3    H143868   1.452   0.315  15.404 -0.4246  0.1110 -1.7932
 7459TIP3    H243869   1.523   0.205  15.329  0.3487 -0.8325  0.2585
 7460TIP3   OH243870   2.557   5.196   5.905  0.3199  0.3923  0.4690
 7460TIP3    H143871   2.622   5.234   5.846 -0.8075 -0.4092 -1.3811
 7460TIP3    H243872   2.601   5.120   5.944  0.7811  0.3861 -0.0669
 7461TIP3   OH243873   5.400   3.169  12.097 -0.4125  0.0840 -0.2839
 7461TIP3    H143874   5.416   3.088  12.145 -2.7919  0.6202  1.5825
 7461TIP3    H243875   5.420   3.238  12.160 -0.2757  0.9295 -1.2294
 7462TIP3   OH243876   3.351   0.966  12.581  0.1173  0.1469 -0.8367
 7462TIP3    H143877   3.283   1.031  12.602 -0.7123 -0.6379 -1.0318
 7462TIP3    H243878   3.378   0.931  12.666  0.1287  0.3101 -0.7721
 7463TIP3   OH243879   2.252   3.701   4.990  0.8474  0.2211  0.3106
 7463TIP3    H143880   2.252   3.750   4.908 -0.8200  3.4714  1.9995
 7463TIP3    H243881   2.165   3.661   4.994  0.8541  0.2312  0.5691
 7464TIP3   OH243882   4.702   2.765   4.346 -0.8255 -0.0297 -0.0843
 7464TIP3    H143883   4.764   2.823   4.303 -1.1345  0.3684  0.0027
 7464TIP3    H243884   4.660   2.820   4.413 -0.4840 -0.5878  0.6000
 7465TIP3   OH243885   1.261   5.614   0.290 -0.2187 -0.1439  1.0163
 7465TIP3    H143886   1.279   5.523   0.315  2.3033 -0.7345 -2.2515
 7465TIP3    H243887   1.165   5.618   0.282 -0.4257 -2.3873  1.6073
 7466TIP3   OH243888   4.892   2.390   1.080  0.5641 -0.6445 -0.2390
 7466TIP3    H143889   4.930   2.394   1.168  0.5399 -1.9998 -0.1345
 7466TIP3    H243890   4.874   2.481   1.057  1.7013 -0.1672  0.6599
 7467TIP3   OH243891   2.057   0.630   5.819  1.0886 -0.3830 -0.3256
 7467TIP3    H143892   2.042   0.696   5.887  0.4756 -1.3974  0.5385
 7467TIP3    H243893   2.005   0.660   5.745 -1.3878 -1.2545  0.9634
 7468TIP3   OH243894   0.645   1.921  12.160 -0.3131 -0.2258  0.0210
 7468TIP3    H143895   0.566   1.884  12.199 -0.4363 -0.7978 -0.7550
 7468TIP3    H243896   0.660   2.001  12.209 -1.9709  0.4462 -0.4877
 7469TIP3   OH243897   0.544   0.606   0.993  0.1324  0.6063  0.2498
 7469TIP3    H143898   0.519   0.519   1.024  0.0170  0.4370 -0.3086
 7469TIP3    H243899   0.511   0.610   0.903 -0.0647  1.3121  0.3492
 7470TIP3   OH243900   5.482   5.803   5.781  0.2269 -0.5513 -0.2382
 7470TIP3    H143901   5.528   5.878   5.819  0.3005 -0.5354 -0.3549
 7470TIP3    H243902   5.419   5.841   5.720  1.6473 -0.6249 -1.8310
 7471TIP3   OH243903   2.371   1.597  17.203 -0.0532 -0.3331 -0.0296
 7471TIP3    H143904   2.381   1.648  17.283 -1.2880 -0.7903  0.4315
 7471TIP3    H243905   2.431   1.523  17.214  1.9788  1.1087 -0.8383
 7472TIP3   OH243906   1.908   6.472  13.082  0.1151  0.1683 -0.6430
 7472TIP3    H143907   1.950   6.407  13.138 -0.4161  0.6793  0.3565
 7472TIP3    H243908   1.863   6.531  13.142  0.0596  1.0953 -1.5676
 7473TIP3   OH243909   6.157   4.927   4.551  0.3287  0.4604  0.1459
 7473TIP3    H143910   6.191   5.007   4.589  0.8922  0.7144 -0.8568
 7473TIP3    H243911   6.124   4.952   4.465  0.2255 -0.3241 -0.0589
 7474TIP3   OH243912   5.172   4.218  13.694  0.0483  0.2076  0.1481
 7474TIP3    H143913   5.221   4.210  13.612  0.1759 -1.5182  0.3436
 7474TIP3    H243914   5.139   4.308  13.694 -0.5508  0.0575 -2.1306
 7475TIP3   OH243915   0.505   1.367  14.454 -0.1119  0.0442  0.0403
 7475TIP3    H143916   0.414   1.376  14.424 -0.3501 -0.9641  0.4188
 7475TIP3    H243917   0.505   1.404  14.542 -0.2824 -0.4621  0.2525
 7476TIP3   OH243918   4.272   3.126  15.233 -0.3942 -0.2177  1.2285
 7476TIP3    H143919   4.193   3.154  15.187 -1.1882 -2.5590  1.0720
 7476TIP3    H243920   4.333   3.104  15.162  0.1346  0.7620  1.3541
 7477TIP3   OH243921   4.027   6.003  13.530 -0.5618 -0.3592  0.2713
 7477TIP3    H143922   4.086   6.067  13.489  0.2438 -1.6063 -0.5831
 7477TIP3    H243923   3.940   6.042  13.521  0.1136  1.6167  1.7531
 7478TIP3   OH243924   3.872   2.492  12.325  0.5014 -0.6334 -0.1964
 7478TIP3    H143925   3.821   2.513  12.247  0.4318 -1.7834 -0.4842
 7478TIP3    H243926   3.928   2.568  12.339 -1.4495  0.7676  0.2891
 7479TIP3   OH243927   2.305   2.060   0.589 -0.2538 -0.1444 -0.3441
 7479TIP3    H143928   2.294   2.136   0.531  4.1870  0.4501 -0.7982
 7479TIP3    H243929   2.303   2.097   0.677 -1.2310 -0.0548 -0.3987
 7480TIP3   OH243930   4.989   1.159  15.383  0.1152 -0.0447  0.3390
 7480TIP3    H143931   4.988   1.139  15.477 -1.5594  0.1335  0.3828
 7480TIP3    H243932   4.900   1.142  15.354 -0.1732  2.7077 -0.6184
 7481TIP3   OH243933   4.529   4.869  14.593 -0.3164  0.2019 -0.0843
 7481TIP3    H143934   4.455   4.928  14.577 -1.6305 -1.0241  1.2563
 7481TIP3    H243935   4.539   4.821  14.511 -2.6016 -1.2800  0.4129
 7482TIP3   OH243936   5.074   5.900   3.010  0.0535  0.3854 -0.5758
 7482TIP3    H143937   5.154   5.858   2.980  0.3017  0.4766 -0.0576
 7482TIP3    H243938   5.072   5.984   2.965  2.2805  2.1195  2.2579
 7483TIP3   OH243939   4.083   5.560  11.999  0.2473  0.3310  0.1597
 7483TIP3    H143940   3.993   5.585  11.979  0.2917  0.3467 -0.0235
 7483TIP3    H243941   4.075   5.483  12.055  0.1189 -1.2610 -1.8900
 7484TIP3   OH243942   0.555   6.731   5.673 -0.0120  0.3417  0.5922
 7484TIP3    H143943   0.547   6.636   5.659  0.6173  0.1356  1.5197
 7484TIP3    H243944   0.535   6.743   5.766  0.0572  1.1085  0.5126
 7485TIP3   OH243945   6.365   2.029  16.991  0.1203  0.3087  0.0962
 7485TIP3    H143946   6.394   1.988  16.910  2.0549 -1.1057  1.4007
 7485TIP3    H243947   6.385   2.122  16.980 -1.5645  0.5389 -1.7598
 7486TIP3   OH243948   5.172   1.651   3.577 -0.1299  0.1000 -0.1858
 7486TIP3    H143949   5.212   1.564   3.590 -1.7811 -0.9228 -1.4866
 7486TIP3    H243950   5.172   1.663   3.482 -0.2128  1.4136 -0.0356
 7487TIP3   OH243951   3.471   3.758  14.747 -0.0735  0.2515  0.3154
 7487TIP3    H143952   3.540   3.821  14.771 -0.3310  1.8665 -2.7086
 7487TIP3    H243953   3.389   3.807  14.757 -0.3709  0.0413 -0.9535
 7488TIP3   OH243954   5.986   3.912  14.121  0.0216  0.1486 -0.1627
 7488TIP3    H143955   5.957   3.837  14.172 -1.9360  1.6228  1.0194
 7488TIP3    H243956   5.983   3.881  14.030 -1.0122 -1.1334  0.2737
 7489TIP3   OH243957   5.882   3.534  11.241 -0.4496  0.6307 -0.0878
 7489TIP3    H143958   5.828   3.512  11.166 -0.9837  0.3481  0.3725
 7489TIP3    H243959   5.832   3.504  11.317  0.3276  0.3982  0.3504
 7490TIP3   OH243960   4.009   3.986   1.798  0.0128  0.1372  0.5352
 7490TIP3    H143961   3.979   3.903   1.835  0.9509 -1.4674 -2.0154
 7490TIP3    H243962   4.103   3.987   1.817 -0.0342  0.7110  0.7333
 7491TIP3   OH243963   4.904   1.290   6.172  0.6118 -0.3769 -0.1039
 7491TIP3    H143964   4.946   1.369   6.136 -0.1940 -0.1050 -0.4730
 7491TIP3    H243965   4.843   1.263   6.104 -0.6911 -0.0647  0.9044
 7492TIP3   OH243966   4.370   2.279   0.090  0.1320  0.3185  0.2252
 7492TIP3    H143967   4.282   2.316   0.092 -1.0787 -2.3628  1.2166
 7492TIP3    H243968   4.408   2.301   0.175 -0.4256 -0.3335  0.6513
 7493TIP3   OH243969   3.014   2.944   0.516  0.0802  0.0199 -0.7548
 7493TIP3    H143970   3.015   2.988   0.430 -0.4710  0.1563 -0.6972
 7493TIP3    H243971   3.085   2.985   0.564 -1.0433  1.6093 -0.3502
 7494TIP3   OH243972   0.895   2.226   3.127 -0.1033 -0.5423  0.1369
 7494TIP3    H143973   0.941   2.175   3.061 -0.0309 -0.0425 -0.2016
 7494TIP3    H243974   0.849   2.294   3.078  0.6534  0.3704  0.6594
 7495TIP3   OH243975   6.550   5.041  14.428  0.3317 -0.4669  0.2226
 7495TIP3    H143976   6.622   5.012  14.484  1.4286  1.0170 -0.3414
 7495TIP3    H243977   6.482   5.069  14.489  0.8210 -0.4965  0.7921
 7496TIP3   OH243978   1.432   5.452   4.599 -0.3674  0.4801  0.5311
 7496TIP3    H143979   1.381   5.528   4.572 -0.5963  0.1877  0.1356
 7496TIP3    H243980   1.467   5.416   4.518  0.1935  0.4780  0.7666
 7497TIP3   OH243981   5.844   1.857  16.341 -0.9495  0.1886  0.0719
 7497TIP3    H143982   5.911   1.789  16.338 -0.3561  0.6889  1.2793
 7497TIP3    H243983   5.778   1.823  16.402  0.8473  1.8965  3.2524
 7498TIP3   OH243984   1.478   1.893   1.912 -0.4379  0.7080  0.9772
 7498TIP3    H143985   1.480   1.959   1.843  2.5101  0.2986  0.5662
 7498TIP3    H243986   1.461   1.811   1.867 -0.2737  0.6679  0.9899
 7499TIP3   OH243987   5.761   2.389   6.726  0.2200  0.1157  0.6148
 7499TIP3    H143988   5.786   2.326   6.658  0.1712 -1.1394  1.7075
 7499TIP3    H243989   5.699   2.447   6.683  0.7707 -0.1644 -0.6173
 7500TIP3   OH243990   3.834   6.523   0.994 -0.0656  0.1800  0.1235
 7500TIP3    H143991   3.911   6.477   0.960 -0.1278  0.0393  0.1713
 7500TIP3    H243992   3.784   6.548   0.916  0.0586  0.3244  0.0899
 7501TIP3   OH243993   2.424   0.336   1.198 -0.1523  0.0502  0.4201
 7501TIP3    H143994   2.423   0.420   1.152 -1.2660 -0.4871 -0.5938
 7501TIP3    H243995   2.333   0.306   1.197 -0.2946  0.0759  3.1923
 7502TIP3   OH243996   1.359   1.181   5.528  0.1067  0.1491 -0.5983
 7502TIP3    H143997   1.411   1.101   5.539  1.4463  0.9577 -0.7234
 7502TIP3    H243998   1.287   1.155   5.471  1.5427 -0.5873 -2.1901
 7503TIP3   OH243999   6.026   4.665   2.209 -0.1806 -0.0099 -0.4150
 7503TIP3    H144000   5.957   4.620   2.160 -0.6421 -2.0926  1.9621
 7503TIP3    H244001   6.106   4.616   2.189 -0.4521 -1.1750  1.1410
 7504TIP3   OH244002   4.218   6.236   5.057 -0.8891 -0.5877  0.1672
 7504TIP3    H144003   4.275   6.180   5.110 -0.2268  0.4961  0.6168
 7504TIP3    H244004   4.245   6.325   5.078 -1.2444 -0.1092 -1.2966
 7505TIP3   OH244005   3.891   5.834  12.186  0.2190 -0.0848 -0.5090
 7505TIP3    H144006   3.826   5.792  12.242  0.2710 -0.4114 -0.6914
 7505TIP3    H244007   3.904   5.773  12.113  2.0451 -0.8809  0.4203
 7506TIP3   OH244008   2.475   2.675  14.839 -1.0894  0.5605  0.3562
 7506TIP3    H144009   2.381   2.662  14.851 -1.1957 -0.5044 -1.2484
 7506TIP3    H244010   2.489   2.662  14.745  0.8531 -0.7614  0.7596
 7507TIP3   OH244011   5.066   3.478  12.243  0.0136  0.2498 -0.1013
 7507TIP3    H144012   5.158   3.487  12.219 -0.1275  2.1603 -0.0719
 7507TIP3    H244013   5.063   3.503  12.335 -0.5110 -0.1000 -0.0167
 7508TIP3   OH244014   0.869   2.312  16.121 -0.9151 -0.3298  0.3078
 7508TIP3    H144015   0.868   2.353  16.207 -1.8611  0.7242 -0.1819
 7508TIP3    H244016   0.960   2.287  16.106 -0.4876  0.7791  1.0083
 7509TIP3   OH244017   3.152   2.645   3.527  0.2878  0.5948 -0.4752
 7509TIP3    H144018   3.064   2.614   3.506  0.2354  0.8954 -0.7114
 7509TIP3    H244019   3.139   2.718   3.587  0.4425 -0.2846  0.6587
 7510TIP3   OH244020   3.066   4.261   5.744  0.0057  0.1220 -0.1867
 7510TIP3    H144021   3.116   4.247   5.824 -0.3154  0.4044  0.0645
 7510TIP3    H244022   3.060   4.356   5.735 -1.0800  0.1023  0.1675
 7511TIP3   OH244023   4.917   6.689  12.346  0.0747  0.2147 -0.0203
 7511TIP3    H144024   4.869   6.697  12.429  0.0950  0.3893 -0.0234
 7511TIP3    H244025   5.009   6.700  12.371 -0.0484  2.5662 -0.3385
 7512TIP3   OH244026   2.467   4.349  13.050 -0.3088 -1.0789  0.3391
 7512TIP3    H144027   2.405   4.417  13.022  0.7374 -0.0649  0.4230
 7512TIP3    H244028   2.506   4.383  13.130  1.5759 -0.9161 -0.6023
 7513TIP3   OH244029   6.752   5.592   0.401 -0.3274  0.0866 -0.5750
 7513TIP3    H144030   6.782   5.671   0.356 -1.7428 -0.5215 -2.7233
 7513TIP3    H244031   6.709   5.625   0.480 -0.2894  1.4127 -1.0722
 7514TIP3   OH244032   2.388   1.182  16.986  0.2183  0.7574 -0.2400
 7514TIP3    H144033   2.313   1.177  16.926  0.1625  0.1124 -0.1204
 7514TIP3    H244034   2.445   1.248  16.946 -0.2559  1.0232 -0.5020
 7515TIP3   OH244035   5.338   0.970   0.245 -0.1147 -0.3023 -0.2047
 7515TIP3    H144036   5.266   0.974   0.308 -1.0202  0.0888 -1.2405
 7515TIP3    H244037   5.410   1.015   0.289 -0.6985 -0.1271  0.5926
 7516TIP3   OH244038   4.947   6.673  13.515 -0.1208 -0.7102  0.2734
 7516TIP3    H144039   4.934   6.578  13.514 -1.0142 -0.6230 -1.7401
 7516TIP3    H244040   4.886   6.705  13.581 -1.6014 -1.3578 -0.7416
 7517TIP3   OH244041   4.410   4.306  16.547  0.8148 -0.4721 -0.3239
 7517TIP3    H144042   4.392   4.307  16.453  0.4559 -2.6559 -0.3483
 7517TIP3    H244043   4.383   4.392  16.578 -1.5628 -0.5852 -1.8077
 7518TIP3   OH244044   6.344   1.031  14.987  0.0180  0.0714 -0.1746
 7518TIP3    H144045   6.418   0.974  15.007  0.4148  0.3349 -0.8613
 7518TIP3    H244046   6.359   1.110  15.038  0.1716  0.0980 -0.2615
 7519TIP3   OH244047   4.939   2.287   3.105  0.0716 -0.4047  0.1114
 7519TIP3    H144048   4.979   2.222   3.047 -0.1147 -0.5741  0.1713
 7519TIP3    H244049   5.007   2.306   3.170  2.3832  3.6255 -2.9602
 7520TIP3   OH244050   4.042   3.045  10.980  0.1628 -0.5464  0.1642
 7520TIP3    H144051   4.108   3.048  10.911 -0.8119 -1.6024 -0.8488
 7520TIP3    H244052   3.960   3.025  10.934 -0.5133 -1.2639  1.6201
 7521TIP3   OH244053   4.788   4.459  15.278 -0.3348  0.5247  0.2871
 7521TIP3    H144054   4.882   4.441  15.278 -0.7145 -1.7830  0.2329
 7521TIP3    H244055   4.752   4.397  15.342 -1.8913  0.9044 -0.1777
 7522TIP3   OH244056   4.801   3.898  13.891  0.7469 -0.5122 -0.0088
 7522TIP3    H144057   4.863   3.853  13.949  2.4028  0.0837 -1.2465
 7522TIP3    H244058   4.743   3.945  13.951  1.0252 -1.6482  1.2162
 7523TIP3   OH244059   3.014   0.645   2.000  0.2441  0.0786  0.1929
 7523TIP3    H144060   3.015   0.549   1.996 -1.4693  0.0699 -2.4000
 7523TIP3    H244061   3.094   0.671   1.954  0.0930 -0.1124 -0.1811
 7524TIP3   OH244062   1.361   2.208   2.963 -0.0534  0.3780  0.1479
 7524TIP3    H144063   1.376   2.128   3.012 -0.8007  0.3412  0.3389
 7524TIP3    H244064   1.409   2.276   3.011 -0.8711  0.3642  1.0093
 7525TIP3   OH244065   3.188   4.616  15.595 -0.0610 -0.0556 -0.6614
 7525TIP3    H144066   3.123   4.669  15.548 -1.3579 -1.3206 -0.3469
 7525TIP3    H244067   3.178   4.528  15.558  2.4060 -0.0464 -1.5370
 7526TIP3   OH244068   2.479   5.986  13.069 -0.6010 -0.1501  0.2023
 7526TIP3    H144069   2.428   5.916  13.029 -0.9568 -0.7736  1.6699
 7526TIP3    H244070   2.552   5.941  13.113  0.5634  0.6272 -0.8546
 7527TIP3   OH244071   5.225   4.425   0.277 -0.4193  0.5149 -0.1550
 7527TIP3    H144072   5.171   4.375   0.338 -0.3773 -1.1652 -1.4310
 7527TIP3    H244073   5.209   4.385   0.192  0.1581  2.2641 -1.1480
 7528TIP3   OH244074   1.605   3.083   0.269  0.4182 -0.1093  0.2559
 7528TIP3    H144075   1.547   3.134   0.325 -0.2594 -0.0663 -0.4858
 7528TIP3    H244076   1.683   3.138   0.259 -0.9052  1.5315 -1.8231
 7529TIP3   OH244077   4.576   6.458  11.839 -0.1406 -0.6067 -0.6110
 7529TIP3    H144078   4.485   6.436  11.819 -0.9680 -0.0038  2.0455
 7529TIP3    H244079   4.619   6.373  11.847 -1.0548 -1.0070  0.3501
 7530TIP3   OH244080   4.246   3.408   3.698 -0.1852 -0.7555 -0.0577
 7530TIP3    H144081   4.188   3.336   3.675  0.6639 -1.0582 -1.3018
 7530TIP3    H244082   4.318   3.403   3.636  1.5119 -0.7518  1.7977
 7531TIP3   OH244083   4.101   3.106   2.572  0.1186 -0.2321 -0.2983
 7531TIP3    H144084   4.013   3.067   2.577 -0.0395  0.2539  1.2964
 7531TIP3    H244085   4.159   3.039   2.607  0.1908 -0.0147  0.0008
 7532TIP3   OH244086   5.099   5.092   0.877  0.3930 -0.4070 -0.0404
 7532TIP3    H144087   5.142   5.172   0.906 -2.6410  0.3918  2.9104
 7532TIP3    H244088   5.141   5.022   0.928 -0.5969  0.1461  1.6110
 7533TIP3   OH244089   2.570   0.771   4.811 -0.5652  0.0440 -0.5909
 7533TIP3    H144090   2.622   0.692   4.824  1.2363  1.1755 -0.4908
 7533TIP3    H244091   2.578   0.819   4.894 -0.2549  1.0834 -1.2086
 7534TIP3   OH244092   6.019   3.930   4.115  0.1421 -0.9986 -0.1401
 7534TIP3    H144093   5.932   3.954   4.083 -0.7247  0.8163  3.1405
 7534TIP3    H244094   6.076   4.002   4.087 -0.0086 -0.8523 -0.0750
 7535TIP3   OH244095   6.243   6.823   2.151  0.4570  0.1364  0.7377
 7535TIP3    H144096   6.149   6.828   2.136  0.4058 -2.5695 -0.6024
 7535TIP3    H244097   6.253   6.754   2.216  1.5172 -0.5462 -0.0968
 7536TIP3   OH244098   3.057   5.141   4.105  0.4138  0.2967 -0.1347
 7536TIP3    H144099   3.025   5.205   4.168  1.2947 -0.5527  1.2378
 7536TIP3    H244100   3.137   5.179   4.069  1.8121 -0.6207  1.8379
 7537TIP3   OH244101   5.718   4.227   0.335 -0.5396 -0.1612 -0.2190
 7537TIP3    H144102   5.787   4.276   0.292 -0.1922 -1.1565 -0.8402
 7537TIP3    H244103   5.689   4.283   0.407  0.0759  0.7811 -0.6869
 7538TIP3   OH244104   6.709   0.529  14.087  0.3790  0.0104 -0.6032
 7538TIP3    H144105   6.678   0.454  14.138  0.3089 -0.5030 -1.3809
 7538TIP3    H244106   6.774   0.571  14.144  1.9154 -1.8031 -0.8936
 7539TIP3   OH244107   5.983   0.062   3.899 -0.1100  0.4188  0.0285
 7539TIP3    H144108   6.074   0.077   3.923  0.3360  1.2793 -1.9829
 7539TIP3    H244109   5.967   0.122   3.826 -1.3309 -1.9185 -1.7703
 7540TIP3   OH244110   1.864   1.369   1.749 -0.6309 -0.0194  0.1584
 7540TIP3    H144111   1.921   1.378   1.826  1.0285  1.9886 -1.2034
 7540TIP3    H244112   1.792   1.429   1.766 -0.3062  0.3686  0.1891
 7541TIP3   OH244113   3.752   6.779   3.803 -0.3345 -0.9754  0.8302
 7541TIP3    H144114   3.715   6.830   3.731  2.1717  0.2957  0.3144
 7541TIP3    H244115   3.706   6.810   3.881 -1.8413 -1.0742  0.0156
 7542TIP3   OH244116   3.967   4.374   2.138  0.8207 -0.1220  0.1938
 7542TIP3    H144117   3.930   4.316   2.072  0.8641 -1.0812  0.9944
 7542TIP3    H244118   3.994   4.316   2.209  0.8018  0.8763  1.0451
 7543TIP3   OH244119   1.622   0.831   6.035  0.3014 -0.0490 -0.5040
 7543TIP3    H144120   1.652   0.921   6.048  1.0420 -0.4768  0.9813
 7543TIP3    H244121   1.527   0.836   6.042  0.3021  0.6868 -0.9402
 7544TIP3   OH244122   1.215   6.374  15.111  0.4637  0.1798 -0.0991
 7544TIP3    H144123   1.218   6.455  15.061 -0.3210  0.1632 -0.1888
 7544TIP3    H244124   1.173   6.311  15.053 -0.3069  0.1193  0.5118
 7545TIP3   OH244125   3.158   6.563   2.596 -0.3578  0.0441 -0.1295
 7545TIP3    H144126   3.070   6.600   2.586 -0.3442  0.1649  0.1838
 7545TIP3    H244127   3.177   6.571   2.690 -0.5933 -1.3018  0.0510
 7546TIP3   OH244128   0.328   4.239   0.573  0.4188  0.3525 -0.1570
 7546TIP3    H144129   0.376   4.253   0.491 -0.1008  0.3613 -0.4610
 7546TIP3    H244130   0.347   4.148   0.596  0.2931  0.2464 -0.4658
 7547TIP3   OH244131   5.709   4.381  15.623  0.2917 -0.4980  0.3427
 7547TIP3    H144132   5.736   4.363  15.713  1.0704 -1.0065  0.0211
 7547TIP3    H244133   5.792   4.386  15.574 -0.1587 -1.1983 -0.5155
 7548TIP3   OH244134   0.810   6.686  12.257  0.5963 -0.3298 -0.3715
 7548TIP3    H144135   0.889   6.644  12.225  2.2800  1.2902  1.3839
 7548TIP3    H244136   0.805   6.661  12.349  0.0376  0.9175 -0.0268
 7549TIP3   OH244137   4.622   3.558   5.156 -0.0720  0.5958 -0.0960
 7549TIP3    H144138   4.540   3.509   5.169  0.3093  0.1249  0.5936
 7549TIP3    H244139   4.621   3.580   5.063 -0.7965  0.2498 -0.1837
 7550TIP3   OH244140   1.165   0.637  17.006  0.8939 -0.0858  0.2351
 7550TIP3    H144141   1.258   0.617  17.013  0.9359 -0.7377 -1.7143
 7550TIP3    H244142   1.152   0.663  16.915 -0.9528 -0.6568  0.2945
 7551TIP3   OH244143   6.256   4.020  13.793 -0.7452  0.3389  0.1936
 7551TIP3    H144144   6.238   4.073  13.871 -1.2644 -0.3602  0.5589
 7551TIP3    H244145   6.335   3.971  13.815  0.5488  1.9296 -0.6589
 7552TIP3   OH244146   6.026   4.840   0.531 -0.4664  0.6038 -0.4439
 7552TIP3    H144147   5.990   4.858   0.618  1.9845 -0.0354  0.7739
 7552TIP3    H244148   6.093   4.906   0.518  1.3045 -1.1008 -0.4802
 7553TIP3   OH244149   1.665   2.401  11.669  0.2970  0.3161  0.6081
 7553TIP3    H144150   1.693   2.458  11.598 -0.0997  0.2984  0.4313
 7553TIP3    H244151   1.647   2.317  11.626 -0.2632  0.3997  0.6688
 7554TIP3   OH244152   0.636   0.589  12.008  0.0150  0.2230 -0.0438
 7554TIP3    H144153   0.632   0.670  11.957 -0.2418 -0.4727 -1.1692
 7554TIP3    H244154   0.682   0.614  12.088  0.2728  1.3965 -0.5272
 7555TIP3   OH244155   2.540   5.887  15.826  0.3296 -0.2316  0.1000
 7555TIP3    H144156   2.498   5.924  15.749  1.2338  1.5847  0.4206
 7555TIP3    H244157   2.585   5.809  15.794 -2.4742 -1.7993 -0.4116
 7556TIP3   OH244158   5.503   0.462   1.055 -0.3852 -0.1243 -0.3457
 7556TIP3    H144159   5.466   0.545   1.085  1.6442  0.0623  1.9764
 7556TIP3    H244160   5.458   0.396   1.106 -0.6479 -0.2840 -0.7840
 7557TIP3   OH244161   2.257   0.123  11.722 -0.3152  0.2263 -0.2306
 7557TIP3    H144162   2.321   0.059  11.691 -0.0234 -0.8044  2.2757
 7557TIP3    H244163   2.173   0.078  11.713 -0.1079 -0.6409  1.5609
 7558TIP3   OH244164   5.872   2.723  16.199 -0.5613 -0.1162 -0.0934
 7558TIP3    H144165   5.913   2.684  16.276  1.7942 -0.6285 -1.4973
 7558TIP3    H244166   5.862   2.815  16.221  0.4761 -0.1709  0.6944
 7559TIP3   OH244167   4.985   3.404   4.619  0.4897 -0.1508  0.4588
 7559TIP3    H144168   4.966   3.356   4.699  0.1259 -0.1183  0.3930
 7559TIP3    H244169   4.973   3.496   4.642  1.2962 -0.0812  0.6138
 7560TIP3   OH244170   4.280   6.108   4.008 -0.1215 -0.4918  0.5032
 7560TIP3    H144171   4.219   6.038   4.029 -2.0085  0.4842 -1.3864
 7560TIP3    H244172   4.232   6.165   3.947  1.7481  1.7876  1.0099
 7561TIP3   OH244173   1.912   5.236   2.351  0.7169  0.1520  0.3690
 7561TIP3    H144174   1.920   5.329   2.373 -0.2501  0.3056  0.0892
 7561TIP3    H244175   1.933   5.231   2.258  0.7138  0.0923  0.3712
 7562TIP3   OH244176   2.270   1.317  11.440  0.1405 -0.2460 -0.1663
 7562TIP3    H144177   2.235   1.290  11.354  0.8385 -0.5049 -0.3807
 7562TIP3    H244178   2.217   1.392  11.465  1.1058  1.0371 -1.7093
 7563TIP3   OH244179   6.225   4.462  17.082 -0.4297  0.1615  0.2086
 7563TIP3    H144180   6.286   4.504  17.021  0.4686 -1.1275  0.1832
 7563TIP3    H244181   6.227   4.518  17.159 -0.2633  0.8771 -0.3029
 7564TIP3   OH244182   6.281   1.885   5.195 -0.3420  0.2177  0.0170
 7564TIP3    H144183   6.240   1.876   5.108  1.1118 -2.1423 -0.5212
 7564TIP3    H244184   6.211   1.863   5.256 -0.3373 -2.6321 -0.8371
 7565TIP3   OH244185   6.566   1.785  11.932 -0.0393  0.3495 -0.1330
 7565TIP3    H144186   6.500   1.719  11.910 -0.7490  0.9333  0.2068
 7565TIP3    H244187   6.641   1.734  11.964 -0.3565 -0.3170 -0.4339
 7566TIP3   OH244188   4.612   6.167   5.190  0.0268  0.1624  0.0409
 7566TIP3    H144189   4.695   6.172   5.236 -0.8817 -1.8236  2.1209
 7566TIP3    H244190   4.551   6.216   5.246 -0.4426  0.6418 -0.8702
 7567TIP3   OH244191   2.483   3.334   0.587 -0.2959 -0.0696  0.0900
 7567TIP3    H144192   2.414   3.393   0.556  1.8685  2.0341 -0.9629
 7567TIP3    H244193   2.518   3.294   0.508  1.7371  1.2944  0.2359
 7568TIP3   OH244194   1.492   4.273  12.325  0.9240  0.2630  0.7087
 7568TIP3    H144195   1.475   4.254  12.417 -1.8908 -0.7143  0.1075
 7568TIP3    H244196   1.451   4.359  12.311  2.6573  1.1115  0.6525
 7569TIP3   OH244197   0.394   5.402   4.155  0.0536 -0.2067  0.0684
 7569TIP3    H144198   0.323   5.337   4.157  0.9921 -1.2466  0.9864
 7569TIP3    H244199   0.438   5.391   4.239 -0.9481  3.0352  1.1468
 7570TIP3   OH244200   4.250   2.930   3.973  0.0424  0.2963  0.4559
 7570TIP3    H144201   4.293   2.962   3.894  0.9507  0.7715  1.1167
 7570TIP3    H244202   4.185   2.997   3.994 -0.9331 -0.3422 -0.4557
 7571TIP3   OH244203   1.711   4.669  12.773  0.3312 -0.4000  0.2560
 7571TIP3    H144204   1.772   4.632  12.710  1.3724  2.1306 -0.3454
 7571TIP3    H244205   1.736   4.630  12.857  1.8919 -0.4455 -0.1981
 7572TIP3   OH244206   3.298   0.626  12.728 -0.0874 -0.0782 -0.2970
 7572TIP3    H144207   3.303   0.531  12.732 -1.4926 -0.1441  0.8074
 7572TIP3    H244208   3.290   0.646  12.635  4.7970 -0.6650 -1.1268
 7573TIP3   OH244209   4.117   3.409   4.093  0.1644 -0.4020 -0.6598
 7573TIP3    H144210   4.133   3.478   4.028 -1.3375  0.4560 -0.1665
 7573TIP3    H244211   4.037   3.436   4.138  0.3241 -1.7598  0.5248
 7574TIP3   OH244212   6.435   1.665   2.773  0.0863 -0.1262 -0.0773
 7574TIP3    H144213   6.452   1.627   2.687  1.3102  0.1863  0.0012
 7574TIP3    H244214   6.341   1.655   2.786  0.1984 -2.0965 -0.5210
 7575TIP3   OH244215   2.837   2.768  17.323 -0.1443  0.4219  0.0613
 7575TIP3    H144216   2.930   2.783  17.336 -0.5498  1.4049  2.1873
 7575TIP3    H244217   2.803   2.852  17.291 -0.1251 -0.3439 -2.1751
 7576TIP3   OH244218   2.674   5.006  16.679  0.2405 -0.4917 -0.0406
 7576TIP3    H144219   2.688   4.967  16.766  0.5258  1.3158  0.7606
 7576TIP3    H244220   2.761   5.005  16.638 -0.0551 -2.1600 -0.6974
 7577TIP3   OH244221   0.663   2.227   4.918  0.1061  0.5057  0.1909
 7577TIP3    H144222   0.753   2.206   4.941  0.1571 -0.3196 -0.7073
 7577TIP3    H244223   0.651   2.318   4.947  0.7251  0.1154  1.7259
 7578TIP3   OH244224   1.066   1.725   1.178 -0.5497  0.1746  0.2373
 7578TIP3    H144225   1.068   1.673   1.098  1.5371 -0.1564  0.4406
 7578TIP3    H244226   0.994   1.787   1.166 -2.4426 -2.0232 -0.4628
 7579TIP3   OH244227   2.030   1.866  13.606 -0.6160  0.1886  0.2699
 7579TIP3    H144228   1.938   1.860  13.579 -0.6998  0.3105  0.5216
 7579TIP3    H244229   2.073   1.792  13.563 -0.5798  0.8373 -0.8391
 7580TIP3   OH244230   4.849   0.590  14.602 -0.0651 -0.3501  0.1680
 7580TIP3    H144231   4.771   0.537  14.620 -0.6595  0.2984 -0.4262
 7580TIP3    H244232   4.891   0.600  14.688 -0.9332 -0.2650  0.5936
 7581TIP3   OH244233   3.229   2.694   4.997  0.2076  0.5691 -0.0249
 7581TIP3    H144234   3.266   2.677   5.083  2.5016 -0.8150 -1.1906
 7581TIP3    H244235   3.294   2.747   4.952 -0.8689  1.1346 -0.9772
 7582TIP3   OH244236   0.769   6.624  15.810  0.0913 -0.4153 -0.5252
 7582TIP3    H144237   0.682   6.585  15.821  0.2930 -1.2402 -1.7427
 7582TIP3    H244238   0.777   6.684  15.884 -1.9483  0.4703 -0.9498
 7583TIP3   OH244239   5.329   1.437   0.442  0.1225 -0.3515  0.7774
 7583TIP3    H144240   5.247   1.395   0.469 -0.5639  1.0435  0.9654
 7583TIP3    H244241   5.302   1.522   0.407  1.4891  0.1081  0.7800
 7584TIP3   OH244242   0.124   6.630  14.755  0.5227 -0.1323  0.3953
 7584TIP3    H144243   0.184   6.677  14.812  1.5515 -0.1641 -0.6272
 7584TIP3    H244244   0.114   6.687  14.678  0.2504 -0.7006  0.0013
 7585TIP3   OH244245   6.077   0.649  12.697  0.1167  0.8838 -0.2175
 7585TIP3    H144246   6.052   0.700  12.774  0.3599 -2.3892  2.2364
 7585TIP3    H244247   5.994   0.611  12.666  0.2302  0.9612 -0.6150
 7586TIP3   OH244248   1.051   0.794   4.027 -0.2272 -0.3620 -0.0936
 7586TIP3    H144249   1.053   0.843   4.109 -0.5617  0.4019 -0.5341
 7586TIP3    H244250   1.143   0.776   4.008  0.1823  2.3776 -1.2397
 7587TIP3   OH244251   4.070   3.637   3.032 -0.0899  0.5772  0.0955
 7587TIP3    H144252   4.015   3.706   2.997 -0.8271 -0.5759 -1.1021
 7587TIP3    H244253   4.009   3.576   3.074  0.2579 -0.6356 -1.1049
 7588TIP3   OH244254   3.953   1.258   1.912  0.6313 -0.0288  0.8399
 7588TIP3    H144255   3.988   1.346   1.926 -0.6165  0.7908 -0.7921
 7588TIP3    H244256   3.862   1.264   1.942  0.2786 -0.4834 -0.0867
 7589TIP3   OH244257   0.820   1.637   0.598  0.2072 -0.1568 -0.1583
 7589TIP3    H144258   0.868   1.633   0.516 -0.9355 -2.0145 -0.8108
 7589TIP3    H244259   0.728   1.627   0.573 -0.2753  0.3458  1.2696
 7590TIP3   OH244260   3.460   2.750   4.016 -0.5591  0.3151 -0.5015
 7590TIP3    H144261   3.404   2.711   3.949 -2.1345 -0.0871  0.9977
 7590TIP3    H244262   3.401   2.770   4.089  1.3684 -0.9965  1.5426
 7591TIP3   OH244263   3.983   2.422  14.213  0.8044  0.5001  0.2666
 7591TIP3    H144264   3.898   2.410  14.255  0.1334  2.6028 -0.3949
 7591TIP3    H244265   4.021   2.499  14.256  0.1856  2.6090 -2.6514
 7592TIP3   OH244266   0.566   3.504   6.044 -0.1448  0.0386  0.0597
 7592TIP3    H144267   0.608   3.563   5.982  0.2369 -0.9989 -0.7068
 7592TIP3    H244268   0.637   3.477   6.103 -0.2834  0.2313  0.3150
 7593TIP3   OH244269   0.504   1.175  13.691 -0.0469  0.2045  0.2449
 7593TIP3    H144270   0.593   1.140  13.686 -0.8378 -2.1106  0.8041
 7593TIP3    H244271   0.515   1.270  13.691  2.4980  0.0024  1.5636
 7594TIP3   OH244272   2.775   0.797  12.696  0.2372  0.4887  0.0741
 7594TIP3    H144273   2.738   0.855  12.630 -1.6437 -0.6647  0.0206
 7594TIP3    H244274   2.772   0.849  12.777 -2.6170  0.1560  0.2929
 7595TIP3   OH244275   5.786   5.681  10.880 -0.1556  0.7433 -0.6838
 7595TIP3    H144276   5.834   5.758  10.850 -0.7642  1.3098 -0.2401
 7595TIP3    H244277   5.740   5.710  10.958  1.1513 -0.6142  0.6589
 7596TIP3   OH244278   5.259   3.804   1.638 -0.1644  0.1150 -0.3838
 7596TIP3    H144279   5.274   3.716   1.671 -0.3001  0.8232  1.7785
 7596TIP3    H244280   5.166   3.807   1.619 -0.6965  0.4382  1.9208
 7597TIP3   OH244281   1.264   0.432   6.539 -0.0958  0.4542 -0.2206
 7597TIP3    H144282   1.341   0.433   6.596  0.5064 -0.8960 -0.9668
 7597TIP3    H244283   1.262   0.520   6.500  0.0620  1.0616  1.0842
 7598TIP3   OH244284   4.524   1.362   4.875 -0.6187  0.4552 -0.1788
 7598TIP3    H144285   4.538   1.445   4.828  2.0389  0.1676 -0.0530
 7598TIP3    H244286   4.594   1.305   4.843 -1.2078 -1.0939  1.1910
 7599TIP3   OH244287   5.292   5.857  15.558 -0.2902  0.1734 -0.5308
 7599TIP3    H144288   5.305   5.872  15.464 -1.5325 -0.4874 -0.8316
 7599TIP3    H244289   5.199   5.874  15.572 -1.4505 -4.7617 -0.5153
 7600TIP3   OH244290   4.671   4.327   5.462  0.5019  0.1037 -0.1853
 7600TIP3    H144291   4.689   4.267   5.535  1.2742  0.7514  0.1804
 7600TIP3    H244292   4.578   4.347   5.470  0.2177 -1.0788 -0.3466
 7601TIP3   OH244293   2.392   3.049  15.321 -0.0236  0.1123  0.5995
 7601TIP3    H144294   2.450   3.025  15.249  0.2615  0.0798  0.8382
 7601TIP3    H244295   2.378   3.143  15.311 -0.4484  0.0030  0.1663
 7602TIP3   OH244296   3.834   0.959  16.689  0.0374 -0.0505 -0.0655
 7602TIP3    H144297   3.866   1.043  16.658 -1.2297  0.3554 -0.3436
 7602TIP3    H244298   3.893   0.895  16.651  0.5555  0.6678 -0.4811
 7603TIP3   OH244299   1.244   2.490   0.972 -0.0901  0.1810 -0.1104
 7603TIP3    H144300   1.297   2.547   0.917 -0.4893  2.3568  1.6033
 7603TIP3    H244301   1.187   2.550   1.020 -1.0960 -1.7533  1.2525
 7604TIP3   OH244302   5.437   2.815   2.160  0.2064  0.2282 -0.4451
 7604TIP3    H144303   5.466   2.736   2.113 -0.9137 -0.3742 -0.1340
 7604TIP3    H244304   5.423   2.879   2.090 -0.0105 -0.2034 -0.8050
 7605TIP3   OH244305   1.390   0.812  11.334 -0.0366  0.8610  0.4755
 7605TIP3    H144306   1.377   0.805  11.429  2.1740 -2.5031  0.7127
 7605TIP3    H244307   1.304   0.795  11.297 -0.4863 -0.1058  1.8809
 7606TIP3   OH244308   0.705   1.701   4.199 -0.1102  0.5393 -0.4131
 7606TIP3    H144309   0.671   1.778   4.245  0.7143  1.0460 -0.6336
 7606TIP3    H244310   0.652   1.629   4.232  2.2006  0.3427  3.5540
 7607TIP3   OH244311   3.233   6.101   5.497 -0.2870  0.3863 -0.1593
 7607TIP3    H144312   3.154   6.074   5.449 -1.0884  0.7890  0.8871
 7607TIP3    H244313   3.227   6.197   5.500 -0.6370  0.3450  1.3283
 7608TIP3   OH244314   6.701   4.639  11.373 -0.2697 -0.6658 -0.4162
 7608TIP3    H144315   6.792   4.630  11.400 -0.5850 -0.4960  0.7356
 7608TIP3    H244316   6.687   4.567  11.312  0.1109 -1.8600  0.8518
 7609TIP3   OH244317   1.134   6.074   3.464 -0.6349 -0.2181  0.1702
 7609TIP3    H144318   1.134   6.046   3.555  0.7623  0.4094  0.3899
 7609TIP3    H244319   1.177   6.160   3.465 -1.4008  0.2094 -0.9647
 7610TIP3   OH244320   5.894   1.767  13.569  0.0753  0.2175 -0.1759
 7610TIP3    H144321   5.946   1.688  13.579  0.3959  0.6185  1.7747
 7610TIP3    H244322   5.809   1.736  13.538  0.6494 -0.7120 -0.8707
 7611TIP3   OH244323   0.328   3.074   5.243 -0.1148  0.3340  0.1670
 7611TIP3    H144324   0.364   3.096   5.157  0.1717  0.8435  0.4038
 7611TIP3    H244325   0.271   2.999   5.228 -0.5507  0.8045 -0.5709
 7612TIP3   OH244326   0.489   6.057  12.902  0.6933  0.0433  0.0217
 7612TIP3    H144327   0.443   6.085  12.980  0.0583 -0.2754 -0.2337
 7612TIP3    H244328   0.451   5.971  12.881  1.1920 -0.0913 -0.3601
 7613TIP3   OH244329   6.028   5.377  13.063 -0.1421 -0.7651  0.4797
 7613TIP3    H144330   6.078   5.296  13.069  0.1657 -0.4594  2.8938
 7613TIP3    H244331   5.954   5.365  13.122 -1.6063 -0.2415 -1.1367
 7614TIP3   OH244332   3.367   2.497   2.991  0.9818  0.3952 -0.6624
 7614TIP3    H144333   3.392   2.483   2.899  2.6350  1.2015 -0.3742
 7614TIP3    H244334   3.374   2.591   3.004 -0.9623  0.5035 -0.1374
 7615TIP3   OH244335   1.461   2.584  11.700  0.0623  0.3485  0.4391
 7615TIP3    H144336   1.510   2.664  11.719  0.1625  0.0981  1.3121
 7615TIP3    H244337   1.529   2.517  11.691 -0.0421  0.2907  0.0902
 7616TIP3   OH244338   1.764   5.957   3.299  0.1287 -0.1158 -0.6395
 7616TIP3    H144339   1.835   5.965   3.362 -0.7853  1.3256  0.2438
 7616TIP3    H244340   1.691   5.920   3.349 -0.1712 -0.3230 -1.2160
 7617TIP3   OH244341   1.834   3.839   3.761 -0.6448  0.3073 -0.2832
 7617TIP3    H144342   1.791   3.769   3.810 -0.8398  0.8928  0.4006
 7617TIP3    H244343   1.924   3.841   3.795 -0.4006 -0.1591 -0.8951
 7618TIP3   OH244344   2.881   6.117   6.364  0.1452 -0.0625  0.3603
 7618TIP3    H144345   2.800   6.068   6.351 -0.9741  1.9784 -0.8135
 7618TIP3    H244346   2.908   6.142   6.276  1.7681 -0.2464  0.7798
 7619TIP3   OH244347   6.820   5.407  12.377  0.0368 -0.4861  0.0546
 7619TIP3    H144348   6.726   5.413  12.360  0.2853 -0.1104 -1.3488
 7619TIP3    H244349   6.855   5.363  12.299  1.5153  2.8680 -1.3802
 7620TIP3   OH244350   4.520   2.960  12.382 -0.4769 -0.2316 -0.3807
 7620TIP3    H144351   4.434   2.971  12.342 -0.9645  0.4113  0.7719
 7620TIP3    H244352   4.550   3.050  12.399  0.7870 -0.4184 -1.4719
 7621TIP3   OH244353   0.655   5.482  12.138 -0.7014  0.3708  0.6589
 7621TIP3    H144354   0.676   5.557  12.193 -1.5891 -0.0906  1.6556
 7621TIP3    H244355   0.561   5.468  12.150 -0.9944  0.4376 -1.2219
 7622TIP3   OH244356   2.733   4.168   0.382  0.7298 -0.1366 -0.1510
 7622TIP3    H144357   2.687   4.249   0.361  0.8192  0.1330  0.6679
 7622TIP3    H244358   2.780   4.145   0.302 -0.3529 -0.0997 -0.8081
 7623TIP3   OH244359   4.864   0.468   1.273  0.2097  0.2582  0.3534
 7623TIP3    H144360   4.898   0.442   1.359 -0.1315 -0.6704  0.2197
 7623TIP3    H244361   4.878   0.562   1.269 -2.8094  1.0072  2.8945
 7624TIP3   OH244362   1.283   6.217  13.051 -0.2542 -0.1611  0.3611
 7624TIP3    H144363   1.210   6.276  13.072  0.4732  1.0906 -0.4878
 7624TIP3    H244364   1.272   6.196  12.958  1.1497  1.0986 -0.1313
 7625TIP3   OH244365   3.557   4.797  12.513 -0.8379  0.0731 -0.0840
 7625TIP3    H144366   3.464   4.779  12.529 -1.2279  2.2281  0.4452
 7625TIP3    H244367   3.556   4.856  12.437  0.2788 -1.6133 -1.4624
 7626TIP3   OH244368   0.676   2.704   3.505  0.4786 -0.0574  0.2185
 7626TIP3    H144369   0.631   2.646   3.566  0.0114  0.0830  0.0128
 7626TIP3    H244370   0.618   2.780   3.496  1.2826  0.6488  0.8202
 7627TIP3   OH244371   1.597   4.313  11.873  0.3086 -0.1208  0.3968
 7627TIP3    H144372   1.550   4.230  11.864  0.6575 -0.1368 -1.7722
 7627TIP3    H244373   1.529   4.380  11.862  0.4609 -0.1430 -0.7754
 7628TIP3   OH244374   1.423   4.755  16.878  0.3562  0.0024 -0.1985
 7628TIP3    H144375   1.494   4.694  16.859  1.0860  0.8553 -0.3054
 7628TIP3    H244376   1.467   4.836  16.903 -0.5869  0.4034  0.2257
 7629TIP3   OH244377   1.846   4.643  14.802  0.1556 -0.8231 -0.2657
 7629TIP3    H144378   1.813   4.619  14.888  0.0786  0.9233  0.2317
 7629TIP3    H244379   1.767   4.660  14.750  0.0994  2.4276  0.6537
 7630TIP3   OH244380   6.061   3.371   1.771 -0.3184  0.0322  0.3416
 7630TIP3    H144381   6.138   3.366   1.715  0.0264  1.1233  0.6905
 7630TIP3    H244382   6.008   3.295   1.746  0.2395  0.0033 -0.8247
 7631TIP3   OH244383   3.006   0.060  14.116 -0.3055  0.8748  0.1583
 7631TIP3    H144384   3.100   0.053  14.099 -0.4279  1.0235 -0.6111
 7631TIP3    H244385   2.986  -0.015  14.172  0.4639  1.4260  1.1941
 7632TIP3   OH244386   0.537   6.793  17.254 -0.1695  0.0699  0.5781
 7632TIP3    H144387   0.492   6.779  17.337 -0.1823  0.1689  0.5877
 7632TIP3    H244388   0.468   6.788  17.188 -0.1587 -0.0125  0.5738
 7633TIP3   OH244389   1.479   5.435  13.487  0.1850 -0.2528 -0.0410
 7633TIP3    H144390   1.506   5.375  13.417 -2.2005 -1.4671 -0.0107
 7633TIP3    H244391   1.407   5.484  13.449  1.2568  1.7622  0.3973
 7634TIP3   OH244392   2.196   3.340   5.669  0.0419 -0.5073  0.2037
 7634TIP3    H144393   2.271   3.281   5.666  0.4746 -0.0092  1.0370
 7634TIP3    H244394   2.191   3.375   5.580  0.6129 -0.7693  0.0596
 7635TIP3   OH244395   1.669   0.167   0.805 -0.1024 -0.4426 -0.2653
 7635TIP3    H144396   1.745   0.210   0.844 -0.9464 -0.3620  1.3859
 7635TIP3    H244397   1.666   0.081   0.848  1.5420 -2.2971 -3.4710
 7636TIP3   OH244398   3.131   2.171   5.594 -0.0743 -0.2803 -0.0834
 7636TIP3    H144399   3.155   2.079   5.583 -1.2272 -0.7679  1.0906
 7636TIP3    H244400   3.126   2.206   5.505 -0.2191 -1.5163 -0.5820
 7637TIP3   OH244401   0.362   2.056  12.459  0.2874  0.0240  0.0157
 7637TIP3    H144402   0.313   2.102  12.527 -0.2551 -2.4709  1.3991
 7637TIP3    H244403   0.433   2.117  12.436 -0.1573  1.3876  1.9894
 7638TIP3   OH244404   1.788   1.828   3.791 -0.0930 -0.3546  0.4664
 7638TIP3    H144405   1.757   1.766   3.856 -0.4348  0.0449  0.6927
 7638TIP3    H244406   1.783   1.913   3.836 -0.4169 -0.0655 -0.1104
 7639TIP3   OH244407   1.378   1.361   2.691  0.1120  0.1480 -0.2531
 7639TIP3    H144408   1.292   1.364   2.732  0.2893  0.7275  0.0943
 7639TIP3    H244409   1.424   1.438   2.726  0.2842  0.6369 -1.5064
 7640TIP3   OH244410   1.228   1.464  17.232 -0.3060  0.0264 -0.2409
 7640TIP3    H144411   1.224   1.386  17.177  1.2700 -1.4249  1.5617
 7640TIP3    H244412   1.303   1.449  17.290  0.2948  3.0608 -0.0363
 7641TIP3   OH244413   0.497   2.307  16.787 -0.2552 -0.8700 -0.1439
 7641TIP3    H144414   0.517   2.214  16.774 -0.6255 -0.9495 -0.1588
 7641TIP3    H244415   0.446   2.309  16.868  0.0169 -0.6447  0.0207
 7642TIP3   OH244416   0.123   1.132  15.337  0.1149 -0.1169 -0.1673
 7642TIP3    H144417   0.103   1.221  15.367  0.1527  0.3217 -1.3972
 7642TIP3    H244418   0.055   1.078  15.377  0.2197  0.4171  0.7782
 7643TIP3   OH244419   5.881   4.624   1.982  0.0174  0.2336  0.2870
 7643TIP3    H144420   5.953   4.638   1.920  1.0054  1.2614  1.6044
 7643TIP3    H244421   5.874   4.529   1.990  2.0580  0.1053  1.0204
 7644TIP3   OH244422   6.051   4.508  12.726 -0.1009 -0.3712 -0.2667
 7644TIP3    H144423   6.028   4.464  12.808 -1.0781  1.9060  0.7469
 7644TIP3    H244424   6.140   4.539  12.739 -0.6310  0.9382  0.4128
 7645TIP3   OH244425   3.641   3.798  12.531  0.2195 -0.2376 -0.1112
 7645TIP3    H144426   3.636   3.889  12.501  0.8301 -0.0753  0.2577
 7645TIP3    H244427   3.714   3.761  12.482  0.6294 -0.2327  0.4810
 7646TIP3   OH244428   5.859   0.855  14.998 -0.0413 -0.3400  0.0271
 7646TIP3    H144429   5.856   0.950  15.001 -2.0865 -0.2663 -1.7148
 7646TIP3    H244430   5.851   0.827  15.089  3.5941  1.0709  0.9306
 7647TIP3   OH244431   6.433   3.049   1.212  0.2596  0.6137  0.2534
 7647TIP3    H144432   6.378   3.007   1.278  0.3285 -0.4644 -0.3407
 7647TIP3    H244433   6.371   3.085   1.148  0.2216 -0.3499 -0.2673
 7648TIP3   OH244434   2.966   0.261  13.466  0.2085 -0.0522  0.0683
 7648TIP3    H144435   2.895   0.297  13.414  0.2206  1.1289  0.8184
 7648TIP3    H244436   2.965   0.313  13.547  0.6266 -1.3570  0.9521
 7649TIP3   OH244437   6.414   0.720   5.080 -0.8368  0.4645 -0.2220
 7649TIP3    H144438   6.445   0.805   5.112 -1.7574  1.2356 -1.2705
 7649TIP3    H244439   6.493   0.673   5.055 -0.2434  0.6350  1.2295
 7650TIP3   OH244440   3.905   4.977  12.665  0.1052  0.1877  0.3524
 7650TIP3    H144441   3.984   4.994  12.615  1.4967 -3.6607  0.9380
 7650TIP3    H244442   3.919   5.025  12.747  3.1597 -2.2611  1.4723
 7651TIP3   OH244443   0.325   6.301   4.278  0.6738  0.4872 -0.0223
 7651TIP3    H144444   0.352   6.386   4.244  2.2436  0.6690  1.5536
 7651TIP3    H244445   0.319   6.314   4.373 -1.0847 -0.6478  0.0666
 7652TIP3   OH244446   3.969   4.407  10.900  0.3623  0.2532 -0.1087
 7652TIP3    H144447   3.939   4.334  10.847  0.3850  0.1802 -0.0210
 7652TIP3    H244448   3.946   4.485  10.849  2.7536  0.1531 -1.5187
 7653TIP3   OH244449   3.977   2.857   1.124  0.2102  0.0878 -0.0033
 7653TIP3    H144450   3.970   2.950   1.146 -1.5436 -0.3392  1.4270
 7653TIP3    H244451   4.000   2.814   1.206  0.4360 -0.8293 -0.5306
 7654TIP3   OH244452   2.844   4.540  11.719  0.3280 -0.7400 -0.3874
 7654TIP3    H144453   2.839   4.482  11.795 -0.2539 -2.3037 -1.5479
 7654TIP3    H244454   2.755   4.574  11.709  0.2414 -1.0461 -0.7138
 7655TIP3   OH244455   2.131   1.354  14.776  0.0097 -0.3622  0.4498
 7655TIP3    H144456   2.085   1.371  14.694  3.6353  2.6404 -1.2597
 7655TIP3    H244457   2.166   1.266  14.767  0.6395  0.0502 -1.4731
 7656TIP3   OH244458   6.417   5.716   2.380  0.2595 -0.1782 -0.5034
 7656TIP3    H144459   6.378   5.803   2.388  1.1127  0.0137  2.9907
 7656TIP3    H244460   6.510   5.733   2.362  0.1336 -0.4478 -1.4622
 7657TIP3   OH244461   6.383   5.150  11.426  0.5688  0.1850 -0.6603
 7657TIP3    H144462   6.336   5.068  11.409  2.0399 -1.1217  1.1651
 7657TIP3    H244463   6.410   5.181  11.339 -0.8679 -0.7073 -1.4595
 7658TIP3   OH244464   2.383   3.499   3.813  0.4130  0.7834 -0.4983
 7658TIP3    H144465   2.342   3.541   3.889 -1.1547  0.0525 -0.8959
 7658TIP3    H244466   2.477   3.511   3.827  0.0888  2.5699  0.4313
 7659TIP3   OH244467   0.699   0.481   4.381  0.4095 -0.4353  0.9948
 7659TIP3    H144468   0.788   0.508   4.359 -0.3142  0.7269 -0.6668
 7659TIP3    H244469   0.693   0.391   4.348  0.5563 -0.0362 -0.1732
 7660TIP3   OH244470   5.150   1.534   2.819 -0.2888  0.3877 -0.5886
 7660TIP3    H144471   5.216   1.486   2.869 -0.7209  2.6437  2.4091
 7660TIP3    H244472   5.186   1.622   2.809 -2.6438  1.6337  0.9887
 7661TIP3   OH244473   6.136   6.295   3.421 -0.6399 -0.4508  0.5882
 7661TIP3    H144474   6.077   6.262   3.489 -1.3963 -1.0410 -0.3228
 7661TIP3    H244475   6.080   6.346   3.363 -0.0932 -0.3209  0.1621
 7662TIP3   OH244476   0.784   1.631   2.126 -0.0268 -0.7692  0.1832
 7662TIP3    H144477   0.840   1.564   2.086 -0.8769 -1.6881  0.5085
 7662TIP3    H244478   0.734   1.667   2.053  1.7696  0.9057 -0.3245
 7663TIP3   OH244479   3.124   6.315   2.888 -0.1193 -0.8068 -0.1125
 7663TIP3    H144480   3.074   6.345   2.812  0.7069  1.2288  0.0749
 7663TIP3    H244481   3.170   6.394   2.919  1.5108 -2.1214  0.9899
 7664TIP3   OH244482   0.545   3.947  14.715  0.2072  0.5946 -0.1455
 7664TIP3    H144483   0.467   4.002  14.704 -1.2996 -1.1047  1.4725
 7664TIP3    H244484   0.530   3.873  14.656  1.7074  1.3045 -1.4879
 7665TIP3   OH244485   4.290   2.648   1.221  0.1895  0.3622 -0.0838
 7665TIP3    H144486   4.243   2.565   1.226  0.2121  0.3917  0.7033
 7665TIP3    H244487   4.229   2.708   1.177  0.7378 -0.4447 -2.0366
 7666TIP3   OH244488   2.932   4.133  10.686 -0.0980 -0.1932  0.2309
 7666TIP3    H144489   2.979   4.176  10.758  1.8595 -0.7419 -0.6444
 7666TIP3    H244490   2.867   4.078  10.730  0.0688  0.5865  1.5156
 7667TIP3   OH244491   0.182   2.144   4.463  0.3278  0.0125 -0.1099
 7667TIP3    H144492   0.167   2.099   4.380 -2.0567 -0.1540  0.3543
 7667TIP3    H244493   0.251   2.208   4.442  1.2118 -1.3603 -1.6737
 7668TIP3   OH244494   3.116   5.738  11.284  0.1065  0.2149  0.4966
 7668TIP3    H144495   3.102   5.804  11.352  0.4156 -0.5475  1.3189
 7668TIP3    H244496   3.211   5.722  11.286  0.5650  1.9482 -1.8180
 7669TIP3   OH244497   6.055   6.167  16.477  0.4761  0.6121  0.3046
 7669TIP3    H144498   6.023   6.109  16.408  3.6369  0.4487 -1.2231
 7669TIP3    H244499   6.083   6.109  16.547  1.6086  0.3651 -0.3154
 7670TIP3   OH244500   0.860   5.667  14.728 -0.8376 -0.1978 -0.8106
 7670TIP3    H144501   0.882   5.654  14.636  2.4621 -0.0901 -0.1661
 7670TIP3    H244502   0.848   5.761  14.738  1.6637  0.1949 -0.7271
 7671TIP3   OH244503   3.569   0.412  13.966  0.4474 -0.1208  0.0265
 7671TIP3    H144504   3.501   0.351  13.994  1.3280 -1.5878 -0.8868
 7671TIP3    H244505   3.613   0.439  14.047 -0.7149  0.2787  0.5480
 7672TIP3   OH244506   5.767   1.421  15.825  0.1328 -0.1953 -0.2720
 7672TIP3    H144507   5.846   1.466  15.856  0.2134 -0.7387  0.3342
 7672TIP3    H244508   5.730   1.381  15.904  1.2498 -3.0868 -1.0814
 7673TIP3   OH244509   2.843   4.055  14.596  0.7773 -0.0774  0.0476
 7673TIP3    H144510   2.776   4.106  14.643  0.7891 -0.2341  0.2347
 7673TIP3    H244511   2.926   4.086  14.632  0.8433  0.5627 -0.6246
 7674TIP3   OH244512   0.209   0.675   2.254 -0.2155  0.4005 -0.0405
 7674TIP3    H144513   0.132   0.649   2.202 -0.0103 -2.7059  0.9850
 7674TIP3    H244514   0.173   0.699   2.339 -0.1921  1.2957 -0.2691
 7675TIP3   OH244515   1.865   6.486   0.986 -0.0549 -0.1600 -0.0639
 7675TIP3    H144516   1.807   6.528   1.049  0.8460 -0.2334  0.8480
 7675TIP3    H244517   1.828   6.399   0.973 -0.2133 -0.1688  0.4255
 7676TIP3   OH244518   2.752   2.164   6.240  0.0167 -0.7485 -0.0167
 7676TIP3    H144519   2.665   2.190   6.272 -0.0734  0.2935 -1.0572
 7676TIP3    H244520   2.738   2.078   6.202 -0.2531 -1.2023  1.0653
 7677TIP3   OH244521   1.437   2.426   4.816  0.1005 -0.1752 -0.1922
 7677TIP3    H144522   1.493   2.490   4.861 -0.2005 -0.4373  0.5753
 7677TIP3    H244523   1.496   2.381   4.756  0.1495  1.3825 -1.3802
 7678TIP3   OH244524   0.784   6.137   5.860  0.1768  0.8922 -0.7658
 7678TIP3    H144525   0.732   6.172   5.933  0.8424 -0.2945  0.3029
 7678TIP3    H244526   0.834   6.065   5.898  0.5847  0.2774 -2.3926
 7679TIP3   OH244527   2.618   2.487   5.874 -0.1669  0.3273 -0.2331
 7679TIP3    H144528   2.661   2.519   5.795 -0.8078  0.1510 -0.6581
 7679TIP3    H244529   2.620   2.561   5.934 -1.0228  0.9677 -0.9634
 7680TIP3   OH244530   3.277   6.019   2.396 -0.8355 -0.4846  0.2938
 7680TIP3    H144531   3.323   6.046   2.317  1.0727 -0.9633  1.1943
 7680TIP3    H244532   3.270   6.098   2.449  0.3646 -0.7002  0.8083
 7681TIP3   OH244533   4.762   1.551   2.826 -0.4154  0.0775  0.7365
 7681TIP3    H144534   4.837   1.540   2.768  0.3181 -1.3399  1.8737
 7681TIP3    H244535   4.752   1.646   2.836 -0.9310  0.3934 -2.0824
 7682TIP3   OH244536   4.598   0.883  12.152  0.1947 -0.4482  0.1123
 7682TIP3    H144537   4.590   0.799  12.197 -1.0961 -0.3388  0.1003
 7682TIP3    H244538   4.606   0.860  12.060 -1.3966 -0.5273 -0.0191
 7683TIP3   OH244539   6.244   5.772   3.974  0.5763  0.5154 -0.5106
 7683TIP3    H144540   6.300   5.823   4.033  0.9264  0.7354 -1.0291
 7683TIP3    H244541   6.232   5.828   3.898  0.5897  0.0027 -0.8930
 7684TIP3   OH244542   1.423   6.029  17.127  0.3109  0.5702  0.0116
 7684TIP3    H144543   1.440   5.941  17.093 -0.7419  1.0104 -1.7924
 7684TIP3    H244544   1.334   6.024  17.162  1.1590  0.2912  2.3260
 7685TIP3   OH244545   0.764   0.483  11.416 -0.2603 -0.0215 -0.2141
 7685TIP3    H144546   0.680   0.439  11.399  0.4396 -1.6006  0.1642
 7685TIP3    H244547   0.770   0.550  11.348 -0.5398 -1.7859 -2.0894
 7686TIP3   OH244548   4.025   1.963  14.710  0.0535  0.3565  0.6844
 7686TIP3    H144549   3.973   2.010  14.646  0.7359  1.0720  0.6423
 7686TIP3    H244550   3.968   1.893  14.741  0.3123 -1.1871 -2.0296
 7687TIP3   OH244551   6.281   5.892   1.572 -1.0584 -0.3512 -0.5955
 7687TIP3    H144552   6.353   5.828   1.573 -1.8591 -1.2832 -0.7927
 7687TIP3    H244553   6.244   5.888   1.660 -0.9565  0.0306 -0.5341
 7688TIP3   OH244554   0.127   4.907   1.002  0.0681  0.8804  0.2224
 7688TIP3    H144555   0.201   4.888   0.944 -0.8320  0.5479 -0.8699
 7688TIP3    H244556   0.050   4.902   0.944 -1.0419 -1.0164  1.7110
 7689TIP3   OH244557   0.562   5.183   1.442 -0.2424 -0.3785 -0.2209
 7689TIP3    H144558   0.467   5.196   1.441 -0.1289  0.5859  0.2288
 7689TIP3    H244559   0.598   5.268   1.417  0.5078 -0.7278 -0.3512
 7690TIP3   OH244560   3.051   6.158  12.333  0.5790  0.0833 -0.1063
 7690TIP3    H144561   3.039   6.136  12.241  1.6213 -0.0799 -0.2221
 7690TIP3    H244562   3.008   6.088  12.381 -0.4590  0.4638 -0.4601
 7691TIP3   OH244563   1.479   5.983  11.491 -0.4421 -0.2334  0.5220
 7691TIP3    H144564   1.407   6.037  11.457 -0.6385 -0.7651  0.0832
 7691TIP3    H244565   1.555   6.041  11.491 -0.7173  0.1319  0.3368
 7692TIP3   OH244566   4.226   6.712   5.781  0.3367 -0.1718  0.4281
 7692TIP3    H144567   4.156   6.765   5.819 -1.4985 -1.5244 -0.8693
 7692TIP3    H244568   4.279   6.775   5.731 -1.3827  0.6103 -0.5085
 7693TIP3   OH244569   2.379   3.929  16.172 -0.0525  0.3353  0.5100
 7693TIP3    H144570   2.406   3.839  16.157 -0.4943  0.2231  0.3648
 7693TIP3    H244571   2.454   3.983  16.145 -0.5983  0.1327 -1.5837
 7694TIP3   OH244572   5.355   6.346  12.273  0.0897 -0.1195 -0.7110
 7694TIP3    H144573   5.269   6.347  12.315 -0.0039 -0.1211 -0.8992
 7694TIP3    H244574   5.335   6.350  12.179  0.2998  0.1061 -0.7479
 7695TIP3   OH244575   0.706   6.588  13.007  0.6898 -0.3316 -0.2320
 7695TIP3    H144576   0.769   6.615  13.074  0.9648  1.1611 -1.0493
 7695TIP3    H244577   0.622   6.624  13.037  1.2801  2.9062 -1.9933
 7696TIP3   OH244578   1.453   2.392  16.290 -0.3803 -0.1448  0.5829
 7696TIP3    H144579   1.493   2.437  16.364  1.5428 -1.6806  0.5739
 7696TIP3    H244580   1.451   2.300  16.316  0.9896 -0.8329 -1.4758
 7697TIP3   OH244581   2.118   2.656   5.133  0.0060 -0.1718  0.8393
 7697TIP3    H144582   2.086   2.566   5.143 -1.4953  0.4161  1.7210
 7697TIP3    H244583   2.201   2.648   5.086  0.5615 -2.1111  2.0604
 7698TIP3   OH244584   0.537   3.262   1.552  0.5902  0.4349  0.0156
 7698TIP3    H144585   0.444   3.276   1.539  0.9493  1.7473 -1.4723
 7698TIP3    H244586   0.553   3.172   1.522  0.1195  0.8819 -1.6295
 7699TIP3   OH244587   1.303   1.938   2.835 -0.0460  0.2807  0.4767
 7699TIP3    H144588   1.355   1.936   2.916 -0.0449 -0.9291  0.4678
 7699TIP3    H244589   1.240   1.866   2.846  1.8305 -1.8871 -1.7788
 7700TIP3   OH244590   1.597   2.665   2.850 -0.1784  0.3951  0.3369
 7700TIP3    H144591   1.570   2.667   2.942 -1.8472  1.9291 -0.1173
 7700TIP3    H244592   1.522   2.625   2.805  1.0317 -1.2814 -0.2848
 7701TIP3   OH244593   1.657   0.154   5.703 -0.2361  0.0752 -0.6647
 7701TIP3    H144594   1.707   0.176   5.624  0.3683 -1.7308 -0.8282
 7701TIP3    H244595   1.702   0.077   5.738 -1.8697 -0.5264  0.1736
 7702TIP3   OH244596   3.753   1.243  15.432 -0.1380  0.3577  0.4002
 7702TIP3    H144597   3.699   1.231  15.511 -0.5752  1.4343  0.2887
 7702TIP3    H244598   3.824   1.301  15.460  0.7014 -0.6584  0.4186
 7703TIP3   OH244599   0.692   4.314  12.156 -0.0854  0.4693  0.1405
 7703TIP3    H144600   0.623   4.284  12.215  0.4078 -2.3197 -0.5672
 7703TIP3    H244601   0.648   4.326  12.072  0.1849 -1.1861 -0.2793
 7704TIP3   OH244602   5.904   1.480   0.108  0.0195  0.0643  0.0136
 7704TIP3    H144603   5.972   1.533   0.149 -0.4220  0.1803  0.5973
 7704TIP3    H244604   5.901   1.511   0.017  1.4473 -0.6383 -0.3114
 7705TIP3   OH244605   6.614   0.862  12.855  0.0241 -0.3565  0.3783
 7705TIP3    H144606   6.639   0.777  12.892 -0.7300 -1.1147 -0.7887
 7705TIP3    H244607   6.687   0.885  12.798 -0.1576 -0.6334  0.0353
 7706TIP3   OH244608   0.445   4.986  15.444  0.3356 -0.0405 -0.1741
 7706TIP3    H144609   0.472   4.942  15.524 -0.7240  0.4326  0.4719
 7706TIP3    H244610   0.520   5.040  15.420  0.8675 -0.6023  0.1857
 7707TIP3   OH244611   4.711   5.173   0.537  0.6579 -0.2566  0.2121
 7707TIP3    H144612   4.798   5.200   0.566  0.4571 -1.1902  1.7776
 7707TIP3    H244613   4.657   5.179   0.615 -0.1104 -2.0474 -0.1294
 7708TIP3   OH244614   3.764   5.939   1.415  0.4893  0.1386 -0.4072
 7708TIP3    H144615   3.768   5.879   1.490  0.5187 -0.6362 -1.0183
 7708TIP3    H244616   3.710   5.894   1.351  1.5495  0.1942 -1.3737
 7709TIP3   OH244617   3.304   4.111   1.287  0.6857 -0.0805 -0.6926
 7709TIP3    H144618   3.260   4.065   1.359  1.4616 -0.5272 -0.4870
 7709TIP3    H244619   3.370   4.165   1.330  0.0127  0.9794 -0.9628
 7710TIP3   OH244620   0.626   2.809   5.594  0.3438 -0.3264  0.3242
 7710TIP3    H144621   0.556   2.787   5.655  0.1647  0.9458  0.6082
 7710TIP3    H244622   0.675   2.728   5.583 -1.3105 -1.3346 -0.0772
 7711TIP3   OH244623   0.317   6.582   5.811 -0.3518  1.1741 -0.0386
 7711TIP3    H144624   0.294   6.661   5.859 -1.1300  0.2774  1.1065
 7711TIP3    H244625   0.361   6.526   5.875 -1.0912  0.0969 -0.4243
 7712TIP3   OH244626   2.562   1.440   2.552 -0.0106  0.1587 -0.0809
 7712TIP3    H144627   2.607   1.496   2.615  0.0807  0.8959 -0.7851
 7712TIP3    H244628   2.533   1.364   2.603  0.4637  0.5221  0.7438
 7713TIP3   OH244629   2.758   3.085  14.576 -0.3151  0.1056 -1.4463
 7713TIP3    H144630   2.715   3.017  14.628  1.2084  0.7917  0.8402
 7713TIP3    H244631   2.755   3.051  14.486 -0.9187 -2.2678 -0.6027
 7714TIP3   OH244632   5.884   5.891  11.920  0.2878  0.4439 -0.0237
 7714TIP3    H144633   5.877   5.796  11.934 -2.3599  0.8091  1.9711
 7714TIP3    H244634   5.901   5.900  11.827 -1.9447 -2.0105 -0.8234
 7715TIP3   OH244635   6.337   0.606  16.174  0.2464  0.3998 -0.4405
 7715TIP3    H144636   6.258   0.598  16.228  2.1639  1.8974  2.9583
 7715TIP3    H244637   6.336   0.697  16.145  0.3405  0.1954 -1.0927
 7716TIP3   OH244638   0.154   4.406   2.711  0.6401 -0.3535  0.0065
 7716TIP3    H144639   0.237   4.441   2.679  1.9072 -2.0198  1.2998
 7716TIP3    H244640   0.179   4.335   2.770 -1.7199 -0.9930  0.3341
 7717TIP3   OH244641   0.492   5.216   1.122 -0.1859 -0.1573 -0.3682
 7717TIP3    H144642   0.497   5.247   1.031  0.5137  1.0101  0.0379
 7717TIP3    H244643   0.401   5.232   1.147 -0.5679 -1.1515 -1.0770
 7718TIP3   OH244644   3.271   6.361  15.638  0.0693 -0.4508 -0.4306
 7718TIP3    H144645   3.194   6.333  15.589 -0.1990  0.4366 -0.5266
 7718TIP3    H244646   3.317   6.279  15.659 -0.5605 -0.9394 -0.9176
 7719TIP3   OH244647   6.172   2.489   5.433 -0.7111  0.3692  0.5455
 7719TIP3    H144648   6.251   2.435   5.433 -1.5184 -0.8562 -0.1809
 7719TIP3    H244649   6.102   2.430   5.404 -2.2970  0.8457  3.0915
 7720TIP3   OH244650   4.004   2.958  17.282  0.7423  0.2592  0.4415
 7720TIP3    H144651   4.051   2.877  17.305  1.1392 -0.0482 -1.3122
 7720TIP3    H244652   4.022   3.017  17.354 -0.4903 -1.5550  2.3663
 7721TIP3   OH244653   6.472   2.881  16.358  0.1043 -1.0570 -0.4389
 7721TIP3    H144654   6.542   2.831  16.400  1.1557 -1.0422 -2.0866
 7721TIP3    H244655   6.510   2.969  16.346 -0.6242 -0.7147 -0.3195
 7722TIP3   OH244656   1.640   5.709   4.141 -0.2186  0.2506 -0.0726
 7722TIP3    H144657   1.718   5.758   4.114  0.1294 -0.5610 -0.5681
 7722TIP3    H244658   1.568   5.770   4.125  0.0827  0.2047 -1.8966
 7723TIP3   OH244659   4.344   4.775  12.005 -0.4181  0.1154  0.0412
 7723TIP3    H144660   4.379   4.823  11.930 -0.4795 -0.5641 -0.4210
 7723TIP3    H244661   4.290   4.840  12.050 -1.3771  0.1921 -1.1805
 7724TIP3   OH244662   5.018   0.641  13.495 -0.2763 -0.5632 -0.5166
 7724TIP3    H144663   4.956   0.713  13.505 -0.1834 -0.6567  0.9578
 7724TIP3    H244664   5.048   0.648  13.405  0.3961  1.8002 -0.1888
 7725TIP3   OH244665   0.008   2.749   1.868 -0.1894  0.5398 -0.6808
 7725TIP3    H144666   0.004   2.662   1.830  0.7032  0.0262  0.3632
 7725TIP3    H244667   0.094   2.783   1.842  0.1974  0.4009  0.3517
 7726TIP3   OH244668   3.676   1.000   3.253  0.5129  0.0319  0.2191
 7726TIP3    H144669   3.712   0.949   3.326  0.3844  2.4717  2.1164
 7726TIP3    H244670   3.753   1.043   3.214  0.2677  1.1110  0.8964
 7727TIP3   OH244671   4.981   4.142   2.146  0.1721 -0.8459  0.3191
 7727TIP3    H144672   4.974   4.221   2.200 -1.5114 -0.2976 -0.6331
 7727TIP3    H244673   4.908   4.087   2.175  1.4213 -2.1732  1.0841
 7728TIP3   OH244674   1.473   3.324   4.476 -0.1958  0.2413 -0.1116
 7728TIP3    H144675   1.544   3.376   4.438 -0.8634  1.3387  0.1025
 7728TIP3    H244676   1.447   3.265   4.406  0.5901  0.1679 -0.3572
 7729TIP3   OH244677   5.541   6.035   6.081 -0.5800 -0.4993  0.2644
 7729TIP3    H144678   5.604   6.035   6.009 -1.1978 -0.4652 -0.2932
 7729TIP3    H244679   5.576   5.971   6.143  0.4399  0.1444  0.3766
 7730TIP3   OH244680   5.868   5.784   3.501 -0.4223 -0.0514 -0.2581
 7730TIP3    H144681   5.794   5.724   3.498 -0.3274 -0.2237  0.6264
 7730TIP3    H244682   5.945   5.726   3.493 -0.3630  0.0622 -0.5128
 7731TIP3   OH244683   3.421   6.073   3.319  0.1837  0.1185  0.0905
 7731TIP3    H144684   3.434   6.157   3.274 -0.0895  0.3566  0.4495
 7731TIP3    H244685   3.352   6.030   3.269  0.4632  0.0146 -0.2152
 7732TIP3   OH244686   5.898   0.168  15.358 -0.5287  0.0167  0.2479
 7732TIP3    H144687   5.963   0.101  15.382  0.0587  0.1483 -0.8561
 7732TIP3    H244688   5.937   0.211  15.281 -1.2968  1.0485  0.4194
 7733TIP3   OH244689   5.115   1.670  14.890 -0.3141 -0.0189 -0.3493
 7733TIP3    H144690   5.070   1.589  14.868 -0.4329 -0.4576  1.3137
 7733TIP3    H244691   5.068   1.704  14.966  0.0205  1.3811 -0.7330
 7734TIP3   OH244692   3.058   4.895   0.637 -0.0258 -0.2892 -0.6355
 7734TIP3    H144693   3.036   4.929   0.550  1.3687 -2.3582 -1.8846
 7734TIP3    H244694   3.078   4.803   0.622 -2.2403 -1.4133  2.3297
 7735TIP3   OH244695   1.872   6.193  14.054 -0.5603  0.2831 -0.3940
 7735TIP3    H144696   1.799   6.131  14.049  1.4686 -2.3238  0.0914
 7735TIP3    H244697   1.870   6.224  14.144 -1.7240  1.1367 -0.6949
 7736TIP3   OH244698   2.060   5.157   3.956 -0.4069  0.1424 -1.0981
 7736TIP3    H144699   2.075   5.249   3.979 -0.7759  0.1422 -0.8474
 7736TIP3    H244700   2.034   5.116   4.038 -1.2797  0.0396 -1.4124
 7737TIP3   OH244701   2.176   2.369  15.829  0.5244 -0.0078  0.3915
 7737TIP3    H144702   2.135   2.408  15.752 -1.1438  0.0444  1.2615
 7737TIP3    H244703   2.269   2.365  15.807  0.4238  2.1839 -0.6962
 7738TIP3   OH244704   4.699   6.307   0.579  0.2608 -0.2646 -0.2497
 7738TIP3    H144705   4.640   6.365   0.531 -0.3711 -0.3865  0.3658
 7738TIP3    H244706   4.675   6.319   0.670  1.7191  0.2723  0.0915
 7739TIP3   OH244707   2.551   1.281  11.492 -0.1862 -0.2510 -0.2577
 7739TIP3    H144708   2.461   1.292  11.461 -0.9385 -2.3577  1.0410
 7739TIP3    H244709   2.557   1.339  11.568 -0.9014 -1.0685  0.4490
 7740TIP3   OH244710   5.857   4.911   4.168 -0.6184 -0.3081  0.0006
 7740TIP3    H144711   5.891   4.929   4.080 -0.9508  1.0171  0.1075
 7740TIP3    H244712   5.922   4.949   4.227 -1.6591  1.2130  0.2299
 7741TIP3   OH244713   6.446   5.552  16.409 -0.8296 -0.3460  0.3353
 7741TIP3    H144714   6.414   5.602  16.483 -2.3307  1.4446 -1.4007
 7741TIP3    H244715   6.385   5.479  16.400 -0.8971 -0.3195  0.5843
 7742TIP3   OH244716   0.001   0.669  17.222 -0.0045 -0.3778 -0.1539
 7742TIP3    H144717  -0.073   0.730  17.228  0.1760 -0.2682  1.3864
 7742TIP3    H244718   0.078   0.725  17.229  0.2112 -0.6071 -0.6423
 7743TIP3   OH244719   3.765   0.138  13.417  0.2504 -0.1388  0.3410
 7743TIP3    H144720   3.848   0.090  13.424 -0.1236 -0.6274  1.8617
 7743TIP3    H244721   3.734   0.120  13.328  0.4623 -2.1689  0.6382
 7744TIP3   OH244722   0.508   2.003   4.581 -0.1907 -0.1904  0.1014
 7744TIP3    H144723   0.493   2.093   4.609  0.7507  0.3426 -1.0044
 7744TIP3    H244724   0.598   1.984   4.606  0.4460  0.0635 -1.8280
 7745TIP3   OH244725   4.984   6.258  12.722 -0.6364 -0.3700  0.3035
 7745TIP3    H144726   4.980   6.168  12.753  0.1773 -0.6344 -0.3157
 7745TIP3    H244727   4.912   6.265  12.659 -1.7998 -0.0552  1.6236
 7746TIP3   OH244728   0.859   6.438   6.438  0.5972 -0.5681  0.3851
 7746TIP3    H144729   0.873   6.528   6.468  2.4089 -0.8067  0.3694
 7746TIP3    H244730   0.795   6.402   6.499 -0.6817  0.9189 -0.0250
 7747TIP3   OH244731   0.162   4.225  15.272 -0.2564  0.3214 -0.4940
 7747TIP3    H144732   0.086   4.189  15.227 -0.0215 -3.5233  1.6952
 7747TIP3    H244733   0.235   4.211  15.212 -0.4829 -1.3668 -0.4250
 7748TIP3   OH244734   5.347   5.266  16.298  0.6158  0.3767  0.3047
 7748TIP3    H144735   5.336   5.317  16.378 -0.6634 -1.9348  1.6890
 7748TIP3    H244736   5.428   5.218  16.312 -1.4481 -2.9185  2.0434
 7749TIP3   OH244737   4.670   3.026   3.955 -0.0709 -0.0831  0.2364
 7749TIP3    H144738   4.705   3.099   3.904  0.1425  0.8507  1.6680
 7749TIP3    H244739   4.602   3.066   4.010  0.1549 -0.9263  1.1548
 7750TIP3   OH244740   1.638   2.183  11.464  0.2761  0.0594 -0.4013
 7750TIP3    H144741   1.711   2.220  11.414  0.9413 -0.8852 -0.1354
 7750TIP3    H244742   1.670   2.100  11.497 -1.2010 -0.7816 -0.9859
 7751TIP3   OH244743   5.698   4.687   3.228  0.2657  0.5554 -0.3743
 7751TIP3    H144744   5.673   4.595   3.239 -1.1293  1.1815  2.3404
 7751TIP3    H244745   5.788   4.683   3.196  1.2532 -1.8155  2.3084
 7752TIP3   OH244746   0.642   2.032  11.370  0.8321 -0.2161 -0.4342
 7752TIP3    H144747   0.615   2.033  11.462  0.9139 -0.1691 -0.4103
 7752TIP3    H244748   0.577   1.977  11.326  0.2384  0.5558 -0.5200
 7753TIP3   OH244749   5.929   3.114  15.972  0.2603 -0.2932  0.1840
 7753TIP3    H144750   5.991   3.172  15.927  0.0620  0.0069  0.2911
 7753TIP3    H244751   5.963   3.026  15.958  1.0220 -0.0945  0.7154
 7754TIP3   OH244752   0.679   0.250  14.221  0.1594  0.1137 -0.1986
 7754TIP3    H144753   0.640   0.169  14.254  1.8189 -0.6298  0.0412
 7754TIP3    H244754   0.695   0.302  14.299  1.1916 -0.3148 -0.1098
 7755TIP3   OH244755   6.602   2.412  16.652  0.0757 -0.2755 -0.1421
 7755TIP3    H144756   6.649   2.405  16.569 -0.0682 -0.6587 -0.1924
 7755TIP3    H244757   6.664   2.383  16.718 -0.0164 -0.5703 -0.1845
 7756TIP3   OH244758   0.017   1.144   0.668 -0.3503  0.5905  0.1470
 7756TIP3    H144759   0.111   1.150   0.685 -0.8627  0.8511  3.7948
 7756TIP3    H244760   0.005   1.060   0.623  1.3730 -1.6426  3.3973
 7757TIP3   OH244761   1.603   5.474   3.824 -0.5257  0.6102 -0.4193
 7757TIP3    H144762   1.696   5.466   3.847 -1.1114 -0.7845  1.7957
 7757TIP3    H244763   1.581   5.390   3.784 -0.7130  1.2132 -1.6502
 7758TIP3   OH244764   1.023   4.837   4.049 -0.5733  0.6068 -0.3817
 7758TIP3    H144765   1.016   4.776   4.123 -1.2381  0.9161 -0.1775
 7758TIP3    H244766   1.037   4.781   3.973 -0.0574  0.2739 -0.0435
 7759TIP3   OH244767   5.879   2.686  12.203 -0.2058  0.2279  0.5133
 7759TIP3    H144768   5.876   2.607  12.258 -0.8933  0.2399  0.5140
 7759TIP3    H244769   5.802   2.736  12.231  0.1551  0.8403  0.4237
 7760TIP3   OH244770   6.526   1.276  13.520 -0.3894  0.5210 -0.2190
 7760TIP3    H144771   6.608   1.280  13.470  0.3908 -0.5390  0.9219
 7760TIP3    H244772   6.476   1.206  13.479  0.2996 -0.4265  0.5226
 7761TIP3   OH244773   2.372   4.831   2.042 -0.2050  0.4393  0.6808
 7761TIP3    H144774   2.366   4.868   2.129 -1.0343  1.3006  0.2731
 7761TIP3    H244775   2.283   4.835   2.007 -0.0185 -0.5036  0.0379
 7762TIP3   OH244776   2.450   0.824   5.058  0.2408 -0.1832 -0.0963
 7762TIP3    H144777   2.418   0.741   5.022 -1.1665 -1.0036  2.7235
 7762TIP3    H244778   2.390   0.890   5.024 -0.9374 -0.8893  0.5583
 7763TIP3   OH244779   0.974   3.260  16.113 -0.0636  0.3084  0.1900
 7763TIP3    H144780   0.949   3.176  16.153 -1.7425  0.5783 -0.2249
 7763TIP3    H244781   0.999   3.237  16.023 -0.8430  0.2829 -0.0260
 7764TIP3   OH244782   3.698   0.855   2.102 -0.1721 -0.2823  0.7038
 7764TIP3    H144783   3.734   0.766   2.091  1.8386  0.6236 -0.8815
 7764TIP3    H244784   3.724   0.880   2.190 -1.1101 -1.3881  1.3216
 7765TIP3   OH244785   1.321   6.728  11.919  0.6385  0.5715 -0.4598
 7765TIP3    H144786   1.359   6.737  12.006  1.8184  0.7539 -0.9741
 7765TIP3    H244787   1.250   6.791  11.917  1.1314  1.1587  0.0864
 7766TIP3   OH244788   2.269   0.724  10.979 -0.1900  0.1498  0.7606
 7766TIP3    H144789   2.350   0.736  11.028  0.1788  1.6711 -0.1661
 7766TIP3    H244790   2.214   0.670  11.036  0.6678  0.8673  2.3282
 7767TIP3   OH244791   1.238   4.795  14.493 -0.7629 -0.0392  0.5543
 7767TIP3    H144792   1.212   4.837  14.411 -2.8673  0.8174  1.5700
 7767TIP3    H244793   1.236   4.702  14.474 -0.5376  0.1662 -0.5528
 7768TIP3   OH244794   5.685   4.140  14.336  0.0435 -0.0156 -0.0365
 7768TIP3    H144795   5.646   4.076  14.276  1.3704 -0.6212 -0.2829
 7768TIP3    H244796   5.728   4.203  14.279  0.4223 -0.0117  0.2500
 7769TIP3   OH244797   0.623   0.152   0.300  0.3728  0.3334 -0.1910
 7769TIP3    H144798   0.670   0.081   0.344  1.6389  2.2270  1.6385
 7769TIP3    H244799   0.530   0.131   0.314  0.7216 -0.8259  0.5033
 7770TIP3   OH244800   2.142   2.676  13.798  0.0475  0.6504  0.6396
 7770TIP3    H144801   2.102   2.589  13.795  1.8436 -0.1863 -0.0718
 7770TIP3    H244802   2.085   2.730  13.743  0.8657 -0.9782 -2.0204
 7771TIP3   OH244803   0.199   5.550   4.727 -0.4859  0.1989  0.2759
 7771TIP3    H144804   0.282   5.549   4.679 -1.5362  1.9643 -1.6853
 7771TIP3    H244805   0.222   5.586   4.813  0.8984 -0.1648  0.0880
 7772TIP3   OH244806   5.530   1.345   5.623  0.0206 -0.0376  0.0334
 7772TIP3    H144807   5.607   1.376   5.576  0.2231  1.5075  1.3241
 7772TIP3    H244808   5.561   1.268   5.671  0.4877 -0.0421 -0.2724
 7773TIP3   OH244809   5.626   2.667  14.336  0.2979 -0.2410 -0.3348
 7773TIP3    H144810   5.591   2.731  14.399  1.4416 -0.9707  1.1023
 7773TIP3    H244811   5.675   2.605  14.390  0.0793 -1.7670 -1.8030
 7774TIP3   OH244812   6.103   6.021  12.907  0.3602 -0.0856 -0.2931
 7774TIP3    H144813   6.140   5.935  12.926 -0.7285 -0.7182 -0.9162
 7774TIP3    H244814   6.116   6.033  12.813  0.7730  0.5697 -0.1578
 7775TIP3   OH244815   3.350   0.831   3.500 -0.1890 -0.2626 -0.2515
 7775TIP3    H144816   3.319   0.844   3.590 -1.2946 -1.0810 -0.4943
 7775TIP3    H244817   3.400   0.750   3.503 -0.4170 -0.4091 -0.4241
 7776TIP3   OH244818   4.376   5.839   6.273 -0.1884 -0.0183 -0.2216
 7776TIP3    H144819   4.317   5.826   6.348 -0.2094 -3.0701 -0.6154
 7776TIP3    H244820   4.445   5.773   6.286  1.6044  1.5618 -1.2483
 7777TIP3   OH244821   3.788   5.156   5.104 -0.0964  0.1884 -0.0314
 7777TIP3    H144822   3.703   5.186   5.073 -1.7963 -1.9908  2.0902
 7777TIP3    H244823   3.837   5.236   5.124 -0.8672  1.5169 -3.0323
 7778TIP3   OH244824   3.814   4.602   3.088  0.2437 -0.3720 -0.1275
 7778TIP3    H144825   3.747   4.662   3.055  2.4701  0.8895 -2.7934
 7778TIP3    H244826   3.816   4.618   3.182 -0.3126  2.6626 -0.5350
 7779TIP3   OH244827   2.057   0.630  13.337 -0.3151  0.2164  0.3933
 7779TIP3    H144828   2.124   0.675  13.287 -1.2602  2.1491  0.7677
 7779TIP3    H244829   2.031   0.692  13.405 -3.3008  0.0570 -0.4673
 7780TIP3   OH244830   3.561   4.006  16.213  0.1999  0.1418  0.5646
 7780TIP3    H144831   3.495   3.985  16.278  0.2817  0.2617  0.6863
 7780TIP3    H244832   3.622   3.931  16.216 -0.9303 -0.9019 -0.8676
 7781TIP3   OH244833   2.417   2.911   2.834 -0.0470  0.5970  0.2430
 7781TIP3    H144834   2.333   2.890   2.876  0.0850  0.9339  0.6817
 7781TIP3    H244835   2.460   2.970   2.895  0.7226  0.0562  0.2404
 7782TIP3   OH244836   2.076   6.406   5.864 -0.1561 -0.2577  0.5772
 7782TIP3    H144837   2.049   6.462   5.936  1.4529 -1.3382  2.1150
 7782TIP3    H244838   1.995   6.366   5.832 -0.8784  0.0129  2.0029
 7783TIP3   OH244839   1.177   6.217   0.446 -0.1853 -0.2009  0.1412
 7783TIP3    H144840   1.210   6.216   0.535 -1.6298  1.7065  0.7565
 7783TIP3    H244841   1.221   6.143   0.403  1.7618 -0.1672  1.9455
 7784TIP3   OH244842   6.254   2.354   6.014 -0.4295 -0.5341  0.6508
 7784TIP3    H144843   6.249   2.448   6.030 -1.3722 -0.3100 -0.8248
 7784TIP3    H244844   6.187   2.336   5.948  2.8115 -1.3582 -2.8593
 7785TIP3   OH244845   3.096   0.469   3.121 -0.0075 -0.4136  0.2642
 7785TIP3    H144846   3.046   0.436   3.195  1.3903 -2.0472  0.5433
 7785TIP3    H244847   3.172   0.512   3.160  0.5234 -0.9075 -0.2092
 7786TIP3   OH244848   5.816   5.385   3.398 -0.1833  0.6681 -0.0015
 7786TIP3    H144849   5.798   5.294   3.373 -1.2491  1.1350 -1.0052
 7786TIP3    H244850   5.772   5.438   3.331  1.1366  1.9270  0.0881
 7787TIP3   OH244851   1.512   6.381   3.707  0.5698  0.8691 -0.0549
 7787TIP3    H144852   1.536   6.376   3.615 -1.3966 -0.3677 -0.5793
 7787TIP3    H244853   1.425   6.420   3.707 -0.2895 -0.8819  1.0468
 7788TIP3   OH244854   2.205   5.527   1.280 -0.0155 -0.4208  0.7240
 7788TIP3    H144855   2.290   5.487   1.296  0.1363 -0.7371 -0.7096
 7788TIP3    H244856   2.166   5.473   1.210 -0.7140  0.6521  0.2578
 7789TIP3   OH244857   2.210   2.882  14.242  0.2354 -0.2240  0.2911
 7789TIP3    H144858   2.220   2.877  14.147  2.5880 -1.3972  0.5108
 7789TIP3    H244859   2.205   2.976  14.260  1.4841  0.1139 -0.8925
 7790TIP3   OH244860   3.353   5.613   1.240  0.2996  0.3626 -0.5248
 7790TIP3    H144861   3.267   5.573   1.251  0.5659 -0.2088 -0.4782
 7790TIP3    H244862   3.340   5.706   1.262 -0.1766  0.1652  0.0448
 7791TIP3   OH244863   3.114   6.014   5.721  0.2332 -0.0883  0.8625
 7791TIP3    H144864   3.184   6.033   5.658 -1.0450  0.0342 -0.5993
 7791TIP3    H244865   3.037   6.056   5.683 -1.0528 -1.8509  1.4205
 7792TIP3   OH244866   3.491   5.729  12.594  1.1377 -0.3217 -0.4381
 7792TIP3    H144867   3.464   5.671  12.524  0.6404 -1.0718  0.3543
 7792TIP3    H244868   3.541   5.674  12.654  0.4893  0.0089  0.4285
 7793TIP3   OH244869   3.736   6.808   1.845 -0.6323 -0.1268  0.2371
 7793TIP3    H144870   3.759   6.829   1.754  3.7339 -1.0641  0.8706
 7793TIP3    H244871   3.670   6.740   1.839 -0.5929 -0.0189 -2.2172
 7794TIP3   OH244872   4.810   2.447  17.234 -0.2425 -0.7035 -0.6326
 7794TIP3    H144873   4.864   2.369  17.234 -0.6617 -1.0148  0.4916
 7794TIP3    H244874   4.753   2.437  17.158  0.2367 -1.1066 -0.9426
 7795TIP3   OH244875   4.444   6.103  13.702 -0.3318 -0.6612  0.4139
 7795TIP3    H144876   4.530   6.075  13.670  0.6737  0.5244  1.9110
 7795TIP3    H244877   4.412   6.030  13.755  1.1061 -0.0732  2.2010
 7796TIP3   OH244878   2.172   3.956  14.296 -0.1959 -0.5147 -0.2692
 7796TIP3    H144879   2.161   4.043  14.259  2.0447  0.4261  1.0799
 7796TIP3    H244880   2.146   3.965  14.387  1.1977 -0.9146  0.1915
 7797TIP3   OH244881   3.629   0.807  16.427 -0.0506 -0.6411 -0.2089
 7797TIP3    H144882   3.639   0.898  16.456 -0.0210 -0.2700 -1.3685
 7797TIP3    H244883   3.607   0.813  16.334 -2.1252 -1.7343  0.1347
 7798TIP3   OH244884   6.382   5.237   4.303 -0.0093 -0.2042  0.1547
 7798TIP3    H144885   6.395   5.150   4.265 -1.5353 -0.1452 -0.5814
 7798TIP3    H244886   6.471   5.269   4.321  0.5714 -1.9827  0.6514
 7799TIP3   OH244887   1.911   1.863  17.173 -0.1182  0.0591  0.0856
 7799TIP3    H144888   1.917   1.781  17.125  1.1041  0.3201 -0.2314
 7799TIP3    H244889   1.966   1.924  17.124 -2.8279  1.7892 -1.0802
 7800TIP3   OH244890   3.588   5.525  16.139  0.0808 -0.1627  0.0079
 7800TIP3    H144891   3.567   5.559  16.226  1.3329  1.8656 -0.4159
 7800TIP3    H244892   3.547   5.438  16.137 -0.2047 -0.1727  2.5090
 7801TIP3   OH244893   6.431   0.956  16.895  0.1659  0.1760  0.3938
 7801TIP3    H144894   6.366   0.906  16.945 -0.3589  2.0138  1.6666
 7801TIP3    H244895   6.381   1.001  16.827  0.1219  1.2809  1.1265
 7802TIP3   OH244896   6.788   1.626   2.964 -0.0240 -0.1770 -0.4903
 7802TIP3    H144897   6.743   1.553   2.921 -0.5587  0.5364 -1.1742
 7802TIP3    H244898   6.818   1.590   3.047  0.0166 -1.2686 -0.9621
 7803TIP3   OH244899   5.681   1.228  16.248  0.7998 -0.1949  0.3413
 7803TIP3    H144900   5.599   1.277  16.243 -0.6670 -2.5762 -2.7251
 7803TIP3    H244901   5.695   1.213  16.341 -2.1840  0.5027  1.0089
 7804TIP3   OH244902   5.751   5.090   2.107  0.1328  0.3470 -0.2394
 7804TIP3    H144903   5.793   5.168   2.145 -0.2588  0.3153  0.2660
 7804TIP3    H244904   5.819   5.023   2.110 -0.4386 -0.2403  2.2765
 7805TIP3   OH244905   2.386   1.801   2.539  0.2600 -0.2822  0.3234
 7805TIP3    H144906   2.449   1.743   2.583 -0.6574 -1.3682  0.2294
 7805TIP3    H244907   2.399   1.784   2.446 -0.7467 -1.1442  0.3275
 7806TIP3   OH244908   5.058   3.376   1.602  0.0709 -0.2222  0.1491
 7806TIP3    H144909   4.996   3.392   1.673 -0.1439 -1.6228  0.2927
 7806TIP3    H244910   5.123   3.446   1.611  0.8862 -1.2181  2.6557
 7807TIP3   OH244911   2.306   1.111   0.268 -0.0785  0.0045  0.3906
 7807TIP3    H144912   2.306   1.091   0.175  1.8793  2.6263 -0.3074
 7807TIP3    H244913   2.235   1.174   0.280 -3.0098 -3.2108  1.6106
 7808TIP3   OH244914   3.923   5.786  11.155 -0.0297  0.2525  0.2873
 7808TIP3    H144915   3.844   5.809  11.106 -1.2403 -0.5070  1.7807
 7808TIP3    H244916   3.890   5.735  11.229  1.5743  2.0716  2.3844
 7809TIP3   OH244917   5.360   1.155  11.580  0.1960 -0.0636 -0.5447
 7809TIP3    H144918   5.312   1.238  11.586  0.8514  0.3239 -0.6137
 7809TIP3    H244919   5.416   1.165  11.504 -0.5724 -1.0323 -1.2678
 7810TIP3   OH244920   1.206   3.357   6.655  0.5333  0.4175 -0.1820
 7810TIP3    H144921   1.253   3.283   6.618  0.7976 -0.9803  2.6617
 7810TIP3    H244922   1.275   3.418   6.683  0.5409 -0.1040  0.9904
 7811TIP3   OH244923   4.936   6.261  12.030 -0.0306 -0.4153 -0.4852
 7811TIP3    H144924   4.998   6.296  11.966  0.8566  0.4659  0.8146
 7811TIP3    H244925   4.911   6.337  12.083  0.4880 -1.3793  1.2236
 7812TIP3   OH244926   2.035   5.369   2.640  0.0149  0.3163 -0.4245
 7812TIP3    H144927   2.117   5.337   2.678 -0.9050 -1.4225  0.1739
 7812TIP3    H244928   1.991   5.413   2.713  0.2625  1.0182 -0.6818
 7813TIP3   OH244929   2.399   3.517   2.510 -0.1372  0.4969 -0.3003
 7813TIP3    H144930   2.362   3.434   2.537  0.5396 -0.5225 -2.2576
 7813TIP3    H244931   2.328   3.562   2.465  0.4259 -0.7817 -2.6685
 7814TIP3   OH244932   5.461   2.782   5.294  0.4674 -0.6427 -0.1114
 7814TIP3    H144933   5.367   2.772   5.282  0.4530  0.9441 -1.6105
 7814TIP3    H244934   5.490   2.696   5.327 -1.2571 -1.6657 -1.1118
 7815TIP3   OH244935   5.386   1.911  11.519  0.2873 -0.4830 -0.5040
 7815TIP3    H144936   5.439   1.962  11.580 -1.4345 -0.3777  0.9966
 7815TIP3    H244937   5.416   1.821  11.531 -0.4674 -0.5669  1.0651
 7816TIP3   OH244938   0.172   4.478   5.096  0.3684 -0.2069 -0.1968
 7816TIP3    H144939   0.170   4.383   5.084  1.3180 -0.1830 -0.6728
 7816TIP3    H244940   0.160   4.490   5.190 -0.0701 -0.7745 -0.1688
 7817TIP3   OH244941   0.349   4.088  14.420 -0.0863  0.3032  0.2873
 7817TIP3    H144942   0.332   4.182  14.409  1.0499  0.7032  1.7435
 7817TIP3    H244943   0.444   4.079  14.413 -0.0172 -0.4772  1.7917
 7818TIP3   OH244944   4.175   5.705  16.946 -0.1640 -0.1893  0.0524
 7818TIP3    H144945   4.082   5.712  16.967  0.0862  3.4609  0.6666
 7818TIP3    H244946   4.180   5.733  16.855  0.3980  0.9193  0.4047
 7819TIP3   OH244947   1.691   6.306  16.061 -0.3977 -0.2100  0.4180
 7819TIP3    H144948   1.643   6.376  16.103 -1.1286 -0.7831  0.5523
 7819TIP3    H244949   1.732   6.347  15.985 -1.1549  0.2720  0.2631
 7820TIP3   OH244950   5.420   2.821  17.123  0.2411  0.1071  0.0989
 7820TIP3    H144951   5.347   2.810  17.183 -0.6721 -0.0994 -1.0259
 7820TIP3    H244952   5.418   2.914  17.099  0.6657  0.2113  0.4512
 7821TIP3   OH244953   1.562   4.178   3.281 -0.0499 -0.0816  0.5694
 7821TIP3    H144954   1.564   4.259   3.231 -1.3727 -1.8974 -2.7112
 7821TIP3    H244955   1.651   4.166   3.312  0.1595  2.6014  1.2571
 7822TIP3   OH244956   0.416   5.802  11.777 -0.2683  0.1498 -0.0498
 7822TIP3    H144957   0.398   5.895  11.796  0.5040  0.0878  1.0901
 7822TIP3    H244958   0.453   5.768  11.859 -2.0932 -1.5952  0.1037
 7823TIP3   OH244959   5.880   0.531  17.313 -0.2829  0.0507 -0.0483
 7823TIP3    H144960   5.916   0.462  17.368 -1.1140 -0.0625  0.3736
 7823TIP3    H244961   5.898   0.612  17.361 -0.2547  0.0297 -0.0232
 7824TIP3   OH244962   1.331   2.715   2.411 -0.7789 -0.2649  0.4311
 7824TIP3    H144963   1.357   2.752   2.495  2.1542 -1.0449 -0.0322
 7824TIP3    H244964   1.259   2.656   2.432 -1.6057  1.1959  2.0048
 7825TIP3   OH244965   5.691   1.468  12.057 -0.1985 -0.3160  0.1409
 7825TIP3    H144966   5.602   1.436  12.075  1.2210 -3.5155  2.3723
 7825TIP3    H244967   5.733   1.395  12.011  1.6065  0.7018  0.1075
 7826TIP3   OH244968   3.166   4.537  16.116 -0.4912  0.0133 -0.4635
 7826TIP3    H144969   3.177   4.553  16.022  1.6276 -1.9569 -0.6462
 7826TIP3    H244970   3.250   4.499  16.143 -1.5559 -0.7811  1.9366
 7827TIP3   OH244971   0.122   1.143   5.354  0.4347  0.2485 -0.0674
 7827TIP3    H144972   0.192   1.078   5.347 -0.0797 -0.1352 -2.3765
 7827TIP3    H244973   0.144   1.209   5.288 -0.2558  1.2554  0.6735
 7828TIP3   OH244974   6.432   2.984  16.802 -0.0121  0.2617  0.2201
 7828TIP3    H144975   6.447   2.894  16.831  0.8803  0.8096  1.5383
 7828TIP3    H244976   6.440   3.037  16.881 -0.3732  1.5283 -0.5594
 7829TIP3   OH244977   3.081   1.256   4.270  0.4526 -0.2962 -0.2448
 7829TIP3    H144978   3.059   1.313   4.343 -0.4901  0.0611 -0.7958
 7829TIP3    H244979   3.135   1.187   4.309 -0.0099 -0.0975  0.7768
 7830TIP3   OH244980   0.463   2.304   2.115  0.6462 -0.6320 -0.4723
 7830TIP3    H144981   0.473   2.296   2.020  1.9259 -1.3097 -0.3047
 7830TIP3    H244982   0.432   2.219   2.144  0.9032 -0.6404 -0.2154
 7831TIP3   OH244983   4.191   6.754  12.063 -0.6456  0.0100  0.1506
 7831TIP3    H144984   4.169   6.826  12.004 -0.7570 -2.1359 -2.6490
 7831TIP3    H244985   4.249   6.793  12.129 -2.7227  3.1193  0.2992
 7832TIP3   OH244986   4.540   0.082  13.747  0.1757  0.5469  0.2317
 7832TIP3    H144987   4.450   0.056  13.764  0.3799  0.2727  0.9446
 7832TIP3    H244988   4.544   0.174  13.771  0.5105  0.1146  1.9540
 7833TIP3   OH244989   5.284   4.608  15.135 -0.7800 -0.2665 -0.2034
 7833TIP3    H144990   5.201   4.590  15.179 -0.5288  0.3250  0.5335
 7833TIP3    H244991   5.339   4.533  15.157 -0.1511  0.7138  1.8070
 7834TIP3   OH244992   1.418   2.207  14.293  0.2008  0.0912 -0.1674
 7834TIP3    H144993   1.449   2.290  14.330  1.2918  0.2902 -1.4653
 7834TIP3    H244994   1.327   2.201  14.323  0.6520  0.8229  1.4861
 7835TIP3   OH244995   1.164   6.736   2.360 -0.0933  0.2998 -0.0971
 7835TIP3    H144996   1.184   6.723   2.452 -1.1140 -0.4447  0.0316
 7835TIP3    H244997   1.221   6.676   2.314  1.0007  1.2463 -0.0228
 7836TIP3   OH244998   5.615   3.815  15.049  0.6320  0.0623  0.5836
 7836TIP3    H144999   5.665   3.882  15.095  1.1690 -0.1973  0.4006
 7836TIP3    H245000   5.637   3.734  15.095 -0.4991  0.0894  1.1967
 7837TIP3   OH245001   5.901   4.445   0.921 -0.2993  0.8610  0.4774
 7837TIP3    H145002   5.813   4.409   0.930 -0.5505  1.4592  0.4213
 7837TIP3    H245003   5.952   4.375   0.879 -1.0648  1.0030 -0.7136
 7838TIP3   OH245004   6.247   3.190   2.614 -0.0412 -0.5600 -0.9055
 7838TIP3    H145005   6.293   3.165   2.533  0.6756  2.4254 -1.5165
 7838TIP3    H245006   6.157   3.163   2.599  0.2430 -0.8275 -2.3515
 7839TIP3   OH245007   4.139   1.554   4.980  0.2756  0.3671  0.4873
 7839TIP3    H145008   4.050   1.530   4.956  0.3046  2.4345 -2.0932
 7839TIP3    H245009   4.128   1.611   5.056 -0.3196 -1.4551  1.8485
 7840TIP3   OH245010   2.056   1.006   5.873 -0.4202  0.2457  0.0938
 7840TIP3    H145011   2.056   0.949   5.951 -1.0441  1.1393  0.7657
 7840TIP3    H245012   2.016   1.087   5.903  4.5546  2.9258  0.5372
 7841TIP3   OH245013   1.786   0.308  14.645 -0.4834  0.5780  0.5305
 7841TIP3    H145014   1.778   0.244  14.716 -1.0857 -0.7381 -0.6550
 7841TIP3    H245015   1.870   0.288  14.605 -1.2632 -0.4605 -0.6952
 7842TIP3   OH245016   3.024   4.948   5.539 -0.1836 -0.2574  0.2021
 7842TIP3    H145017   2.944   4.992   5.511  1.1294  1.1186 -1.7175
 7842TIP3    H245018   3.071   5.015   5.590  1.5486  0.5281 -2.2089
 7843TIP3   OH245019   4.152   5.873  13.941  0.0026  0.1828 -0.1304
 7843TIP3    H145020   4.140   5.800  13.880 -1.8424 -0.4193  0.8820
 7843TIP3    H245021   4.086   5.859  14.009 -0.5514  2.9115  0.0181
 7844TIP3   OH245022   6.005   3.712  13.069  0.0364  0.2243  0.0425
 7844TIP3    H145023   5.980   3.763  13.146 -1.4823 -0.1452 -0.1613
 7844TIP3    H245024   6.071   3.651  13.101 -0.8032 -0.1368  1.1476
 7845TIP3   OH245025   0.456   1.398   3.893  0.3011 -0.0022 -0.4573
 7845TIP3    H145026   0.426   1.346   3.968  1.5744  1.3324  1.0449
 7845TIP3    H245027   0.507   1.337   3.840 -1.4430 -1.2199 -0.8314
 7846TIP3   OH245028   2.711   1.975  17.064 -0.0929  0.4603  0.4761
 7846TIP3    H145029   2.772   1.924  17.118 -0.8527 -2.2975 -1.0855
 7846TIP3    H245030   2.767   2.031  17.010  1.1046 -1.6263 -0.5499
 7847TIP3   OH245031   5.873   2.506  13.538 -0.1185 -0.0287 -0.5010
 7847TIP3    H145032   5.965   2.504  13.511  0.4890 -0.5483  1.4480
 7847TIP3    H245033   5.853   2.416  13.559 -0.6509  0.2973  0.4137
 7848TIP3   OH245034   0.286   6.256   3.708  0.4260 -0.6660  0.1832
 7848TIP3    H145035   0.280   6.320   3.780 -0.5661 -2.0369  1.3865
 7848TIP3    H245036   0.260   6.173   3.748  1.0561 -1.7209 -1.4907
 7849TIP3   OH245037   0.080   5.107  14.089  0.0875 -0.0924 -0.6927
 7849TIP3    H145038  -0.015   5.121  14.078  0.4162  0.5400 -3.1687
 7849TIP3    H245039   0.118   5.193  14.071  1.1551 -0.2838  0.5365
 7850TIP3   OH245040   5.082   0.740  15.330 -0.5315 -0.3951 -0.3628
 7850TIP3    H145041   5.162   0.791  15.343 -2.1056  1.6122  2.5191
 7850TIP3    H245042   5.103   0.654  15.366  0.3398  0.1570  0.5171
 7851TIP3   OH245043   6.381   4.311   1.672  0.5210 -0.6479 -0.6150
 7851TIP3    H145044   6.345   4.224   1.692 -2.4847  0.3438 -1.2314
 7851TIP3    H245045   6.374   4.318   1.577 -1.6010  1.1292 -0.3936
 7852TIP3   OH245046   6.225   1.097  14.262  0.0272  0.0874  0.2570
 7852TIP3    H145047   6.133   1.116  14.241  0.5360  2.4985 -0.0635
 7852TIP3    H245048   6.232   1.115  14.356  0.3816  0.9842  0.0711
 7853TIP3   OH245049   3.724   4.791   3.537 -0.2270  0.0100  0.2614
 7853TIP3    H145050   3.815   4.791   3.508 -0.7360  0.7831 -1.4649
 7853TIP3    H245051   3.707   4.881   3.565 -0.7157  0.0979 -0.3053
 7854TIP3   OH245052   2.883   1.605  11.600 -0.4332  0.6842 -0.1877
 7854TIP3    H145053   2.838   1.652  11.671  0.3815  1.2512 -0.0355
 7854TIP3    H245054   2.976   1.609  11.623 -0.3597 -1.5044  0.1138
 7855TIP3   OH245055   4.937   1.857  16.987  0.4433 -0.3686  0.0100
 7855TIP3    H145056   4.921   1.781  17.043 -1.6340 -0.4288 -0.5842
 7855TIP3    H245057   4.949   1.820  16.899  0.4678 -0.0730 -0.1125
 7856TIP3   OH245058   3.918   2.811   5.826  0.5370 -0.4900  0.8501
 7856TIP3    H145059   3.957   2.896   5.846 -0.4660  0.4298 -0.9016
 7856TIP3    H245060   3.957   2.786   5.743 -1.2141 -0.4055 -0.0235
 7857TIP3   OH245061   5.811   1.004   0.530  0.2092  0.5952 -0.0736
 7857TIP3    H145062   5.758   1.084   0.533  0.4160  0.8640 -2.0851
 7857TIP3    H245063   5.883   1.026   0.471  0.4523 -0.9622 -0.3940
 7858TIP3   OH245064   2.801   0.398   3.614 -0.2134  0.1068  0.4747
 7858TIP3    H145065   2.834   0.339   3.682  0.1822 -0.3794 -0.1382
 7858TIP3    H245066   2.861   0.473   3.616 -0.0872  0.0043  0.5313
 7859TIP3   OH245067   0.500   0.280   2.380 -0.1044  0.4092  0.2984
 7859TIP3    H145068   0.550   0.357   2.409 -0.1384  0.7304 -0.4588
 7859TIP3    H245069   0.420   0.316   2.344 -1.2318 -0.1496  2.1256
 7860TIP3   OH245070   2.919   1.118  13.728  0.4343  0.6565  0.8241
 7860TIP3    H145071   2.839   1.066  13.729  0.6776  0.2280 -0.7297
 7860TIP3    H245072   2.972   1.079  13.659  0.7262  2.8159 -0.2305
 7861TIP3   OH245073   3.974   2.067  17.181 -0.8892 -0.3851  0.0493
 7861TIP3    H145074   4.024   2.124  17.123  0.7502 -1.5646  0.2585
 7861TIP3    H245075   4.011   2.082  17.268 -0.3684 -1.8179  0.0918
 7862TIP3   OH245076   5.530   4.416   0.617 -0.0133 -0.5348 -0.4989
 7862TIP3    H145077   5.488   4.412   0.702 -1.2173 -0.8705 -1.0810
 7862TIP3    H245078   5.612   4.463   0.632 -0.6726  0.2862  0.6467
 7863TIP3   OH245079   3.008   1.576   5.899 -0.1736  0.0468 -0.3539
 7863TIP3    H145080   3.059   1.617   5.969 -2.2167  0.3845  1.0397
 7863TIP3    H245081   2.937   1.531   5.945  0.3443 -2.6662 -2.0395
 7864TIP3   OH245082   4.795   2.526  15.165 -0.2032  0.4088 -0.4922
 7864TIP3    H145083   4.771   2.579  15.090 -0.2481 -1.5704 -1.9662
 7864TIP3    H245084   4.717   2.475  15.185  0.5986 -1.0495 -0.8871
 7865TIP3   OH245085   2.679   1.274  14.047 -0.0860  0.1492  0.1151
 7865TIP3    H145086   2.713   1.186  14.064  0.2168 -0.3167 -2.5384
 7865TIP3    H245087   2.605   1.283  14.107 -0.5308 -2.1764 -0.0028
 7866TIP3   OH245088   2.035   1.352   1.969 -0.0176 -1.0021 -0.2863
 7866TIP3    H145089   2.050   1.283   2.034 -1.7612 -0.7430  0.4499
 7866TIP3    H245090   2.094   1.423   1.995  0.7167 -1.6434 -0.1677
 7867TIP3   OH245091   5.604   1.314  16.767 -0.0798 -0.3529 -0.0814
 7867TIP3    H145092   5.537   1.332  16.701  1.6824  1.6622 -1.4959
 7867TIP3    H245093   5.609   1.395  16.818 -0.5291 -1.4420  1.7854
 7868TIP3   OH245094   3.070   4.823  12.529 -0.2483  0.2316  0.5578
 7868TIP3    H145095   3.072   4.866  12.444 -2.4782  0.4311  0.5381
 7868TIP3    H245096   3.047   4.732  12.510  1.2850 -0.2380  0.8306
 7869TIP3   OH245097   1.118   1.676  14.548  0.6681 -0.1031 -0.0624
 7869TIP3    H145098   1.149   1.753  14.501 -0.8493  1.0987  0.8195
 7869TIP3    H245099   1.023   1.681  14.542  0.5270 -1.7165  0.3403
 7870TIP3   OH245100   2.665   3.961  13.773 -0.1818 -0.8178  0.1574
 7870TIP3    H145101   2.604   3.924  13.709 -1.2041 -0.6199  0.9848
 7870TIP3    H245102   2.735   3.998  13.721 -1.5841  0.4419 -0.9287
 7871TIP3   OH245103   3.678   6.133  13.167 -0.5255  0.0491  0.3993
 7871TIP3    H145104   3.590   6.149  13.203 -2.1602 -3.4576 -1.4758
 7871TIP3    H245105   3.680   6.185  13.087 -1.2153 -0.3897  0.0862
 7872TIP3   OH245106   6.040   4.670   5.900 -0.0238  0.1475  0.0050
 7872TIP3    H145107   6.037   4.630   5.987 -0.8478 -0.0111 -0.0885
 7872TIP3    H245108   6.012   4.760   5.914 -1.4446 -0.2308 -0.2785
 7873TIP3   OH245109   3.295   6.486  13.266  0.2827 -0.3031 -0.5449
 7873TIP3    H145110   3.271   6.564  13.215  1.4983 -0.7045 -1.8070
 7873TIP3    H245111   3.353   6.519  13.335  0.6443 -0.0517 -0.9607
 7874TIP3   OH245112   0.808   1.493  16.796 -0.4325  0.2085 -0.6800
 7874TIP3    H145113   0.764   1.556  16.853  1.6681  0.4027  0.8402
 7874TIP3    H245114   0.863   1.547  16.739 -0.5278 -0.1372 -1.1076
 7875TIP3   OH245115   3.963   5.800  14.130 -0.2536 -0.2457  0.5131
 7875TIP3    H145116   4.022   5.757  14.192  0.7102 -0.5857 -0.5917
 7875TIP3    H245117   3.906   5.730  14.099 -1.4510  0.1340  1.7712
 7876TIP3   OH245118   3.703   2.180   2.844  0.3812 -0.5603  0.0489
 7876TIP3    H145119   3.747   2.138   2.770 -0.2261  0.2908 -0.8227
 7876TIP3    H245120   3.762   2.250   2.870  0.8222 -1.1586  0.7095
 7877TIP3   OH245121   6.283   6.229   2.838 -0.0068  0.5072  0.5448
 7877TIP3    H145122   6.349   6.245   2.906  0.0534  0.6837  0.4456
 7877TIP3    H245123   6.300   6.139   2.810 -0.0836  0.4056  0.8204
 7878TIP3   OH245124   4.470   1.266   2.268  0.2670  0.2314  0.2630
 7878TIP3    H145125   4.415   1.249   2.344 -0.0701 -0.0059 -0.0286
 7878TIP3    H245126   4.532   1.193   2.266  1.2793  1.0208  1.1806
 7879TIP3   OH245127   3.574   0.097  14.234 -0.0449 -0.2677  0.3301
 7879TIP3    H145128   3.507   0.154  14.272 -0.3905  0.2144 -0.9377
 7879TIP3    H245129   3.622   0.063  14.309 -0.0434  1.4455  1.1525
 7880TIP3   OH245130   4.570   0.916  13.424 -0.0564  0.5019 -0.2150
 7880TIP3    H145131   4.584   0.918  13.519  2.2185  0.9030 -0.4972
 7880TIP3    H245132   4.476   0.927  13.414 -0.8612 -2.7230  2.0878
 7881TIP3   OH245133   2.087   3.845   3.889 -0.2741 -0.1643  0.3174
 7881TIP3    H145134   2.168   3.835   3.839  0.6619 -1.3410  1.9576
 7881TIP3    H245135   2.113   3.900   3.964 -1.8990  2.5377 -0.9518
 7882TIP3   OH245136   2.550   5.548  12.914 -0.3068  0.3261  0.3730
 7882TIP3    H145137   2.566   5.455  12.896  0.6467  0.7638 -1.3101
 7882TIP3    H245138   2.463   5.550  12.954  0.2700 -1.4049  1.8452
 7883TIP3   OH245139   4.144   0.957  16.497 -0.6820  0.2480 -0.1231
 7883TIP3    H145140   4.177   0.882  16.547 -1.0147  1.6396  2.3390
 7883TIP3    H245141   4.223   1.002  16.468 -0.4768 -0.5449 -0.8186
 7884TIP3   OH245142   2.293   2.251   1.118  0.0938  0.3537  0.2894
 7884TIP3    H145143   2.327   2.194   1.049 -0.0994  1.3547 -0.6568
 7884TIP3    H245144   2.297   2.339   1.081 -0.0953  0.9118  1.5317
 7885TIP3   OH245145   5.837   5.157  16.059  0.4427  0.0401  0.0376
 7885TIP3    H145146   5.766   5.141  15.998  0.1201  0.4403  0.3053
 7885TIP3    H245147   5.903   5.092  16.037 -0.3936 -0.9605  0.3955
 7886TIP3   OH245148   2.760   1.716  16.184 -0.2787 -0.0082 -0.1871
 7886TIP3    H145149   2.797   1.779  16.246 -0.2028 -1.4953  1.3258
 7886TIP3    H245150   2.777   1.755  16.098  0.7058  1.5155  0.6505
 7887TIP3   OH245151   5.594   2.779   1.850  0.0968  1.1653  0.3499
 7887TIP3    H145152   5.683   2.808   1.830 -0.3262  1.3282 -1.3898
 7887TIP3    H245153   5.605   2.691   1.886  0.9625  1.2094  0.2190
 7888TIP3   OH245154   3.285   5.044   3.103  0.4193  0.1124 -0.5301
 7888TIP3    H145155   3.287   5.127   3.150  0.0812  0.9388 -1.9278
 7888TIP3    H245156   3.195   5.035   3.073  0.7595 -0.0516 -1.5603
 7889TIP3   OH245157   6.493   2.157   4.950 -0.1778  0.2776 -0.0895
 7889TIP3    H145158   6.408   2.163   4.994  0.4025  3.2740  0.8042
 7889TIP3    H245159   6.476   2.191   4.862 -0.0458  0.1256 -0.1737
 7890TIP3   OH245160   0.438   1.048   6.621 -0.2865  0.0985  0.7113
 7890TIP3    H145161   0.350   1.057   6.586 -0.6856 -1.6487  1.1909
 7890TIP3    H245162   0.432   1.079   6.712 -0.7114 -1.1676  1.1270
 7891TIP3   OH245163   2.299   4.021  11.885  0.0118  0.3088 -0.8117
 7891TIP3    H145164   2.263   4.060  11.805  1.1220 -1.2132 -2.1132
 7891TIP3    H245165   2.286   4.088  11.952 -3.9559  0.4043 -1.4432
 7892TIP3   OH245166   1.507   2.503  16.933  0.2864 -0.6585  0.1218
 7892TIP3    H145167   1.516   2.595  16.908 -0.2825 -1.3780 -3.2839
 7892TIP3    H245168   1.564   2.457  16.872 -1.3643 -2.7196  0.0373
 7893TIP3   OH245169   3.674   2.254   2.257 -0.3188  0.4192 -0.3384
 7893TIP3    H145170   3.603   2.308   2.294 -1.4464 -0.6540 -0.8770
 7893TIP3    H245171   3.714   2.212   2.333  0.1209  1.4423  0.0220
 7894TIP3   OH245172   0.317   1.291  15.614 -0.9981  0.1572  0.1809
 7894TIP3    H145173   0.402   1.279  15.655 -0.1421  4.0965  0.0077
 7894TIP3    H245174   0.330   1.266  15.523  0.7070  2.5097 -0.3242
 7895TIP3   OH245175   4.484   4.868  13.368 -0.3490  0.0083  0.1054
 7895TIP3    H145176   4.510   4.937  13.306 -0.4092  0.7482  0.8877
 7895TIP3    H245177   4.389   4.873  13.370 -0.3322  0.1653  0.4636
 7896TIP3   OH245178   6.481   4.621   0.563  0.1098 -0.3416 -0.4074
 7896TIP3    H145179   6.573   4.644   0.571 -0.1754  0.9066 -0.5530
 7896TIP3    H245180   6.444   4.639   0.649 -0.4628  1.4678 -0.9833
 7897TIP3   OH245181   5.709   1.962   0.692  0.3803  0.1337  0.0462
 7897TIP3    H145182   5.705   1.871   0.722 -0.3435 -0.0914 -0.7030
 7897TIP3    H245183   5.629   2.001   0.727  0.3597  0.3026 -0.1917
 7898TIP3   OH245184   3.595   2.218  11.782  0.6301  0.1620 -0.0818
 7898TIP3    H145185   3.513   2.170  11.779  0.5707  0.3122 -1.8682
 7898TIP3    H245186   3.661   2.156  11.750  1.0553  0.3671  0.3648
 7899TIP3   OH245187   5.287   2.273  11.600 -0.1553  0.1594  0.2424
 7899TIP3    H145188   5.358   2.332  11.626 -0.7271  1.1975 -0.4549
 7899TIP3    H245189   5.235   2.262  11.680  0.1736  0.2943  0.4785
 7900TIP3   OH245190   0.871   4.778   5.071 -0.1201 -0.1490 -0.7760
 7900TIP3    H145191   0.828   4.842   5.128  1.7729  1.2605 -0.8394
 7900TIP3    H245192   0.811   4.767   4.998 -1.3218  0.1181  0.1328
 7901TIP3   OH245193   6.019   2.285   5.818 -0.6024 -0.3440 -0.1309
 7901TIP3    H145194   5.958   2.341   5.770 -0.0870  0.7907  0.4891
 7901TIP3    H245195   5.962   2.224   5.865 -1.3313  0.9724  0.7868
 7902TIP3   OH245196   5.882   6.047   1.092  0.5627 -0.1494 -0.3997
 7902TIP3    H145197   5.846   6.097   1.019  1.2635 -1.4425 -1.6742
 7902TIP3    H245198   5.841   6.086   1.170 -2.8381 -0.8411 -1.6481
 7903TIP3   OH245199   6.338   0.977   1.988  0.0580  0.5222 -0.0693
 7903TIP3    H145200   6.384   1.004   2.067  0.8645  2.6527 -1.1974
 7903TIP3    H245201   6.295   0.895   2.013  0.8752  0.7316  2.3295
 7904TIP3   OH245202   3.064   2.198  14.392 -0.0681 -0.2001 -0.0990
 7904TIP3    H145203   3.108   2.275  14.429 -1.1948 -0.6786  2.4439
 7904TIP3    H245204   3.125   2.126  14.406 -0.4814 -0.3755  0.8857
 7905TIP3   OH245205   5.091   1.769   3.096 -0.3654 -0.2165 -0.1211
 7905TIP3    H145206   5.020   1.828   3.123  1.5999  3.0711 -1.4583
 7905TIP3    H245207   5.093   1.778   3.000  1.2416 -0.9456 -0.1836
 7906TIP3   OH245208   1.345   5.180  14.856 -0.2900 -0.0583  0.1623
 7906TIP3    H145209   1.335   5.171  14.761  0.0145  2.1827 -0.1413
 7906TIP3    H245210   1.257   5.165  14.891 -1.1746  2.2598 -0.8303
 7907TIP3   OH245211   2.308   6.177  13.794  0.3412 -0.2494 -0.0039
 7907TIP3    H145212   2.336   6.144  13.709  0.7255  0.9632 -0.3684
 7907TIP3    H245213   2.380   6.154  13.854 -0.0696 -1.3817  0.0815
 7908TIP3   OH245214   0.133   5.622   3.231 -0.0136 -0.2240 -0.1012
 7908TIP3    H145215   0.163   5.698   3.182  2.6376  0.1860  1.8931
 7908TIP3    H245216   0.213   5.584   3.268 -1.1971 -4.0266 -0.9726
 7909TIP3   OH245217   2.961   1.585  15.529 -0.1019  0.5508  0.4090
 7909TIP3    H145218   2.931   1.561  15.441 -0.8754 -0.6639  0.9649
 7909TIP3    H245219   2.997   1.673  15.520 -0.1073  0.4130 -1.1323
 7910TIP3   OH245220   5.690   2.978  14.563 -0.2186  0.2701 -0.1142
 7910TIP3    H145221   5.692   3.038  14.488  2.0841 -1.3248 -1.4664
 7910TIP3    H245222   5.602   2.942  14.563 -0.9888  2.0309 -0.5580
 7911TIP3   OH245223   0.031   0.231  16.902  0.4461 -0.0559  0.2923
 7911TIP3    H145224   0.087   0.272  16.968 -0.8311 -1.4215  2.3419
 7911TIP3    H245225  -0.056   0.269  16.917  0.0440 -0.7122 -0.2885
 7912TIP3   OH245226   6.064   5.268   2.891 -0.5813  0.1087 -0.0011
 7912TIP3    H145227   6.147   5.221   2.887 -1.8252 -2.2126 -4.8948
 7912TIP3    H245228   6.072   5.335   2.823 -2.5867  0.0183 -0.3587
 7913TIP3   OH245229   4.380   3.744  10.746  0.4071 -0.1680  0.3761
 7913TIP3    H145230   4.388   3.835  10.717 -0.0483 -0.7310 -1.6812
 7913TIP3    H245231   4.294   3.739  10.788 -0.0543  0.1040 -0.5227
 7914TIP3   OH245232   4.280   0.862   0.651 -0.2181  0.2386 -0.0338
 7914TIP3    H145233   4.259   0.791   0.590 -0.6926  0.1330  0.2424
 7914TIP3    H245234   4.277   0.942   0.597 -0.6405  0.1475 -0.1512
 7915TIP3   OH245235   2.777   2.611  12.471 -0.2308 -0.9067 -0.6182
 7915TIP3    H145236   2.837   2.545  12.436  0.9944  0.2243 -0.7552
 7915TIP3    H245237   2.742   2.656  12.395  2.1116  1.2725 -0.5367
 7916TIP3   OH245238   1.173   0.596  16.083  0.0689  0.2625  0.1420
 7916TIP3    H145239   1.126   0.520  16.116  1.3641  0.6996  3.2949
 7916TIP3    H245240   1.104   0.654  16.050 -1.2216 -0.8684  0.7517
 7917TIP3   OH245241   2.392   0.756   3.642 -0.1423  0.2078 -0.0054
 7917TIP3    H145242   2.428   0.823   3.584  0.2990  0.6774  0.8056
 7917TIP3    H245243   2.308   0.791   3.670  0.5565  0.9252  1.2629
 7918TIP3   OH245244   6.032   0.515   4.147  0.3820  0.0288 -0.2792
 7918TIP3    H145245   6.025   0.608   4.167  1.2229  0.4206 -1.5968
 7918TIP3    H245246   5.948   0.477   4.174  0.1164  1.1179  0.4776
 7919TIP3   OH245247   0.410   5.022  12.315  0.2331 -0.0193  0.5930
 7919TIP3    H145248   0.493   5.071  12.320  0.7582 -0.5941 -1.4599
 7919TIP3    H245249   0.345   5.081  12.354  1.3805  0.9992  1.0356
 7920TIP3   OH245250   5.825   4.647  16.778  0.4493 -0.6257 -0.1942
 7920TIP3    H145251   5.866   4.696  16.707 -0.4613  0.6669  0.1428
 7920TIP3    H245252   5.861   4.686  16.858  0.4064 -1.1350  0.0794
 7921TIP3   OH245253   2.296   5.061  15.953  0.0904 -0.0577  0.0535
 7921TIP3    H145254   2.296   5.094  16.043 -0.0461  0.1062 -0.0059
 7921TIP3    H245255   2.225   4.997  15.952 -1.1432  1.2559 -0.4078
 7922TIP3   OH245256   6.301   6.027  15.701 -0.2461 -0.1479  0.4600
 7922TIP3    H145257   6.270   5.976  15.776 -2.4149  0.2494 -0.0821
 7922TIP3    H245258   6.286   5.970  15.625 -0.7913  0.5181  0.0556
 7923TIP3   OH245259   1.737   5.573  12.494  0.5945 -0.2531  0.6318
 7923TIP3    H145260   1.707   5.663  12.477  0.4396 -0.5433 -0.8085
 7923TIP3    H245261   1.804   5.583  12.561 -0.1564  0.8199  1.2635
 7924TIP3   OH245262   6.391   3.974   3.735 -0.5746 -0.3894 -0.9073
 7924TIP3    H145263   6.433   3.927   3.662  0.2264 -0.2638 -0.5464
 7924TIP3    H245264   6.372   3.905   3.799  0.6348 -0.2481 -0.3620
 7925TIP3   OH245265   2.931   5.955  12.481  0.1952  0.2170 -0.2524
 7925TIP3    H145266   2.951   5.914  12.565  0.8369 -1.2070 -1.0614
 7925TIP3    H245267   2.838   5.940  12.468 -0.3430  2.0643  1.0068
 7926TIP3   OH245268   1.053   0.341   2.578 -0.7823  0.4535 -0.3963
 7926TIP3    H145269   1.026   0.324   2.487 -2.0619  1.1876 -0.1861
 7926TIP3    H245270   0.982   0.394   2.614 -0.2721  0.1975  1.0393
 7927TIP3   OH245271   3.482   5.190  11.788  0.1258  0.5013 -0.0923
 7927TIP3    H145272   3.393   5.155  11.800  0.3378 -0.0965 -0.2304
 7927TIP3    H245273   3.478   5.278  11.826  0.1255 -0.4361  2.2387
 7928TIP3   OH245274   1.942   3.111  13.028 -0.3533  0.2127  0.2656
 7928TIP3    H145275   2.019   3.168  13.025 -0.0632 -0.1977 -0.5829
 7928TIP3    H245276   1.952   3.061  13.108 -1.2703  2.2338  1.7189
 7929TIP3   OH245277   0.461   0.654   2.543  0.4063 -0.0943 -0.0866
 7929TIP3    H145278   0.526   0.605   2.492 -0.2222 -0.7191 -0.3082
 7929TIP3    H245279   0.472   0.622   2.632  0.8822  0.3236  0.0067
 7930TIP3   OH245280   4.748   5.884   2.784  0.3641  0.7937 -0.3017
 7930TIP3    H145281   4.704   5.800   2.798  2.0916 -0.2542 -0.7648
 7930TIP3    H245282   4.821   5.863   2.726  0.7216  2.6756 -0.5995
 7931TIP3   OH245283   0.083   0.022  15.092 -0.1893  0.2486 -0.0725
 7931TIP3    H145284   0.013   0.060  15.145 -1.7847 -1.3882 -0.8676
 7931TIP3    H245285   0.099  -0.063  15.133  0.4232  0.0752 -0.6585
 7932TIP3   OH245286   5.320   1.991   3.484  0.9436 -0.0916 -0.5151
 7932TIP3    H145287   5.383   1.936   3.437  0.3471 -1.7435  0.5090
 7932TIP3    H245288   5.242   1.991   3.428  0.0924 -2.3884  0.5472
 7933TIP3   OH245289   0.361   5.925   4.173  0.1695 -0.0108 -0.2486
 7933TIP3    H145290   0.382   6.007   4.219 -0.6303 -0.3069  0.6944
 7933TIP3    H245291   0.435   5.867   4.191 -0.0280 -0.0452  0.5071
 7934TIP3   OH245292   1.913   1.836  12.879 -0.0020 -0.0844  0.6626
 7934TIP3    H145293   1.832   1.819  12.831  0.5759 -0.2069 -0.2970
 7934TIP3    H245294   1.935   1.927  12.858 -0.5415  0.3590  1.9274
 7935TIP3   OH245295   5.008   4.810   6.268  0.0483  0.2017 -0.3204
 7935TIP3    H145296   4.964   4.726   6.283  1.0759 -0.5100 -1.1459
 7935TIP3    H245297   4.986   4.862   6.345 -0.8138 -0.7322  0.0958
 7936TIP3   OH245298   0.935   2.603  13.387 -0.6834  0.2289 -0.6888
 7936TIP3    H145299   0.930   2.555  13.305  0.4267 -1.9345  0.4103
 7936TIP3    H245300   1.019   2.576  13.425 -2.4224 -1.2106  2.4927
 7937TIP3   OH245301   2.960   0.637  15.249 -0.0076  0.1161 -0.5092
 7937TIP3    H145302   3.051   0.618  15.231  0.1145 -0.2401  0.4046
 7937TIP3    H245303   2.961   0.676  15.337 -0.9251 -1.7421  0.3659
 7938TIP3   OH245304   5.469   2.522   5.329 -0.6329 -0.3864 -0.5671
 7938TIP3    H145305   5.413   2.487   5.259  0.2402 -1.6153 -0.6898
 7938TIP3    H245306   5.419   2.509   5.409  0.0548 -2.9847 -0.4705
 7939TIP3   OH245307   0.961   2.763   3.807  0.2245  0.2399  0.0962
 7939TIP3    H145308   0.958   2.822   3.883  0.5548  0.0830  0.2336
 7939TIP3    H245309   0.986   2.820   3.734  0.3689  0.3037  0.1947
 7940TIP3   OH245310   0.570   1.136   1.902  0.6731 -0.3511 -0.2251
 7940TIP3    H145311   0.621   1.148   1.822  0.0703  0.3848 -0.5120
 7940TIP3    H245312   0.632   1.150   1.973  0.8066  0.9169 -0.5707
 7941TIP3   OH245313   0.721   5.204  11.971 -0.1554  0.2382 -0.1358
 7941TIP3    H145314   0.707   5.122  11.924  0.8051  0.4400 -0.7987
 7941TIP3    H245315   0.677   5.270  11.917 -1.9621  0.0441  0.9967
 7942TIP3   OH245316   3.568   2.759   0.696  0.5930 -0.0979 -0.9352
 7942TIP3    H145317   3.536   2.840   0.655 -1.7021  0.3004  1.4252
 7942TIP3    H245318   3.520   2.689   0.651  0.6342  0.0524 -1.2170
 7943TIP3   OH245319   2.469   1.309  15.686 -0.0864  0.4683  0.1441
 7943TIP3    H145320   2.491   1.352  15.603 -0.7184 -0.0245 -0.3029
 7943TIP3    H245321   2.455   1.217  15.661 -2.5251  0.7073  0.3447
 7944TIP3   OH245322   6.340   1.243  11.922  0.4485  0.3376  0.1550
 7944TIP3    H145323   6.406   1.269  11.987 -1.2874 -0.1565  2.2278
 7944TIP3    H245324   6.276   1.314  11.923  0.4491  0.3913 -1.1790
 7945TIP3   OH245325   6.765   2.083  15.226 -0.4071  0.8101 -0.1495
 7945TIP3    H145326   6.767   2.163  15.278  1.0227  0.2155  0.7702
 7945TIP3    H245327   6.688   2.093  15.170 -1.1146  2.1536  0.9976
 7946TIP3   OH245328   1.278   2.100   2.615  0.2619 -0.2018  0.0619
 7946TIP3    H145329   1.281   2.048   2.695 -1.7132 -2.5536 -1.2750
 7946TIP3    H245330   1.189   2.135   2.612  0.1229 -0.6195 -1.3420
 7947TIP3   OH245331   5.304   2.966  14.533  0.4843 -0.1527 -0.1627
 7947TIP3    H145332   5.326   3.059  14.525  1.4431 -0.2434  1.1531
 7947TIP3    H245333   5.253   2.960  14.614  0.8936 -0.8423  0.0551
 7948TIP3   OH245334   3.353   6.215  15.197  0.2016 -0.7053  0.1399
 7948TIP3    H145335   3.273   6.175  15.163  0.9060 -0.9212 -1.3343
 7948TIP3    H245336   3.343   6.211  15.293 -2.2271  0.6863  0.0282
 7949TIP3   OH245337   5.098   5.469  13.771 -0.1885  0.0218 -0.3979
 7949TIP3    H145338   5.105   5.399  13.836  2.0979 -0.5177 -1.1105
 7949TIP3    H245339   5.019   5.448  13.722 -0.1373 -1.4796  0.0936
 7950TIP3   OH245340   5.266   1.589  17.156 -0.1840  0.6686  0.0310
 7950TIP3    H145341   5.322   1.519  17.189  0.4505 -0.2332 -2.7355
 7950TIP3    H245342   5.180   1.549  17.148  0.4298 -0.3030 -2.7136
 7951TIP3   OH245343   2.280   4.702  15.492 -0.4335 -0.1906  0.2414
 7951TIP3    H145344   2.262   4.674  15.582 -1.5913  1.6109  0.6312
 7951TIP3    H245345   2.220   4.775  15.478 -1.5289 -1.4871 -2.6127
 7952TIP3   OH245346   4.963   2.092  15.271  0.4718  0.2706  0.1841
 7952TIP3    H145347   4.891   2.132  15.320 -0.1652 -0.0987 -0.4154
 7952TIP3    H245348   4.926   2.075  15.184  1.7520  1.4669 -0.6440
 7953TIP3   OH245349   5.337   4.947   5.441 -0.3244 -0.2041  0.4481
 7953TIP3    H145350   5.326   4.862   5.484  1.5387 -0.3750  0.6840
 7953TIP3    H245351   5.361   5.007   5.512 -0.2282  0.2095  0.0721
 7954TIP3   OH245352   1.421   0.514  16.279 -0.0649  0.4619 -0.1057
 7954TIP3    H145353   1.427   0.595  16.227 -0.1984 -0.4493 -1.5963
 7954TIP3    H245354   1.329   0.511  16.307 -0.3340  0.3040 -0.9632
 7955TIP3   OH245355   5.506   6.312  13.555  0.5442 -0.3713 -0.0142
 7955TIP3    H145356   5.454   6.390  13.577  0.3674 -0.1664 -1.1205
 7955TIP3    H245357   5.448   6.258  13.503  0.0519 -2.1325  2.2194
 7956TIP3   OH245358   6.563   1.556  17.090  0.6753 -0.0169  0.0315
 7956TIP3    H145359   6.614   1.636  17.082  1.0451 -0.1046  1.3824
 7956TIP3    H245360   6.532   1.539  17.001 -0.2658  2.1781 -0.1253
 7957TIP3   OH245361   5.469   1.547   4.519 -0.0303  0.0064 -0.0263
 7957TIP3    H145362   5.525   1.518   4.592 -1.0255 -1.6387  0.1345
 7957TIP3    H245363   5.483   1.642   4.515  1.6699 -0.1488  0.9165
 7958TIP3   OH245364   3.704   6.449   4.901  0.1309 -0.3329 -0.3208
 7958TIP3    H145365   3.792   6.481   4.884  0.1092 -0.1208 -0.0555
 7958TIP3    H245366   3.682   6.484   4.988  0.4130 -1.7504  0.3531
 7959TIP3   OH245367   3.643   0.727  17.113 -0.2857 -0.4793  0.1880
 7959TIP3    H145368   3.572   0.760  17.168  1.6264 -0.7111  2.9612
 7959TIP3    H245369   3.602   0.657  17.062 -2.0497 -0.6729  1.7393
 7960TIP3   OH245370   0.482   4.660  13.616  0.0837 -0.3381 -0.3018
 7960TIP3    H145371   0.542   4.721  13.658 -2.4443  1.0920  1.5056
 7960TIP3    H245372   0.410   4.715  13.585 -0.9144 -2.0883 -1.2676
 7961TIP3   OH245373   3.851   1.595   3.745  0.1251  0.0831  0.3702
 7961TIP3    H145374   3.916   1.652   3.786  0.2350 -0.5599  1.1093
 7961TIP3    H245375   3.774   1.651   3.735  0.9956  1.0706 -1.1966
 7962TIP3   OH245376   6.527   0.102  13.875  0.2178 -0.0656  0.0305
 7962TIP3    H145377   6.555   0.020  13.916 -2.3336 -1.3683 -0.6919
 7962TIP3    H245378   6.531   0.085  13.781  0.3381  0.8884 -0.1463
 7963TIP3   OH245379   2.156   1.228   6.703 -0.2085  0.1168 -0.2639
 7963TIP3    H145380   2.200   1.303   6.742 -0.7420  0.9028 -1.1550
 7963TIP3    H245381   2.064   1.251   6.702 -0.5480 -1.0946  0.6295
 7964TIP3   OH245382   1.144   2.931  11.625  0.2088  0.1068  0.2562
 7964TIP3    H145383   1.086   2.875  11.574  1.3081  0.6250 -1.6473
 7964TIP3    H245384   1.136   3.018  11.584 -0.5561  1.1178  2.3954
 7965TIP3   OH245385   0.230   0.128  13.121 -0.6211  0.5219 -0.8498
 7965TIP3    H145386   0.216   0.198  13.057  0.0741  0.9455 -0.5492
 7965TIP3    H245387   0.292   0.165  13.184 -1.0544 -0.0015 -0.1036
 7966TIP3   OH245388   6.728   5.964   2.189  0.5070  0.1579 -0.3218
 7966TIP3    H145389   6.814   5.922   2.190  0.2637 -0.3598  1.0433
 7966TIP3    H245390   6.668   5.894   2.162  0.0280 -0.6266  2.4632
 7967TIP3   OH245391   6.070   0.370   5.463 -0.0877  0.3612 -0.4601
 7967TIP3    H145392   6.149   0.371   5.410 -0.1154 -0.2882 -0.5249
 7967TIP3    H245393   6.087   0.433   5.533 -0.1690  1.4346 -1.3882
 7968TIP3   OH245394   6.183   3.702  16.384  0.5865  0.1441  0.5392
 7968TIP3    H145395   6.210   3.794  16.381  0.7103  0.0911 -0.2572
 7968TIP3    H245396   6.136   3.688  16.302 -1.2503  0.0318  1.5577
 7969TIP3   OH245397   4.899   0.985   2.727  0.0927  0.3104 -0.0343
 7969TIP3    H145398   4.808   1.011   2.720 -0.1944 -0.3246  1.1298
 7969TIP3    H245399   4.936   1.044   2.794  0.5112  0.4894 -0.4167
 7970TIP3   OH245400   4.695   1.685   6.503 -0.5382  0.0857  0.6079
 7970TIP3    H145401   4.664   1.601   6.470  1.1138  0.0520 -1.0326
 7970TIP3    H245402   4.767   1.662   6.562 -1.6801  0.2916  2.1618
 7971TIP3   OH245403   0.327   4.284   2.036 -0.8078  0.4270  0.3285
 7971TIP3    H145404   0.340   4.323   2.122 -0.9252 -0.9817  1.0217
 7971TIP3    H245405   0.403   4.227   2.024 -1.0456  0.2270 -0.2707
 7972TIP3   OH245406   4.151   5.038  13.776  0.4232 -0.0747 -0.2341
 7972TIP3    H145407   4.167   5.128  13.803  1.5102 -0.2527 -0.2483
 7972TIP3    H245408   4.226   5.016  13.721 -0.0924 -0.8200 -0.6536
 7973TIP3   OH245409   4.266   4.360  13.289 -0.5831 -0.3050 -0.0090
 7973TIP3    H145410   4.359   4.351  13.310 -0.2087 -2.0334 -2.0866
 7973TIP3    H245411   4.265   4.384  13.197 -2.1479 -3.5517 -0.9964
 7974TIP3   OH245412   3.791   5.362  11.937 -0.3339 -0.1902 -0.0116
 7974TIP3    H145413   3.698   5.384  11.935 -0.3234 -0.1960 -1.1943
 7974TIP3    H245414   3.793   5.266  11.946 -0.4976 -0.3836 -1.6613
 7975TIP3   OH245415   5.781   0.368  14.046  0.1664  0.0805  0.0265
 7975TIP3    H145416   5.740   0.293  14.089 -0.0271 -0.0581 -0.3910
 7975TIP3    H245417   5.713   0.435  14.045 -0.5616 -0.5973 -1.8800
 7976TIP3   OH245418   2.524   3.508   3.445  0.8553 -0.0672 -0.4888
 7976TIP3    H145419   2.477   3.430   3.474  0.0103  0.7319  0.3221
 7976TIP3    H245420   2.607   3.505   3.493 -0.2204  0.8548  1.5600
 7977TIP3   OH245421   3.138   1.573   5.197 -0.5529 -0.1244  0.3386
 7977TIP3    H145422   3.192   1.651   5.205 -1.5896  0.5083  1.5576
 7977TIP3    H245423   3.199   1.500   5.212  0.0441  0.5562  1.3601
 7978TIP3   OH245424   4.706   4.310  12.095 -0.5530 -0.4899 -0.9430
 7978TIP3    H145425   4.626   4.269  12.061 -0.9104 -0.5371 -0.0815
 7978TIP3    H245426   4.675   4.386  12.144 -0.1079 -0.7166 -0.2934
 7979TIP3   OH245427   3.764   3.905   0.842 -0.6235 -0.3571 -0.0980
 7979TIP3    H145428   3.698   3.974   0.850  0.2791  0.7729 -1.8652
 7979TIP3    H245429   3.728   3.845   0.777 -1.2876 -1.4821  1.2453
 7980TIP3   OH245430   0.121   2.995  10.473 -0.3594  0.0710 -0.2399
 7980TIP3    H145431   0.031   2.963  10.476 -1.2679  2.3130 -1.4011
 7980TIP3    H245432   0.173   2.917  10.453 -2.1984 -1.0163 -1.0878
 7981TIP3   OH245433   3.678   1.367  16.510 -0.4948  0.1206 -0.0473
 7981TIP3    H145434   3.764   1.403  16.489  0.1468 -0.4068  1.5099
 7981TIP3    H245435   3.645   1.423  16.581 -1.9379  0.9628 -1.3029
 7982TIP3   OH245436   0.407   3.471   1.138  0.1711 -0.0723 -0.3129
 7982TIP3    H145437   0.329   3.438   1.092  1.2452 -0.1790 -2.1536
 7982TIP3    H245438   0.474   3.476   1.070  1.7263  0.2184  1.1922
 7983TIP3   OH245439   3.955   0.462   0.268  0.4691 -0.1945  0.0965
 7983TIP3    H145440   3.956   0.427   0.357 -1.5305  0.2392  0.3491
 7983TIP3    H245441   3.876   0.516   0.265 -0.2699 -1.2713 -2.3247
 7984TIP3   OH245442   0.497   5.459   1.839  0.0082 -0.3963 -0.0158
 7984TIP3    H145443   0.446   5.538   1.820 -0.4658 -0.9082 -0.9409
 7984TIP3    H245444   0.434   5.387   1.830  0.6600 -0.9583 -0.1705
 7985TIP3   OH245445   6.590   4.073   6.355 -0.0859  0.5089 -0.3521
 7985TIP3    H145446   6.547   4.021   6.423  0.2363 -0.4988 -0.9011
 7985TIP3    H245447   6.523   4.137   6.329 -0.4647  0.4299  0.3883
 7986TIP3   OH245448   6.600   1.251  16.993 -0.4709 -0.2163 -0.3411
 7986TIP3    H145449   6.521   1.292  17.028 -0.1622  0.2652 -0.2087
 7986TIP3    H245450   6.590   1.158  17.015  0.0389  0.1741  1.6538
 7987TIP3   OH245451   3.139   2.453  14.458  0.2702  0.3049 -0.5311
 7987TIP3    H145452   3.058   2.493  14.489  1.5165  1.9402  0.7947
 7987TIP3    H245453   3.163   2.504  14.381  0.0852 -0.1630 -0.9082
 7988TIP3   OH245454   0.496   6.520  14.706 -0.1954  0.3036 -0.0926
 7988TIP3    H145455   0.419   6.577  14.698 -1.2650 -0.9417  0.8376
 7988TIP3    H245456   0.465   6.435  14.675  0.5509 -0.4203  1.0905
 7989TIP3   OH245457   4.746   2.191   3.322 -0.2778 -0.3495  0.2342
 7989TIP3    H145458   4.813   2.230   3.266 -0.5017 -1.9829 -1.2499
 7989TIP3    H245459   4.751   2.097   3.304 -3.2679 -0.4906 -0.2884
 7990TIP3   OH245460   1.109   0.238  14.206  0.1697  0.4426  0.1254
 7990TIP3    H145461   1.142   0.325  14.185 -0.1703  0.2970 -1.0863
 7990TIP3    H245462   1.043   0.253  14.274 -0.7247  1.2786 -0.9002
 7991TIP3   OH245463   5.090   0.906  14.706 -0.4310 -0.3098  0.0250
 7991TIP3    H145464   5.123   0.829  14.658  0.2750  0.2337 -0.3943
 7991TIP3    H245465   5.069   0.873  14.793  2.9321 -0.4024  0.9438
 7992TIP3   OH245466   1.625   0.757   3.143 -0.4436 -0.2056 -0.2883
 7992TIP3    H145467   1.579   0.840   3.132 -2.4519 -1.2408 -0.0532
 7992TIP3    H245468   1.612   0.711   3.060 -0.5614 -0.8534  0.0835
 7993TIP3   OH245469   1.036   6.406  15.591  0.2020  0.8627  0.4645
 7993TIP3    H145470   0.946   6.425  15.567 -0.3573 -0.2190  1.6176
 7993TIP3    H245471   1.088   6.444  15.520 -1.2522 -0.8393 -1.6492
 7994TIP3   OH245472   3.260   2.743  13.278  0.6811  0.1084  0.1804
 7994TIP3    H145473   3.237   2.778  13.364  1.8955  2.3832 -0.3313
 7994TIP3    H245474   3.194   2.781  13.219  1.7133  1.2021 -0.3144
 7995TIP3   OH245475   1.935   5.893   0.247  0.3976  0.7084 -0.0345
 7995TIP3    H145476   1.981   5.929   0.323  0.1566  1.0684 -0.0531
 7995TIP3    H245477   1.882   5.822   0.283  0.8689  0.3716  0.0059
 7996TIP3   OH245478   2.729   1.306  11.833 -0.2691  0.3106  0.5026
 7996TIP3    H145479   2.699   1.284  11.921 -1.0240  0.7596  0.3690
 7996TIP3    H245480   2.660   1.364  11.798  0.0541  0.1964 -0.3484
 7997TIP3   OH245481   4.222   2.323   5.562 -0.0114 -0.3893 -0.3496
 7997TIP3    H145482   4.298   2.372   5.593  1.4238 -1.6074 -1.7447
 7997TIP3    H245483   4.240   2.308   5.469 -1.4765 -1.5775 -0.4783
 7998TIP3   OH245484   5.608   1.147   2.655 -0.1863  0.4755  0.3374
 7998TIP3    H145485   5.584   1.098   2.577  0.4619  0.1063  0.3630
 7998TIP3    H245486   5.650   1.226   2.621  1.4812 -0.3913  0.3012
 7999TIP3   OH245487   1.677   1.170   5.539 -0.2767 -0.0419 -0.1871
 7999TIP3    H145488   1.761   1.153   5.582 -0.6184  0.0309  0.5277
 7999TIP3    H245489   1.613   1.121   5.591 -0.7889  0.5749 -0.2195
 8000TIP3   OH245490   6.086   6.512   2.926  0.4421 -0.4560  0.9781
 8000TIP3    H145491   6.141   6.588   2.908 -1.3343  0.1673 -2.4319
 8000TIP3    H245492   6.123   6.442   2.872  0.0326 -1.0914  1.4971
 8001TIP3   OH245493   5.343   2.106  14.824  0.1197  0.1923 -0.1969
 8001TIP3    H145494   5.379   2.035  14.772 -0.2669 -0.6269  0.6374
 8001TIP3    H245495   5.284   2.153  14.764 -0.4450 -0.8348 -0.4599
 8002TIP3   OH245496   1.936   4.403   1.731 -0.0514  0.1203 -0.4028
 8002TIP3    H145497   1.854   4.355   1.716 -0.4408  0.5527  0.2666
 8002TIP3    H245498   2.005   4.339   1.714 -0.5630 -1.0958  1.7188
 8003TIP3   OH245499   2.000   4.898  13.891  0.2200 -0.4482  0.6680
 8003TIP3    H145500   2.094   4.909  13.908  0.3366 -0.0847 -0.1427
 8003TIP3    H245501   1.975   4.821  13.941  0.8258 -0.2092  1.3534
 8004TIP3   OH245502   2.346   5.836   2.923 -0.2820 -0.0937 -0.3965
 8004TIP3    H145503   2.324   5.777   2.995 -1.1851  0.2790 -0.3530
 8004TIP3    H245504   2.437   5.816   2.902 -0.8848 -2.3189 -1.1450
 8005TIP3   OH245505   5.267   3.615   3.066 -0.4106  0.0008 -0.5649
 8005TIP3    H145506   5.220   3.573   3.139 -0.7492  1.0205 -0.1801
 8005TIP3    H245507   5.262   3.709   3.085 -2.4297  0.4992 -3.0184
 8006TIP3   OH245508   5.605   0.577  14.091 -0.4299  0.2724  0.4221
 8006TIP3    H145509   5.600   0.640  14.019 -0.2714 -0.8288 -0.5893
 8006TIP3    H245510   5.646   0.626  14.163  2.3446  0.5984 -1.2210
 8007TIP3   OH245511   5.383   2.328   1.056  0.3901 -0.2929  0.2560
 8007TIP3    H145512   5.296   2.323   1.096 -0.7356  1.8391 -1.7087
 8007TIP3    H245513   5.443   2.339   1.130 -0.7044 -3.5976  1.8066
 8008TIP3   OH245514   5.459   3.863   5.086 -0.2786  0.4280  0.1955
 8008TIP3    H145515   5.494   3.796   5.146  0.3536 -1.6105 -2.2401
 8008TIP3    H245516   5.497   3.945   5.117  3.2024 -1.0492  0.4085
 8009TIP3   OH245517   1.851   5.886  16.375 -0.6813  0.0859  0.0921
 8009TIP3    H145518   1.865   5.903  16.282 -0.3543  1.4087  0.3578
 8009TIP3    H245519   1.760   5.857  16.381 -0.6463 -0.1972 -0.6590
 8010TIP3   OH245520   5.391   5.843  16.976  0.7059  0.2819 -0.2369
 8010TIP3    H145521   5.465   5.783  16.967  2.1182  1.6487  1.4062
 8010TIP3    H245522   5.319   5.789  17.008  1.1228 -0.9957 -1.3901
 8011TIP3   OH245523   5.107   1.700   1.499 -0.2464  0.0078 -0.0639
 8011TIP3    H145524   5.093   1.786   1.460  0.3915  0.1376 -0.0094
 8011TIP3    H245525   5.029   1.685   1.554 -0.8829  0.0623 -0.9390
 8012TIP3   OH245526   1.835   6.569   5.636 -0.2286  0.0794 -0.1630
 8012TIP3    H145527   1.893   6.642   5.658 -2.3029  1.5941  0.6469
 8012TIP3    H245528   1.798   6.593   5.551  1.0747 -1.4142 -1.2097
 8013TIP3   OH245529   5.618   0.046  17.129 -0.2309  0.4777 -0.2510
 8013TIP3    H145530   5.632  -0.026  17.067 -0.5304  1.7276 -1.8198
 8013TIP3    H245531   5.706   0.079  17.147 -0.1149 -0.0863  0.2809
 8014TIP3   OH245532   3.442   6.422  13.777  0.0535 -1.1168 -0.1451
 8014TIP3    H145533   3.493   6.390  13.851 -0.1171 -0.4697  0.2592
 8014TIP3    H245534   3.353   6.427  13.810 -0.2355 -1.9588 -0.7599
 8015TIP3   OH245535   6.127   1.461  11.898 -0.4871  0.3409  0.2173
 8015TIP3    H145536   6.090   1.429  11.816 -1.6403  1.4789  0.2469
 8015TIP3    H245537   6.087   1.548  11.910  1.8692  1.4684  0.5133
 8016TIP3   OH245538   6.825   1.778  10.763 -0.1904  0.0133  0.4336
 8016TIP3    H145539   6.835   1.683  10.759 -1.8966 -0.1899  0.1315
 8016TIP3    H245540   6.730   1.792  10.765  0.0357  1.6936  1.0007
 8017TIP3   OH245541   6.637   6.676  12.544 -0.6618  0.6449  0.3944
 8017TIP3    H145542   6.709   6.727  12.581 -0.2027  0.5759 -0.3798
 8017TIP3    H245543   6.583   6.741  12.498  0.2887  0.3707 -1.1668
 8018TIP3   OH245544   6.060   2.559   0.962 -0.0602 -0.4477  0.1678
 8018TIP3    H145545   6.112   2.479   0.952 -1.4587 -1.2770 -0.6593
 8018TIP3    H245546   6.036   2.584   0.873 -0.8615  0.0714  0.5172
 8019TIP3   OH245547   2.916   0.555  16.759 -0.0402 -0.2266 -0.0470
 8019TIP3    H145548   2.986   0.577  16.821 -1.6602  0.2493  1.6987
 8019TIP3    H245549   2.875   0.476  16.795 -1.5226  0.5141 -0.0341
 8020TIP3   OH245550   5.170   1.866   0.761 -0.2390 -0.1403 -0.7137
 8020TIP3    H145551   5.074   1.874   0.758 -0.2095  0.6190  0.0760
 8020TIP3    H245552   5.193   1.829   0.676 -1.1003  1.1378 -1.5443
 8021TIP3   OH245553   6.527   4.185  11.993 -0.2588 -0.1590  0.1181
 8021TIP3    H145554   6.456   4.131  11.958 -0.2682  0.4495 -0.8590
 8021TIP3    H245555   6.560   4.136  12.068 -1.7030 -0.4507  0.5922
 8022TIP3   OH245556   0.601   6.721  16.892  0.8863 -0.9154  0.3338
 8022TIP3    H145557   0.671   6.762  16.943  3.0265 -1.8818 -1.6691
 8022TIP3    H245558   0.595   6.632  16.927 -1.6093 -0.0360  2.5607
 8023TIP3   OH245559   3.263   3.580  14.663  0.4253  0.0046  0.2814
 8023TIP3    H145560   3.345   3.626  14.683  0.4972  0.6964 -1.3478
 8023TIP3    H245561   3.207   3.648  14.625 -0.2880 -0.8099 -0.1587
 8024TIP3   OH245562   4.366   6.540   1.215 -0.2297  0.3667 -0.1717
 8024TIP3    H145563   4.460   6.521   1.213 -0.2851  0.1330 -1.3958
 8024TIP3    H245564   4.335   6.501   1.296  0.6682  0.1218  0.0626
 8025TIP3   OH245565   2.901   6.017  16.992 -0.2238 -0.0276 -0.0806
 8025TIP3    H145566   2.981   5.972  17.019 -1.8675 -1.7487  2.3125
 8025TIP3    H245567   2.906   6.102  17.035  0.2864 -0.1629  0.1370
 8026TIP3   OH245568   2.107   2.551  14.177 -0.2875  0.6390  0.3048
 8026TIP3    H145569   2.179   2.492  14.199 -0.7456  0.0538  0.2625
 8026TIP3    H245570   2.032   2.516  14.225 -0.4420  1.5170  0.7221
 8027TIP3   OH245571   6.505   2.875   0.491 -0.0512  0.3020 -0.1181
 8027TIP3    H145572   6.411   2.870   0.510 -0.1425 -1.8995 -0.8108
 8027TIP3    H245573   6.542   2.923   0.566 -1.3478 -1.5863  1.8752
 8028TIP3   OH245574   0.134   2.758   3.459 -0.4551  0.3911 -0.2953
 8028TIP3    H145575   0.203   2.808   3.415 -0.2785  0.8237  0.4444
 8028TIP3    H245576   0.102   2.817   3.527 -0.2950 -0.4674  0.5529
 8029TIP3   OH245577   3.877   4.905  14.745  0.2510 -0.5098  0.1153
 8029TIP3    H145578   3.909   4.971  14.807 -0.7735 -0.3234  0.4657
 8029TIP3    H245579   3.785   4.929  14.729  1.0457  0.8578 -3.3346
 8030TIP3   OH245580   5.413   4.507   3.755  0.0330  0.3165 -0.2944
 8030TIP3    H145581   5.477   4.574   3.780  0.9286 -0.1658 -1.2149
 8030TIP3    H245582   5.466   4.428   3.740 -0.9732 -0.5552  0.5499
 8031TIP3   OH245583   5.889   1.494   2.677  0.4262  0.4438 -0.8332
 8031TIP3    H145584   5.966   1.541   2.708  1.5832 -2.4856  1.2197
 8031TIP3    H245585   5.917   1.452   2.596  0.4554  0.6354 -0.9233
 8032TIP3   OH245586   5.855   3.143   3.515  0.3040 -0.3011 -0.0208
 8032TIP3    H145587   5.907   3.080   3.566  0.1689 -0.1255  0.3352
 8032TIP3    H245588   5.860   3.224   3.565  0.2923 -0.0852 -0.3653
 8033TIP3   OH245589   6.173   5.935   3.790 -0.1801 -0.1995  1.0755
 8033TIP3    H145590   6.223   6.010   3.822 -1.3167  0.5416  1.1739
 8033TIP3    H245591   6.125   5.969   3.715  0.9172 -1.4059 -0.2348
 8034TIP3   OH245592   2.750   5.584  17.173  0.1113 -0.0398  0.0527
 8034TIP3    H145593   2.685   5.525  17.211  0.3796  0.0699  0.6819
 8034TIP3    H245594   2.698   5.657  17.138 -0.2132 -0.6012 -0.6643
 8035TIP3   OH245595   0.377   6.663   1.104 -0.0531 -0.1784  0.1849
 8035TIP3    H145596   0.436   6.676   1.030 -1.2855 -1.4271 -1.0994
 8035TIP3    H245597   0.372   6.568   1.114 -1.0346 -0.0696  0.9200
 8036TIP3   OH245598   3.417   6.499  13.515  0.1472 -0.3785 -0.2468
 8036TIP3    H145599   3.324   6.512  13.533  0.1536 -0.1343 -0.3777
 8036TIP3    H245600   3.452   6.460  13.595 -0.3476 -1.8225 -0.6993
 8037TIP3   OH245601   1.361   0.893  14.714 -0.5271 -0.4619  0.3934
 8037TIP3    H145602   1.399   0.811  14.683 -0.8686 -0.7403  0.7025
 8037TIP3    H245603   1.275   0.897  14.672 -0.5913 -0.3557  0.5351
 8038TIP3   OH245604   0.885   2.664  11.039 -0.4398 -0.0621 -0.3405
 8038TIP3    H145605   0.948   2.703  10.978  0.0155 -0.0860  0.1026
 8038TIP3    H245606   0.833   2.605  10.985  0.5009 -0.7112 -0.5732
 8039TIP3   OH245607   1.817   3.630   2.508 -0.2264  0.0781  0.2098
 8039TIP3    H145608   1.727   3.600   2.523  0.2526 -1.2783  0.5763
 8039TIP3    H245609   1.846   3.579   2.432  0.4236  0.0381  0.4819
 8040TIP3   OH245610   5.901   1.871   3.464  0.0475 -0.4778 -0.2724
 8040TIP3    H145611   5.858   1.853   3.380  0.0025 -0.9170 -0.1602
 8040TIP3    H245612   5.978   1.923   3.440  0.4686 -1.2573 -0.6807
 8041TIP3   OH245613   1.468   5.350  11.740 -0.1555 -0.3621 -0.1276
 8041TIP3    H145614   1.474   5.263  11.779 -2.2246 -0.8306 -0.7102
 8041TIP3    H245615   1.467   5.335  11.645 -1.4749  0.1667 -0.2305
 8042TIP3   OH245616   6.259   6.178   0.798 -0.0281  0.2100  0.1663
 8042TIP3    H145617   6.206   6.102   0.775 -1.9550  1.2539  0.9277
 8042TIP3    H245618   6.222   6.209   0.880  1.5548  1.2372  0.5426
 8043TIP3   OH245619   1.140   1.575  15.547 -0.0636  0.0337 -0.1885
 8043TIP3    H145620   1.104   1.603  15.631  1.1148  0.1794  0.2879
 8043TIP3    H245621   1.064   1.551  15.495 -0.8009 -0.3086  1.0098
 8044TIP3   OH245622   1.720   0.186   1.857 -0.3293 -0.2438 -0.0157
 8044TIP3    H145623   1.707   0.167   1.765  1.2775 -0.6767 -0.1864
 8044TIP3    H245624   1.729   0.282   1.861 -1.8826 -0.0798 -0.0785
 8045TIP3   OH245625   3.519   3.747  16.453  0.1653 -0.5100 -0.0831
 8045TIP3    H145626   3.447   3.804  16.429 -0.9989 -0.9860  2.0776
 8045TIP3    H245627   3.512   3.673  16.392 -1.6255 -0.8905  0.5340
 8046TIP3   OH245628   6.776   1.993  11.566 -0.2753 -0.0534 -0.0174
 8046TIP3    H145629   6.765   1.998  11.661 -0.5317  0.9098 -0.0934
 8046TIP3    H245630   6.696   2.031  11.530  0.4631  0.9832 -0.6097
 8047TIP3   OH245631   2.901   1.034  12.114  0.6092 -0.0725 -0.2353
 8047TIP3    H145632   2.911   1.044  12.209 -0.8512  0.9064 -0.1357
 8047TIP3    H245633   2.860   0.948  12.104  0.2757  0.0405  0.0876
 8048TIP3   OH245634   6.264   4.035   2.320  0.5498 -0.1924  0.6195
 8048TIP3    H145635   6.186   3.987   2.294  0.5979  0.0326  0.0396
 8048TIP3    H245636   6.272   4.020   2.415 -1.3322  1.4100  1.0888
 8049TIP3   OH245637   1.400   3.647   1.003  0.1647 -0.1536 -1.2448
 8049TIP3    H145638   1.451   3.727   0.986 -0.6956 -0.0761 -4.0735
 8049TIP3    H245639   1.315   3.680   1.032  0.8892 -0.2191  1.1378
 8050TIP3   OH245640   2.431   6.658   2.136 -0.3699  0.2517  0.0063
 8050TIP3    H145641   2.406   6.565   2.135  1.8508 -0.3902 -0.6376
 8050TIP3    H245642   2.348   6.705   2.125 -1.4440 -1.6644 -0.5578
 8051TIP3   OH245643   2.815   5.565   3.627  0.4408 -0.2043  0.0787
 8051TIP3    H145644   2.822   5.472   3.651  0.1770 -0.2281  0.0657
 8051TIP3    H245645   2.724   5.588   3.647 -0.4573 -0.8013 -2.9209
 8052TIP3   OH245646   2.128   5.754   1.848  0.0166  0.2850 -0.2728
 8052TIP3    H145647   2.179   5.683   1.886  1.7758  0.2686 -2.4866
 8052TIP3    H245648   2.043   5.714   1.827  0.7037 -0.9549 -0.7580
 8053TIP3   OH245649   4.132   3.157  14.963 -0.0444  0.2210  0.0104
 8053TIP3    H145650   4.058   3.192  15.014  0.1634 -1.3977  1.5187
 8053TIP3    H245651   4.099   3.152  14.874 -1.1245  1.2717  0.3221
 8054TIP3   OH245652   2.971   3.081  12.617 -0.2520  0.2167 -0.2063
 8054TIP3    H145653   2.916   3.153  12.647  0.1864  1.2411 -1.7534
 8054TIP3    H245654   3.011   3.113  12.536 -0.4182 -1.9335 -1.2208
 8055TIP3   OH245655   2.839   0.810  11.875 -0.2939  0.3065  0.3970
 8055TIP3    H145656   2.880   0.756  11.807 -1.1138 -0.4723  0.5022
 8055TIP3    H245657   2.872   0.898  11.859 -0.5505  0.1541 -1.0694
 8056TIP3   OH245658   0.304   4.587   1.703  0.7223 -0.2785 -0.5734
 8056TIP3    H145659   0.364   4.522   1.667  0.3080 -0.7281 -0.4586
 8056TIP3    H245660   0.242   4.536   1.755 -0.1598  0.0941 -1.2239
 8057TIP3   OH245661   6.084   6.447  15.708 -1.0116 -0.1170  0.0127
 8057TIP3    H145662   6.035   6.477  15.632 -0.5822  0.9804  0.1429
 8057TIP3    H245663   6.033   6.375  15.744 -1.0612 -0.8655 -1.4883
 8058TIP3   OH245664   6.538   6.491  16.985 -0.0042  0.6544 -0.3375
 8058TIP3    H145665   6.603   6.560  16.973 -0.9984  1.6671 -0.0838
 8058TIP3    H245666   6.584   6.423  17.034  1.5763  0.2186 -2.2956
 8059TIP3   OH245667   1.754   3.290   3.905 -0.0803 -0.5731 -0.0103
 8059TIP3    H145668   1.782   3.203   3.931 -0.0330 -1.0675 -1.5761
 8059TIP3    H245669   1.785   3.299   3.814 -0.3126  0.9680  0.0305
 8060TIP3   OH245670   6.097   4.776  11.593  0.1236  0.0015  0.2288
 8060TIP3    H145671   6.070   4.700  11.540 -0.7226  1.0496 -0.9127
 8060TIP3    H245672   6.121   4.739  11.678  2.7790 -1.9201 -1.2134
 8061TIP3   OH245673   0.612   6.406  10.959  0.1777 -0.1794  0.2777
 8061TIP3    H145674   0.591   6.469  11.028 -1.6735  0.9939 -1.2461
 8061TIP3    H245675   0.535   6.407  10.902  1.1764 -1.9359 -1.1973
 8062TIP3   OH245676   3.360   4.705  17.179  0.0950 -0.0699 -0.1913
 8062TIP3    H145677   3.269   4.694  17.204 -0.0162 -0.3558 -0.7020
 8062TIP3    H245678   3.394   4.773  17.237 -0.7232  0.7829 -0.6935
 8063TIP3   OH245679   1.741   4.269  15.137  0.2226  0.1385  0.0409
 8063TIP3    H145680   1.792   4.265  15.218  1.2942  0.5928 -0.5947
 8063TIP3    H245681   1.650   4.264  15.166  0.5864  0.3762  1.2804
 8064TIP3   OH245682   6.779   1.442   2.448 -0.8419  0.0200  0.6989
 8064TIP3    H145683   6.754   1.479   2.533 -0.2526  3.1739 -0.3559
 8064TIP3    H245684   6.728   1.491   2.385 -0.1418 -1.1913 -0.8822
 8065TIP3   OH245685   4.777   4.465  13.244 -0.0756  0.0602 -0.5332
 8065TIP3    H145686   4.796   4.373  13.255  0.0091  0.1071 -0.2938
 8065TIP3    H245687   4.846   4.498  13.187 -0.3635 -0.1206 -0.9968
 8066TIP3   OH245688   1.699   4.031   1.955  0.1901 -0.4050 -0.1493
 8066TIP3    H145689   1.673   4.046   2.046  0.7141  2.0117 -0.3317
 8066TIP3    H245690   1.627   3.982   1.917 -0.8173  0.0271  1.1296
 8067TIP3   OH245691   6.455   6.393   1.060 -0.8948  0.0545  0.3516
 8067TIP3    H145692   6.471   6.335   1.134  2.4975 -0.1623 -0.3954
 8067TIP3    H245693   6.487   6.478   1.089  0.5112 -0.0374 -0.8205
 8068TIP3   OH245694   0.511   3.081  11.765 -0.0013 -0.2302  0.1545
 8068TIP3    H145695   0.540   3.090  11.674  1.8338 -0.3699  0.6954
 8068TIP3    H245696   0.441   3.015  11.762  0.3120 -0.5208 -1.0984
 8069TIP3   OH245697   3.411   2.473  15.456 -0.6392  0.4023 -0.1067
 8069TIP3    H145698   3.388   2.520  15.376  0.1552  2.1752  0.6447
 8069TIP3    H245699   3.461   2.397  15.426  0.3870  1.4844 -1.2993
 8070TIP3   OH245700   1.887   0.984   5.309 -0.5021  0.1918 -0.3430
 8070TIP3    H145701   1.897   1.073   5.344  0.8199 -0.3813  0.8215
 8070TIP3    H245702   1.824   0.943   5.368 -0.2159  0.0045 -0.1661
 8071TIP3   OH245703   2.928   5.323   5.225  0.1257  0.1904 -0.2207
 8071TIP3    H145704   2.962   5.278   5.147  1.4703  3.3963 -1.6726
 8071TIP3    H245705   3.004   5.331   5.283 -0.6829 -1.4563  1.1640
 8072TIP3   OH245706   0.145   3.796   3.232  0.1704 -0.2165 -0.6898
 8072TIP3    H145707   0.227   3.755   3.204  0.7746  0.8330 -0.5169
 8072TIP3    H245708   0.079   3.761   3.172  0.9280 -0.2547 -1.5211
 8073TIP3   OH245709   0.879   3.544   0.850 -0.0762 -0.3351 -0.0357
 8073TIP3    H145710   0.821   3.492   0.905  2.7204 -2.8501  0.7933
 8073TIP3    H245711   0.922   3.604   0.912  0.2163 -0.4029 -0.1745
 8074TIP3   OH245712   3.713   6.777  16.011 -0.0280 -0.5983  0.3123
 8074TIP3    H145713   3.651   6.714  15.975  0.2729 -0.3294 -0.7095
 8074TIP3    H245714   3.727   6.840  15.941 -1.6661  1.6452  1.8812
 8075TIP3   OH245715   6.176   0.132   5.025  1.2595  0.1431 -0.1349
 8075TIP3    H145716   6.227   0.155   5.104  0.7780 -0.7842  0.4592
 8075TIP3    H245717   6.242   0.109   4.960  1.6206 -0.6265  0.4941
 8076TIP3   OH245718   1.084   5.477  14.803 -0.0095  0.4655  0.4172
 8076TIP3    H145719   1.011   5.535  14.782 -1.2211 -1.4491 -0.9583
 8076TIP3    H245720   1.152   5.500  14.740 -0.5621  0.2589 -0.2625
 8077TIP3   OH245721   6.374   0.545   3.793  0.0870  0.3431  0.2528
 8077TIP3    H145722   6.294   0.534   3.844  1.0515  0.7914  1.9129
 8077TIP3    H245723   6.438   0.488   3.835  1.2407  1.6185  0.2954
 8078TIP3   OH245724   6.100   0.805  16.039  0.3445 -0.0395 -0.0123
 8078TIP3    H145725   6.155   0.879  16.014 -0.4732  0.9039  0.8549
 8078TIP3    H245726   6.012   0.842  16.047 -0.3039 -1.3449 -0.6280
 8079TIP3   OH245727   1.901   4.503  12.362  0.0326 -0.2618 -0.2262
 8079TIP3    H145728   1.887   4.554  12.282  0.0863 -0.4132 -0.3320
 8079TIP3    H245729   1.855   4.420  12.346 -1.2783  0.3002  0.5020
 8080TIP3   OH245730   4.152   2.608   0.299 -0.1074  0.2577 -0.1962
 8080TIP3    H145731   4.151   2.645   0.387 -0.4193 -1.2822  0.4778
 8080TIP3    H245732   4.215   2.537   0.303  0.0483  0.3115 -1.2912
 8081TIP3   OH245733   5.093   5.258  12.182 -0.3897 -0.2388 -0.2188
 8081TIP3    H145734   5.098   5.162  12.187  1.6657 -0.1256  0.5233
 8081TIP3    H245735   5.078   5.285  12.273 -1.7678  0.1571 -0.5313
 8082TIP3   OH245736   1.208   3.666   1.467 -0.0124  0.1812 -0.5170
 8082TIP3    H145737   1.276   3.719   1.508  1.6505 -1.5335 -0.8800
 8082TIP3    H245738   1.243   3.647   1.379 -1.7985  0.7109 -1.3851
 8083TIP3   OH245739   5.823   0.041   5.977 -0.0342 -0.2429  0.2889
 8083TIP3    H145740   5.914   0.045   5.947  0.1494  0.3284  0.8862
 8083TIP3    H245741   5.781  -0.023   5.920  1.4603 -2.7478  1.8150
 8084TIP3   OH245742   2.893   5.410  17.036 -0.2100 -0.4736  0.1332
 8084TIP3    H145743   2.893   5.448  16.948  0.7943  0.0656  0.3552
 8084TIP3    H245744   2.844   5.473  17.089 -0.4871 -0.6098  0.0403
 8085TIP3   OH245745   5.250   0.471  12.133 -0.1993  0.5230  0.2427
 8085TIP3    H145746   5.312   0.476  12.206  0.2394  1.6306 -0.1772
 8085TIP3    H245747   5.265   0.384  12.095  2.1269  1.2415 -0.6940
 8086TIP3   OH245748   4.066   3.036   1.433  0.4120 -0.2433 -0.1230
 8086TIP3    H145749   4.044   2.978   1.506 -0.2679 -1.1108 -0.9990
 8086TIP3    H245750   4.159   3.054   1.444  0.9900 -2.6861 -0.6393
 8087TIP3   OH245751   3.555   2.781  15.905  0.2566 -0.4579  0.2052
 8087TIP3    H145752   3.614   2.742  15.840 -0.8083 -0.3399 -0.8650
 8087TIP3    H245753   3.501   2.842  15.855 -2.0379 -1.9069  0.7507
 8088TIP3   OH245754   4.172   4.536  16.199  0.8480  0.4354  0.1011
 8088TIP3    H145755   4.102   4.481  16.164  2.0827 -1.3643  0.3072
 8088TIP3    H245756   4.224   4.559  16.122  2.4136 -1.8362  0.3920
 8089TIP3   OH245757   5.434   3.428  17.191  0.3338 -0.8062  0.8808
 8089TIP3    H145758   5.343   3.406  17.213  0.7995 -0.7869  3.0640
 8089TIP3    H245759   5.430   3.518  17.160 -0.3241 -0.5951  1.5385
 8090TIP3   OH245760   5.266   0.064   3.385  0.0505 -0.0420  0.8492
 8090TIP3    H145761   5.359   0.086   3.386  0.4448 -1.2400 -1.7585
 8090TIP3    H245762   5.264  -0.032   3.388 -1.1730 -0.0217  1.6750
 8091TIP3   OH245763   0.796   6.700  14.265  0.1078  0.4650  0.5615
 8091TIP3    H145764   0.828   6.717  14.176 -0.4319  0.0023  0.2729
 8091TIP3    H245765   0.757   6.612  14.260 -1.7083  1.2258  0.7647
 8092TIP3   OH245766   6.394   5.671  11.740 -0.2176 -0.7832 -0.4498
 8092TIP3    H145767   6.457   5.652  11.810  2.6353  0.0130 -2.5973
 8092TIP3    H245768   6.414   5.607  11.672 -1.1801  0.0365 -1.5470
 8093TIP3   OH245769   6.726   2.583   1.321  0.5335  0.0806  0.0521
 8093TIP3    H145770   6.658   2.649   1.336 -0.2477 -0.7620  0.2894
 8093TIP3    H245771   6.808   2.629   1.339 -0.0372  0.7946  0.9253
 8094TIP3   OH245772   6.130   1.506  16.139 -0.3514  0.1086 -0.5902
 8094TIP3    H145773   6.068   1.475  16.205 -0.7069 -0.0374 -0.9922
 8094TIP3    H245774   6.153   1.427  16.089 -1.7278  0.5698 -2.0174
 8095TIP3   OH245775   2.633   1.617  13.343  0.1660 -0.0108  0.6187
 8095TIP3    H145776   2.677   1.682  13.289  1.3894 -1.9227 -0.8387
 8095TIP3    H245777   2.542   1.619  13.315  0.3664  0.4722 -0.0106
 8096TIP3   OH245778   0.924   2.302   0.685  0.0694  0.6840  0.4704
 8096TIP3    H145779   0.900   2.334   0.599 -0.3614  1.9311  1.0377
 8096TIP3    H245780   0.916   2.206   0.678 -3.1686  0.8759  0.0222
 8097TIP3   OH245781   0.492   2.604  17.049  0.1145  0.2108 -0.4122
 8097TIP3    H145782   0.521   2.655  16.973 -0.0600  1.0301  0.0557
 8097TIP3    H245783   0.404   2.636  17.066 -0.0129 -0.2863 -0.1292
 8098TIP3   OH245784   4.295   4.656  13.469  0.1232  0.2951  0.6061
 8098TIP3    H145785   4.358   4.650  13.397  0.2566  1.7557  0.5584
 8098TIP3    H245786   4.262   4.567  13.480  0.1069  0.0340 -1.2449
 8099TIP3   OH245787   1.244   6.047   4.713 -0.3113 -0.5062 -0.0298
 8099TIP3    H145788   1.263   6.068   4.622  1.4819  2.5517  0.8932
 8099TIP3    H245789   1.285   5.962   4.727 -1.9715 -1.7898 -2.3741
 8100TIP3   OH245790   0.591   5.423   1.287  0.2956  0.1288 -0.3155
 8100TIP3    H145791   0.499   5.430   1.263  0.0911  1.2371  0.6493
 8100TIP3    H245792   0.639   5.450   1.209 -0.2288  0.5050 -0.5117
 8101TIP3   OH245793   0.139   6.634   3.076 -0.3902 -0.6835 -0.0423
 8101TIP3    H145794   0.099   6.615   2.991 -0.1520 -1.5857  0.0395
 8101TIP3    H245795   0.175   6.722   3.066  1.2606 -1.4603 -1.5121
 8102TIP3   OH245796   4.898   0.953  12.035 -0.0762  0.1484  0.2823
 8102TIP3    H145797   4.921   0.868  12.074  1.2498  0.9380  1.3106
 8102TIP3    H245798   4.825   0.933  11.976  0.8801 -1.9013 -0.3395
 8103TIP3   OH245799   1.493   3.107   4.830 -0.1814  0.3562  0.3977
 8103TIP3    H145800   1.482   3.012   4.833  1.8936  0.0035 -0.9798
 8103TIP3    H245801   1.513   3.132   4.920 -0.0551 -0.6214  0.6539
 8104TIP3   OH245802   3.970   0.376  15.618 -0.2075 -0.0696 -0.9417
 8104TIP3    H145803   3.962   0.288  15.657 -2.0808  1.1324  1.6607
 8104TIP3    H245804   3.894   0.424  15.652  1.5806  3.0289 -1.0032
 8105TIP3   OH245805   4.059   5.365   4.058 -0.3429 -0.3044 -0.1669
 8105TIP3    H145806   4.002   5.327   4.124  1.4796  0.0294  1.7159
 8105TIP3    H245807   4.133   5.304   4.052  0.9881  1.1678  0.4117
 8106TIP3   OH245808   0.506   5.799  11.355  0.2215  0.6254  0.3814
 8106TIP3    H145809   0.456   5.718  11.355 -0.5086  1.0366 -1.0739
 8106TIP3    H245810   0.443   5.867  11.378  0.1543  1.0900 -1.0175
 8107TIP3   OH245811   1.803   3.012  13.399  0.2027  0.4492 -0.3770
 8107TIP3    H145812   1.886   3.056  13.380 -0.6827  2.4400  0.0711
 8107TIP3    H245813   1.829   2.928  13.436  2.0060  0.6086 -1.1765
 8108TIP3   OH245814   5.452   1.106   3.959  0.3629 -0.2739  0.0710
 8108TIP3    H145815   5.419   1.196   3.967 -0.4450 -0.4528 -1.0757
 8108TIP3    H245816   5.505   1.093   4.038 -1.2597  0.4723  1.3348
 8109TIP3   OH245817   1.031   0.929  16.258 -0.1908  0.1259 -0.0959
 8109TIP3    H145818   0.982   0.854  16.225 -1.5625  1.2240 -0.6408
 8109TIP3    H245819   0.965   0.987  16.295  0.7645  1.3523 -0.2472
 8110TIP3   OH245820   3.703   2.988   1.143  0.1282 -0.2266 -0.6942
 8110TIP3    H145821   3.700   3.081   1.121  2.2288 -0.2264 -1.1556
 8110TIP3    H245822   3.674   2.943   1.063  2.3000 -0.0303 -1.6619
 8111TIP3   OH245823   4.785   5.747  17.297 -0.4521  0.0006 -0.0491
 8111TIP3    H145824   4.827   5.828  17.326 -0.8706  0.2230 -0.0415
 8111TIP3    H245825   4.850   5.679  17.309 -0.6299  0.0790  1.4723
 8112TIP3   OH245826   2.929   2.342   4.151  0.1077  0.4958  0.4173
 8112TIP3    H145827   2.879   2.398   4.091 -0.5552  2.0348  2.3038
 8112TIP3    H245828   2.869   2.323   4.222  1.0540 -0.7874  0.9082
 8113TIP3   OH245829   6.476   6.289   3.006  0.5802  0.6126 -0.4339
 8113TIP3    H145830   6.467   6.375   3.049 -0.4585  0.2401  0.1233
 8113TIP3    H245831   6.491   6.228   3.078  0.8019  0.2550 -0.7840
 8114TIP3   OH245832   2.817   5.748  16.531  0.0969 -0.1119  0.0149
 8114TIP3    H145833   2.885   5.815  16.542 -1.5207  1.8687 -1.3684
 8114TIP3    H245834   2.776   5.741  16.618 -0.1578  1.2551  0.0372
 8115TIP3   OH245835   1.070   6.460  16.513 -0.3752 -0.9059 -0.1228
 8115TIP3    H145836   1.143   6.516  16.538  0.0595 -1.9098  0.9463
 8115TIP3    H245837   0.993   6.502  16.552 -0.5635  0.6892 -2.0729
 8116TIP3   OH245838   2.400   3.930  16.729  0.1134  0.0419  0.2593
 8116TIP3    H145839   2.466   3.901  16.792  0.7019  0.6373 -0.0757
 8116TIP3    H245840   2.367   4.012  16.765  1.4438  1.1165 -0.8722
 8117TIP3   OH245841   0.846   4.946  14.134 -0.0493 -0.0506 -0.5372
 8117TIP3    H145842   0.781   4.988  14.190 -0.6012 -0.2424 -1.0258
 8117TIP3    H245843   0.876   5.016  14.076 -1.0337 -0.3259 -1.4106
 8118TIP3   OH245844   0.683   4.547   0.413  0.6261 -0.5222  0.0773
 8118TIP3    H145845   0.662   4.637   0.388 -1.0071 -1.2446 -1.3113
 8118TIP3    H245846   0.756   4.522   0.356 -1.2000 -1.1906 -2.0896
 8119TIP3   OH245847   3.471   4.113   3.714 -0.1124 -0.3849  0.6491
 8119TIP3    H145848   3.462   4.022   3.742 -1.7047 -0.0867  1.1926
 8119TIP3    H245849   3.381   4.143   3.701  0.4286  0.7632 -0.7219
 8120TIP3   OH245850   4.547   4.263  13.880 -0.8511  0.2185  0.2433
 8120TIP3    H145851   4.574   4.209  13.806 -0.5153 -1.2827  1.4108
 8120TIP3    H245852   4.560   4.353  13.850  1.4854 -0.3609 -0.7394
 8121TIP3   OH245853   4.609   6.092  12.386  0.4275 -0.1250  0.1069
 8121TIP3    H145854   4.593   6.181  12.356 -3.2747 -0.6071  0.2816
 8121TIP3    H245855   4.636   6.044  12.308  0.6247  0.7310 -0.3578
 8122TIP3   OH245856   0.866   3.015  16.217  0.9615 -0.0851  0.0039
 8122TIP3    H145857   0.877   3.049  16.306  3.0700  2.3816 -1.0755
 8122TIP3    H245858   0.856   2.921  16.229  0.9597  0.1856  2.8566
 8123TIP3   OH245859   1.786   1.068  17.311  0.2431 -0.5288  0.3846
 8123TIP3    H145860   1.723   1.113  17.255  1.2103  1.3338  0.7207
 8123TIP3    H245861   1.869   1.113  17.295  1.3388 -2.3388  0.6057
 8124TIP3   OH245862   5.839   3.452  17.042  0.6592 -0.0534  0.4924
 8124TIP3    H145863   5.799   3.536  17.066 -0.0655  0.2337 -1.5490
 8124TIP3    H245864   5.832   3.399  17.122 -1.4275  0.8911  1.0025
 8125TIP3   OH245865   1.945   1.445   5.874 -0.4800 -0.2021  0.5966
 8125TIP3    H145866   1.901   1.529   5.859 -0.2824  0.2086  2.1750
 8125TIP3    H245867   1.996   1.458   5.954  0.8221 -1.3477 -0.0066
 8126TIP3   OH245868   6.178   2.694  12.538  0.2550 -0.1934  0.2291
 8126TIP3    H145869   6.109   2.741  12.585  0.2819 -2.6550  3.0439
 8126TIP3    H245870   6.249   2.758  12.528 -0.9298  1.2722  0.8242
 8127TIP3   OH245871   5.528   4.164   2.888 -0.0404 -0.7204 -0.0271
 8127TIP3    H145872   5.518   4.244   2.836 -1.9257 -1.4052 -0.7920
 8127TIP3    H245873   5.477   4.098   2.841 -0.4977 -1.7851  1.8470
 8128TIP3   OH245874   6.031   3.401   4.060 -0.2475 -0.0588 -0.1328
 8128TIP3    H145875   6.000   3.489   4.079  0.0217  0.4348 -1.8417
 8128TIP3    H245876   5.967   3.344   4.103 -0.5329  0.9491  0.8276
 8129TIP3   OH245877   0.707   0.160  17.222  0.2678 -0.1851  0.4549
 8129TIP3    H145878   0.647   0.097  17.262 -1.5263  1.6996  0.9378
 8129TIP3    H245879   0.738   0.212  17.295  1.6723 -0.4353  0.0566
 8130TIP3   OH245880   3.027   5.777   2.386  0.4606  0.2660 -0.3604
 8130TIP3    H145881   2.950   5.725   2.364  1.1164 -1.2337  0.6950
 8130TIP3    H245882   3.101   5.716   2.376  1.3873  1.3233 -0.1970
 8131TIP3   OH245883   3.699   2.962  13.667 -0.2885  0.3485 -0.0184
 8131TIP3    H145884   3.633   3.027  13.690  0.3585  0.9935  0.0593
 8131TIP3    H245885   3.771   2.978  13.728  0.3787  0.3617 -0.7806
 8132TIP3   OH245886   4.426   0.216   4.813  0.1148  0.8171  0.2926
 8132TIP3    H145887   4.512   0.211   4.856 -0.3811 -1.4117  1.2018
 8132TIP3    H245888   4.447   0.222   4.719  1.3489 -1.1352  0.3725
 8133TIP3   OH245889   1.850   2.642  16.372  0.1891  0.1972 -0.4152
 8133TIP3    H145890   1.899   2.560  16.381 -0.7143 -0.4212 -0.9360
 8133TIP3    H245891   1.893   2.702  16.433  0.1748 -0.9927  0.8283
 8134TIP3   OH245892   2.239   1.568   1.370  0.2302  0.1228 -0.4235
 8134TIP3    H145893   2.258   1.643   1.313 -1.2955  1.1150  0.2959
 8134TIP3    H245894   2.182   1.512   1.318 -0.2504  0.4690 -0.2753
 8135TIP3   OH245895   3.390   2.219   6.425  0.4016  0.1732  0.0530
 8135TIP3    H145896   3.384   2.181   6.337 -0.3487 -1.2247  0.6750
 8135TIP3    H245897   3.482   2.207   6.450  0.6085  0.5373 -0.5145
 8136TIP3   OH245898   1.509   3.955   0.157 -0.0579 -0.8611  0.2172
 8136TIP3    H145899   1.430   4.008   0.160 -1.0940 -2.0766 -2.4991
 8136TIP3    H245900   1.580   4.017   0.142 -0.5657  0.1484  1.7492
 8137TIP3   OH245901   6.639   6.711  10.326  0.5107 -0.7691 -0.2256
 8137TIP3    H145902   6.649   6.681  10.416  0.2146 -1.5831 -0.4499
 8137TIP3    H245903   6.715   6.673  10.281 -0.1782 -1.6989 -0.6365
 8138TIP3   OH245904   5.201   5.959  17.323  0.3782  0.0771 -0.2746
 8138TIP3    H145905   5.109   5.969  17.348  0.4355 -0.9872  0.4655
 8138TIP3    H245906   5.240   6.044  17.342 -0.3010  0.3179  0.1043
 8139TIP3   OH245907   0.830   4.905  12.720  0.2576  0.7412  0.5509
 8139TIP3    H145908   0.803   4.831  12.666 -2.9871  1.4095  1.0564
 8139TIP3    H245909   0.836   4.978  12.659  0.9501  0.6127  0.4548
 8140TIP3   OH245910   3.416   6.590  16.694  0.2720 -0.1324  0.5430
 8140TIP3    H145911   3.399   6.654  16.763  1.1242 -1.4576  2.0489
 8140TIP3    H245912   3.511   6.581  16.693  0.1715 -1.2295  0.2336
 8141TIP3   OH245913   6.581   6.233   2.252  0.6428 -0.2332 -0.1264
 8141TIP3    H145914   6.633   6.182   2.190  1.1550 -0.7757  0.7287
 8141TIP3    H245915   6.638   6.246   2.327 -0.3992 -0.7157  0.7796
 8142TIP3   OH245916   6.596   5.964   3.053 -0.3003  0.2058 -0.4528
 8142TIP3    H145917   6.669   6.025   3.050 -2.3142  3.2219  3.3244
 8142TIP3    H245918   6.627   5.892   3.109  0.4957  0.2152 -0.8684
 8143TIP3   OH245919   5.205   6.156  15.202 -0.3188 -0.2865  0.0265
 8143TIP3    H145920   5.259   6.199  15.269  2.1367 -3.0367  0.0192
 8143TIP3    H245921   5.195   6.222  15.133  1.5830  0.9294  0.8276
 8144TIP3   OH245922   6.008   0.563  13.408 -0.1654 -0.2074  0.0698
 8144TIP3    H145923   5.999   0.514  13.326 -0.4853 -1.4797  0.8336
 8144TIP3    H245924   6.040   0.649  13.381 -0.1142 -0.6479 -1.3737
 8145TIP3   OH245925   0.625   5.583  14.966 -0.1794  0.3416 -0.7157
 8145TIP3    H145926   0.644   5.557  14.875 -0.5862  2.0009 -1.3010
 8145TIP3    H245927   0.709   5.617  14.998  0.4462 -1.8082  0.1663
 8146TIP3   OH245928   5.144   6.350  13.614  0.0157 -0.1488 -0.0802
 8146TIP3    H145929   5.099   6.284  13.667  1.4389  0.0480  1.4289
 8146TIP3    H245930   5.191   6.299  13.548  0.9617 -0.6691  0.9615
 8147TIP3   OH245931   1.861   5.598  16.521  0.0041  0.5314  0.8792
 8147TIP3    H145932   1.830   5.644  16.599 -0.3765 -0.8787  1.5878
 8147TIP3    H245933   1.955   5.617  16.517 -0.1882  1.5420  1.0145
 8148TIP3   OH245934   6.036   3.438   2.872  0.3072  0.0794 -0.2431
 8148TIP3    H145935   6.051   3.345   2.885 -0.3925 -0.2113 -1.4128
 8148TIP3    H245936   5.980   3.464   2.946 -0.0603 -0.5863 -0.2814
 8149TIP3   OH245937   0.339   6.154  13.098 -0.0242 -0.4266 -0.8158
 8149TIP3    H145938   0.331   6.245  13.070  3.6008 -0.5068 -2.6847
 8149TIP3    H245939   0.353   6.159  13.193 -0.9578  0.8416 -0.7272
 8150TIP3   OH245940   5.238   0.341  15.797  0.2846 -0.2391 -0.2700
 8150TIP3    H145941   5.182   0.264  15.788 -0.7900  0.3735  0.8692
 8150TIP3    H245942   5.212   0.381  15.880  2.1021  0.3378  0.0757
 8151TIP3   OH245943   6.450   2.591   1.622 -0.0504  0.2114  0.2903
 8151TIP3    H145944   6.441   2.552   1.535  1.8652 -0.8260  0.4986
 8151TIP3    H245945   6.456   2.685   1.606 -2.1663  0.2667 -0.4543
 8152TIP3   OH245946   3.427   1.424   5.562  0.4315  0.2573 -0.3460
 8152TIP3    H145947   3.335   1.424   5.591  0.4743  1.8137 -0.1530
 8152TIP3    H245948   3.474   1.382   5.634 -0.2519 -1.8103 -1.0185
 8153TIP3   OH245949   4.595   0.672   2.971  0.6616 -0.2657  0.1026
 8153TIP3    H145950   4.586   0.690   3.065 -0.2943 -0.8919  0.1413
 8153TIP3    H245951   4.651   0.743   2.939  1.1625 -0.1482  1.1763
 8154TIP3   OH245952   0.736   3.918  15.707 -0.4139 -0.3366  0.2551
 8154TIP3    H145953   0.802   3.937  15.774 -0.8589 -0.9871  0.8866
 8154TIP3    H245954   0.730   3.998  15.656 -0.2773  0.2697  1.1688
 8155TIP3   OH245955   6.382   2.348  16.772 -0.0045  0.1788  0.0294
 8155TIP3    H145956   6.454   2.383  16.721 -1.2976  0.2582 -1.8167
 8155TIP3    H245957   6.339   2.284  16.715 -2.9227  1.9429  0.0194
 8156TIP3   OH245958   5.029   5.944  15.613  0.2111 -0.1104  0.0225
 8156TIP3    H145959   4.963   6.013  15.618  0.8605  0.5227 -0.0108
 8156TIP3    H245960   5.011   5.888  15.689 -0.6078 -0.1719 -0.2099
 8157TIP3   OH245961   3.687   4.360   4.643  0.5202  0.0508 -0.5231
 8157TIP3    H145962   3.762   4.414   4.665 -0.1340  1.0441 -0.6976
 8157TIP3    H245963   3.619   4.386   4.704 -0.4673  0.9535 -1.9653
 8158TIP3   OH245964   2.758   0.245   1.827 -0.2513  0.1321  0.4958
 8158TIP3    H145965   2.738   0.240   1.733 -0.0179  2.6783  0.2512
 8158TIP3    H245966   2.681   0.207   1.870 -0.4357 -0.9115 -0.7016
 8159TIP3   OH245967   4.113   3.333   0.159  0.2506 -0.3848 -0.8473
 8159TIP3    H145968   4.205   3.309   0.150  1.0039  1.8443  0.2077
 8159TIP3    H245969   4.099   3.399   0.092  0.4857  1.9012  1.2205
 8160TIP3   OH245970   1.496   4.406  14.304 -0.1913 -0.2865  0.0017
 8160TIP3    H145971   1.499   4.329  14.360 -1.9764  1.0757  2.1507
 8160TIP3    H245972   1.564   4.464  14.338  0.0530 -0.2327 -0.5573
 8161TIP3   OH245973   2.040   3.805   1.159  0.1971 -0.3351 -0.7704
 8161TIP3    H145974   2.118   3.811   1.215  0.1228 -0.6842 -0.6238
 8161TIP3    H245975   1.967   3.810   1.221  0.1193 -1.9379 -0.6884
 8162TIP3   OH245976   3.886   2.553   5.936  0.2421 -0.1863 -0.1653
 8162TIP3    H145977   3.892   2.646   5.912 -1.8255 -0.6757 -3.1323
 8162TIP3    H245978   3.799   2.543   5.973 -0.2063 -1.2128 -1.4347
 8163TIP3   OH245979   1.505   0.346  14.546  0.2544 -0.1705  0.5678
 8163TIP3    H145980   1.586   0.330  14.595  0.6378 -2.2245 -0.6245
 8163TIP3    H245981   1.523   0.312  14.459 -1.0184  1.7792 -0.5266
 8164TIP3   OH245982   5.006   0.616   5.818 -0.0818  0.1199 -0.4171
 8164TIP3    H145983   5.084   0.571   5.785  0.8039  2.5846 -1.9875
 8164TIP3    H245984   4.946   0.616   5.744  1.2581  4.2203 -1.8075
 8165TIP3   OH245985   1.845   5.396   3.495  0.3166  0.9064 -0.4768
 8165TIP3    H145986   1.848   5.379   3.589  1.9944 -0.4413 -0.7219
 8165TIP3    H245987   1.799   5.321   3.458 -2.6084  2.6098 -0.5786
 8166TIP3   OH245988   4.996   0.943   7.044 -0.3763 -1.0758 -0.5320
 8166TIP3    H145989   5.030   0.854   7.038 -0.5765 -1.1997  0.1195
 8166TIP3    H245990   5.021   0.984   6.961  2.5702 -0.7345  0.3941
 8167TIP3   OH245991   3.800   5.514  16.727 -0.0312  0.5737 -0.2258
 8167TIP3    H145992   3.856   5.461  16.671 -0.2381  1.0240 -0.8745
 8167TIP3    H245993   3.772   5.454  16.796  1.0212  0.2734 -0.0392
 8168TIP3   OH245994   0.835   6.184  12.728 -0.7663  1.3211  0.4831
 8168TIP3    H145995   0.815   6.090  12.721 -0.3212  1.1809  0.9723
 8168TIP3    H245996   0.750   6.226  12.737 -1.1432  1.1780 -1.7170
 8169TIP3   OH245997   2.575   0.563   3.006  0.2618  0.7449 -0.2336
 8169TIP3    H145998   2.649   0.502   3.003 -1.5858 -1.7012  0.6026
 8169TIP3    H245999   2.510   0.524   2.947 -0.8741  2.0818  0.1037
 8170TIP3   OH246000   2.975   0.190  17.155 -0.4948  0.9697 -0.0644
 8170TIP3    H146001   2.986   0.135  17.233  1.0118  0.4916 -0.5799
 8170TIP3    H246002   3.060   0.189  17.113 -0.7441  2.8396 -0.6923
 8171TIP3   OH246003   3.190   1.719  14.529  0.4645  0.4510 -0.2121
 8171TIP3    H146004   3.126   1.748  14.464  0.9082  1.7066 -0.1124
 8171TIP3    H246005   3.176   1.624  14.535 -0.7823  0.5692 -0.8279
 8172TIP3   OH246006   3.609   6.559  10.735  0.6506 -1.0333  0.0787
 8172TIP3    H146007   3.572   6.646  10.721  1.6088 -0.8585 -1.6608
 8172TIP3    H246008   3.540   6.498  10.709  0.6175 -0.7576 -0.4763
 8173TIP3   OH246009   6.279   6.451   1.339 -0.5153 -0.1268  0.1297
 8173TIP3    H146010   6.313   6.377   1.289  0.1070  0.6057 -0.5819
 8173TIP3    H246011   6.356   6.485   1.386 -0.2824  1.3461 -1.2254
 8174TIP3   OH246012   2.621   5.157   5.037  0.0004  0.4400  0.2071
 8174TIP3    H146013   2.677   5.209   4.981  0.2531  1.4656  1.3540
 8174TIP3    H246014   2.614   5.208   5.118 -0.3690 -0.9587  1.0966
 8175TIP3   OH246015   1.257   2.681   6.058 -0.5369 -0.2068  0.7876
 8175TIP3    H146016   1.186   2.623   6.029 -0.6208  1.1398 -2.0183
 8175TIP3    H246017   1.215   2.740   6.120 -2.1539  0.9971 -1.3106
 8176TIP3   OH246018   0.984   0.404   3.980  0.2461  0.2789 -0.0449
 8176TIP3    H146019   0.950   0.350   4.051 -0.7905 -0.3033 -0.9423
 8176TIP3    H246020   1.076   0.418   4.002 -0.0177  0.0053  1.3287
 8177TIP3   OH246021   5.773   1.039  13.303  0.0965  0.0804 -0.0665
 8177TIP3    H146022   5.763   1.131  13.325  2.0463  0.7610 -1.7095
 8177TIP3    H246023   5.865   1.029  13.281 -0.3632 -1.9265 -1.4109
 8178TIP3   OH246024   2.325   6.112   2.847 -0.2808 -0.0048 -0.3630
 8178TIP3    H146025   2.271   6.168   2.903  0.8224 -0.0546  0.7829
 8178TIP3    H246026   2.313   6.023   2.882 -0.9077 -0.3001 -1.2826
 8179TIP3   OH246027   6.472   3.496  12.261 -0.0904 -0.0553 -0.1434
 8179TIP3    H146028   6.562   3.529  12.254  0.3614 -1.3176 -0.5596
 8179TIP3    H246029   6.434   3.513  12.175  0.0728 -0.4248 -0.2890
 8180TIP3   OH246030   5.250   0.272   4.284  0.2705 -0.0417 -0.1317
 8180TIP3    H146031   5.198   0.268   4.364 -0.1433 -0.3102 -0.4104
 8180TIP3    H246032   5.281   0.182   4.271 -1.0383 -0.3877 -1.1586
 8181TIP3   OH246033   0.647   1.612  15.179 -0.2311 -0.1785  0.1389
 8181TIP3    H146034   0.709   1.568  15.236  0.1077  0.2707  0.1226
 8181TIP3    H246035   0.636   1.554  15.104  0.2403 -0.2121  0.0985
 8182TIP3   OH246036   4.570   2.691  14.719  0.7081  0.0939  0.1456
 8182TIP3    H146037   4.584   2.739  14.638 -0.1726  0.8927  0.4477
 8182TIP3    H246038   4.623   2.612  14.710 -0.8516 -0.7840 -2.0376
 8183TIP3   OH246039   4.506   5.773  16.531 -0.1877  0.5855 -0.5589
 8183TIP3    H146040   4.433   5.737  16.580 -1.4915  2.7885 -0.7632
 8183TIP3    H246041   4.488   5.750  16.440 -0.3756  0.7122 -0.5539
 8184TIP3   OH246042   0.309   1.901  14.655  0.3031 -0.3713  0.1746
 8184TIP3    H146043   0.400   1.910  14.681  0.0057  2.8558  0.4817
 8184TIP3    H246044   0.262   1.963  14.710 -2.1946 -2.2170  0.3003
 8185TIP3   OH246045   4.942   5.987   3.728 -0.5014 -0.2914 -0.2290
 8185TIP3    H146046   4.876   5.925   3.697 -1.0929 -0.6228  1.5706
 8185TIP3    H246047   4.894   6.047   3.785  0.8168 -0.9578  1.6839
 8186TIP3   OH246048   0.249   4.310  15.030 -0.4803 -0.4908 -0.4985
 8186TIP3    H146049   0.224   4.338  14.943  0.8295  0.4142 -0.6184
 8186TIP3    H246050   0.217   4.379  15.088 -2.5375 -1.7362 -0.0619
 8187TIP3   OH246051   0.458   5.056   5.520 -0.4552 -0.2193  0.4403
 8187TIP3    H146052   0.513   5.097   5.587 -0.5409  1.0314 -0.2298
 8187TIP3    H246053   0.512   4.987   5.483  0.7722  1.0909 -0.3220
 8188TIP3   OH246054   5.639   6.409  10.558 -0.1299 -0.9693  0.3638
 8188TIP3    H146055   5.554   6.442  10.588 -1.8378 -1.3550 -3.5310
 8188TIP3    H246056   5.680   6.484  10.514  0.7709 -1.3081  0.5960
 8189TIP3   OH246057   0.674   3.975  15.374  0.3038  0.2991  0.3574
 8189TIP3    H146058   0.752   3.931  15.409  0.2111  0.1488  0.3739
 8189TIP3    H246059   0.701   4.067  15.364  0.4712  0.2552  0.3993
 8190TIP3   OH246060   2.477   6.721   1.559  0.1137  0.0298  0.1192
 8190TIP3    H146061   2.457   6.750   1.648  1.1623  2.7255 -0.4032
 8190TIP3    H246062   2.427   6.780   1.503  1.2928 -0.0330 -1.0704
 8191TIP3   OH246063   3.873   3.547   2.142  0.1595  0.2299 -0.4067
 8191TIP3    H146064   3.933   3.539   2.216 -1.0057  0.4362  0.5952
 8191TIP3    H246065   3.890   3.470   2.088 -0.3231 -0.9756  1.1071
 8192TIP3   OH246066   1.639   5.060  12.482 -0.3576  0.0393  0.3494
 8192TIP3    H146067   1.690   5.011  12.418 -0.3015 -1.4217  1.4649
 8192TIP3    H246068   1.703   5.121  12.521  0.2053 -0.7581  0.7053
 8193TIP3   OH246069   5.218   2.946  11.890 -0.3275 -0.1344  0.2013
 8193TIP3    H146070   5.188   2.969  11.802  1.0861 -0.1859 -0.3089
 8193TIP3    H246071   5.283   3.013  11.912 -2.9317  1.8836  2.5929
 8194TIP3   OH246072   1.101   4.361   1.684 -0.2927  0.7263  0.2194
 8194TIP3    H146073   1.180   4.408   1.659 -1.3078  2.4427  0.0759
 8194TIP3    H246074   1.076   4.314   1.605  0.4933  0.2894  0.2227
 8195TIP3   OH246075   6.436   1.180   1.498 -0.0526  0.1951  0.3996
 8195TIP3    H146076   6.449   1.085   1.492 -0.2953  0.1974 -0.2205
 8195TIP3    H246077   6.398   1.193   1.584  1.3632 -0.1126  1.1068
 8196TIP3   OH246078   1.588   0.139  17.309 -0.1398  0.5403 -0.1051
 8196TIP3    H146079   1.611   0.046  17.299 -0.1881  0.3839  1.1153
 8196TIP3    H246080   1.556   0.146  17.399  1.8444  2.1366  0.5493
 8197TIP3   OH246081   6.381   2.512  17.008  0.0427  0.0937  0.4435
 8197TIP3    H146082   6.473   2.538  17.005 -0.0867  0.5203 -0.2394
 8197TIP3    H246083   6.371   2.450  16.936 -0.5224  1.2241 -0.5097
 8198TIP3   OH246084   3.988   3.266  14.284  0.5304 -0.3621  0.3922
 8198TIP3    H146085   3.964   3.354  14.255 -0.0352 -0.1062  1.5731
 8198TIP3    H246086   3.905   3.217  14.284 -0.0415  0.3379  3.8549
 8199TIP3   OH246087   0.739   3.381  11.383 -0.0542 -0.7302 -0.1051
 8199TIP3    H146088   0.690   3.386  11.301 -1.3203 -1.7943  0.5491
 8199TIP3    H246089   0.719   3.294  11.417 -1.1823  0.3721  2.2961
 8200TIP3   OH246090   1.181   2.811   2.182 -0.2369  0.3315 -0.8227
 8200TIP3    H146091   1.251   2.796   2.246 -0.3111  0.7013 -0.6488
 8200TIP3    H246092   1.190   2.904   2.159 -0.6265  0.3635 -0.8499
 8201TIP3   OH246093   2.381   4.412  13.914  0.0865 -0.1929 -0.3391
 8201TIP3    H146094   2.377   4.341  13.850 -2.0803  0.4211 -0.9944
 8201TIP3    H246095   2.295   4.410  13.958  0.0802  1.7617 -0.1331
 8202TIP3   OH246096   3.961   3.157  11.921 -0.5683  0.4942  0.5462
 8202TIP3    H146097   4.024   3.182  11.989  1.1310 -0.0739 -0.7381
 8202TIP3    H246098   4.007   3.174  11.838 -2.3141  0.5373 -0.4644
 8203TIP3   OH246099   3.903   4.318  11.324 -0.2565  0.0493  0.4437
 8203TIP3    H146100   3.863   4.253  11.382 -2.9652  1.2792  0.1055
 8203TIP3    H246101   3.874   4.402  11.359  2.1722  1.0950  0.1612
 8204TIP3   OH246102   3.690   6.641  15.714  0.3577  0.1803  0.1782
 8204TIP3    H146103   3.633   6.569  15.741  2.2344 -1.2202  0.5950
 8204TIP3    H246104   3.655   6.669  15.630  0.5524 -2.4035 -0.8495
 8205TIP3   OH246105   2.989   3.076  12.340  0.1864  0.4831 -0.7382
 8205TIP3    H146106   2.958   3.002  12.288 -1.6518  2.1426 -2.1510
 8205TIP3    H246107   3.057   3.117  12.286 -0.3409  1.0637 -0.9799
 8206TIP3   OH246108   4.352   3.674   4.561  0.8976  0.2074  0.4964
 8206TIP3    H146109   4.367   3.639   4.649  0.0465 -2.1552 -0.2202
 8206TIP3    H246110   4.399   3.614   4.503 -0.5999  0.2302 -0.8081
 8207TIP3   OH246111   3.163   5.553  14.877 -0.3488  0.4610 -0.2119
 8207TIP3    H146112   3.226   5.485  14.854 -1.9636 -0.1997 -3.1631
 8207TIP3    H246113   3.193   5.585  14.962  2.9105 -0.9936 -0.6397
 8208TIP3   OH246114   4.107   3.509  15.364 -0.0781  0.4888  0.3877
 8208TIP3    H146115   4.046   3.571  15.404 -0.1633  1.2550 -0.8938
 8208TIP3    H246116   4.156   3.473  15.438 -0.2074  1.8809  1.1821
 8209TIP3   OH246117   2.695   1.318  15.840  0.5431  0.0894 -0.2212
 8209TIP3    H146118   2.636   1.304  15.766 -1.7942  0.6404  1.4120
 8209TIP3    H246119   2.723   1.409  15.832 -1.7403  0.9733  0.8186
 8210TIP3   OH246120   3.206   3.943  13.142  0.4710 -0.1150 -0.4036
 8210TIP3    H146121   3.219   3.919  13.233 -1.6625 -0.1239 -0.0470
 8210TIP3    H246122   3.170   3.864  13.101 -2.5351  1.0333 -0.2173
 8211TIP3   OH246123   1.680   0.383  13.794 -0.2770  0.2622 -0.2427
 8211TIP3    H146124   1.744   0.348  13.731  1.5800 -1.4127  2.3733
 8211TIP3    H246125   1.710   0.472  13.811  0.3389  0.0860 -0.3568
 8212TIP3   OH246126   6.438   6.250  12.820  0.3952  0.4937  0.0924
 8212TIP3    H146127   6.426   6.339  12.788  1.4297  1.0145  1.0800
 8212TIP3    H246128   6.493   6.259  12.898 -1.0841 -0.8348  1.3542
 8213TIP3   OH246129   0.951   5.789   0.754  0.1670 -0.9486 -0.5701
 8213TIP3    H146130   0.868   5.817   0.792  0.2642 -1.0035 -0.3106
 8213TIP3    H246131   0.994   5.741   0.825  1.4319  1.0262  0.0846
 8214TIP3   OH246132   0.595   3.348  11.163  0.1490  0.0910 -0.0534
 8214TIP3    H146133   0.609   3.266  11.117  0.8672  0.8004 -1.1598
 8214TIP3    H246134   0.615   3.416  11.098  1.6363  1.1385  1.4067
 8215TIP3   OH246135   0.188   4.843   2.621 -0.1481 -0.4258 -0.3912
 8215TIP3    H146136   0.117   4.895   2.583  0.8968 -1.1427 -3.6375
 8215TIP3    H246137   0.267   4.873   2.576  0.8416 -3.1536 -0.6751
 8216TIP3   OH246138   1.831   0.474  12.430 -0.0381 -0.0869 -0.5689
 8216TIP3    H146139   1.844   0.484  12.524 -3.0853 -1.8898  0.1555
 8216TIP3    H246140   1.913   0.436  12.399  0.7517 -0.1474  1.4584
 8217TIP3   OH246141   0.953   1.461   2.006 -0.4746 -0.3249 -0.2179
 8217TIP3    H146142   0.975   1.377   2.047 -1.4225 -0.9442 -0.9168
 8217TIP3    H246143   0.876   1.442   1.953  0.6349  0.4519 -2.2094
 8218TIP3   OH246144   4.957   6.733  11.920 -0.0586  0.3809 -0.2352
 8218TIP3    H146145   4.918   6.673  11.856 -0.5861  2.1110 -1.6188
 8218TIP3    H246146   5.046   6.746  11.889  0.1095  0.1878  0.1622
 8219TIP3   OH246147   2.747   4.312   2.804  0.3149  0.3428  0.1875
 8219TIP3    H146148   2.662   4.278   2.832  0.3466  0.6711  0.6949
 8219TIP3    H246149   2.811   4.257   2.848  0.3641  0.4240  0.2190
 8220TIP3   OH246150   6.277   0.275   2.006 -0.1894  0.0421  0.0692
 8220TIP3    H146151   6.261   0.198   2.060 -1.2721  0.3205  0.1829
 8220TIP3    H246152   6.308   0.342   2.067  0.7384 -0.2839 -0.0280
 8221TIP3   OH246153   0.221   4.600  15.491 -0.0886  0.8560  0.0002
 8221TIP3    H146154   0.274   4.655  15.549  0.1118  0.5270  0.1352
 8221TIP3    H246155   0.231   4.640  15.405  0.3880  0.7973  0.0221
 8222TIP3   OH246156   3.357   0.026  12.766  0.3052  0.7232 -0.6368
 8222TIP3    H146157   3.451   0.010  12.761  0.2612  0.5064 -0.7673
 8222TIP3    H246158   3.323  -0.004  12.682 -0.5320 -3.4931  0.9778
 8223TIP3   OH246159   3.109   2.234   6.401 -0.0473  0.1051 -0.0064
 8223TIP3    H146160   3.059   2.272   6.474 -1.7562  0.3536 -1.2548
 8223TIP3    H246161   3.195   2.217   6.438 -0.6903  0.7515  1.9224
 8224TIP3   OH246162   5.069   5.674   3.605  0.0298 -0.1904  0.4440
 8224TIP3    H146163   5.026   5.738   3.549  0.5699 -1.4611 -1.5354
 8224TIP3    H246164   5.153   5.715   3.628  0.1389  0.0642 -0.3578
 8225TIP3   OH246165   1.329   6.256   5.671 -0.2075 -0.4888  0.3531
 8225TIP3    H146166   1.254   6.230   5.725 -0.3715 -0.9624 -0.0917
 8225TIP3    H246167   1.387   6.180   5.672  1.0585  0.4339  2.0051
 8226TIP3   OH246168   1.523   2.668  13.854  1.1013 -0.2371 -0.6671
 8226TIP3    H146169   1.578   2.594  13.876 -0.2309 -1.2065 -0.4800
 8226TIP3    H246170   1.568   2.711  13.781  1.9962 -1.0979 -0.6323
 8227TIP3   OH246171   4.222   1.366  17.185 -0.2543  0.1128 -0.2429
 8227TIP3    H146172   4.195   1.391  17.273  0.0231  0.3899 -0.2339
 8227TIP3    H246173   4.150   1.312  17.152 -0.3580  0.0077  0.1524
 8228TIP3   OH246174   3.032   5.648  17.266 -0.9805 -0.0458 -0.1922
 8228TIP3    H146175   3.027   5.744  17.270  0.2995  0.0254 -0.0461
 8228TIP3    H246176   2.949   5.622  17.226 -1.8914  1.0341  0.9269
 8229TIP3   OH246177   1.131   5.725   2.636 -0.3633  0.0913 -0.3036
 8229TIP3    H146178   1.170   5.638   2.632 -0.8750 -0.1726  0.3199
 8229TIP3    H246179   1.203   5.785   2.616  0.7797 -0.2734  2.3195
 8230TIP3   OH246180   2.852   5.884   4.035 -0.2089 -0.2211  0.0519
 8230TIP3    H146181   2.898   5.801   4.023 -0.2071 -0.0489 -1.3488
 8230TIP3    H246182   2.900   5.946   3.980  0.7230  1.1130  2.2555
 8231TIP3   OH246183   0.951   0.270  12.115 -0.3174  0.3179  0.1999
 8231TIP3    H146184   0.961   0.344  12.055 -0.4080  2.0064  2.1478
 8231TIP3    H246185   0.856   0.262  12.127 -0.2727  0.3896  0.5950
 8232TIP3   OH246186   4.279   5.129   4.835 -0.4761 -0.2829  0.3558
 8232TIP3    H146187   4.246   5.052   4.882 -0.1933 -0.3997  0.3636
 8232TIP3    H246188   4.365   5.102   4.803  0.2279  0.4978  1.5397
 8233TIP3   OH246189   1.142   3.662   1.783  0.0563  0.2155  0.2472
 8233TIP3    H146190   1.216   3.629   1.732  0.7582  1.1910  0.6020
 8233TIP3    H246191   1.148   3.615   1.867  0.3610  0.3851  0.3231
 8234TIP3   OH246192   3.499   5.541   3.191 -0.3860 -0.5646  0.6631
 8234TIP3    H146193   3.474   5.585   3.272  1.1316  0.0281  0.8536
 8234TIP3    H246194   3.595   5.534   3.197 -0.1905 -0.0360 -1.3081
 8235TIP3   OH246195   6.295   2.973  12.806 -0.3355  0.1752 -0.7360
 8235TIP3    H146196   6.349   2.943  12.879  0.8036  0.8383 -1.2629
 8235TIP3    H246197   6.236   2.901  12.788  2.5306 -2.0370 -2.2060
 8236TIP3   OH246198   4.747   5.544   5.503  0.2176 -0.1806 -0.0488
 8236TIP3    H146199   4.686   5.618   5.497 -1.7821 -1.5614  1.7620
 8236TIP3    H246200   4.795   5.559   5.585 -1.0893 -1.4461  0.9940
 8237TIP3   OH246201   3.821   4.684  11.086 -0.3838 -0.2328  0.1582
 8237TIP3    H146202   3.806   4.747  11.015  0.0401 -0.5942 -0.2557
 8237TIP3    H246203   3.903   4.712  11.126  0.9807 -1.7785 -1.4235
 8238TIP3   OH246204   1.704   1.549  14.394 -0.0734 -0.0840 -0.5440
 8238TIP3    H146205   1.724   1.460  14.364  1.0361  0.0005 -0.1162
 8238TIP3    H246206   1.709   1.544  14.489 -0.8455  0.2560 -0.4816
 8239TIP3   OH246207   2.236   6.197   0.265 -0.1078 -0.5445  0.3030
 8239TIP3    H146208   2.246   6.103   0.249  0.9795 -0.6556  1.5369
 8239TIP3    H246209   2.324   6.232   0.259 -0.4296  0.3083  0.4289
 8240TIP3   OH246210   3.583   6.313   0.803 -0.5331 -0.1113 -0.8846
 8240TIP3    H146211   3.597   6.373   0.730 -0.0337  2.1527  0.9225
 8240TIP3    H246212   3.492   6.329   0.830 -0.0325  0.8319  0.3664
 8241TIP3   OH246213   3.404   0.617   5.743 -0.2178 -0.0798 -0.1913
 8241TIP3    H146214   3.469   0.610   5.673  0.5679  0.7043  0.4362
 8241TIP3    H246215   3.389   0.711   5.752 -1.9471 -0.2648 -0.7611
 8242TIP3   OH246216   6.504   6.651   1.156 -0.1547  0.2033  0.7783
 8242TIP3    H146217   6.415   6.645   1.189 -0.5489 -0.0697 -0.2857
 8242TIP3    H246218   6.510   6.738   1.117 -0.9009 -0.7666 -1.6731
 8243TIP3   OH246219   2.864   6.267   3.024  0.2293  0.6248 -0.1662
 8243TIP3    H146220   2.942   6.269   2.969  0.1736  0.9925 -0.2355
 8243TIP3    H246221   2.845   6.360   3.042  1.2542  0.4916  1.9140
 8244TIP3   OH246222   1.998   6.398  16.622  0.5360 -0.1953  0.1093
 8244TIP3    H146223   1.910   6.368  16.597 -0.2378  0.8626  1.4159
 8244TIP3    H246224   2.010   6.479  16.573  1.4030 -1.0681 -1.1658
 8245TIP3   OH246225   4.389   3.143   3.408 -0.0093  0.0722  0.2829
 8245TIP3    H146226   4.395   3.214   3.472 -2.3042  1.1104 -0.5384
 8245TIP3    H246227   4.451   3.167   3.340  0.7407  0.1715  0.9831
 8246TIP3   OH246228   6.693   6.207  16.555 -0.3140  0.4864 -0.2706
 8246TIP3    H146229   6.677   6.290  16.509 -1.9587  0.1942 -0.2908
 8246TIP3    H246230   6.760   6.228  16.619  0.2912  1.5003 -1.1908
 8247TIP3   OH246231   4.815   0.550  14.964 -0.5138 -0.1692 -0.1410
 8247TIP3    H146232   4.882   0.607  14.926 -0.6736 -0.1220 -0.3502
 8247TIP3    H246233   4.847   0.461  14.948  0.0743 -0.1417  0.7830
 8248TIP3   OH246234   5.407   5.060  15.012 -0.3706  0.6157  0.8188
 8248TIP3    H146235   5.351   4.999  15.059 -0.0905 -0.2840  0.0129
 8248TIP3    H246236   5.483   5.072  15.068 -0.0449 -0.4405  0.6240
 8249TIP3   OH246237   4.106   1.109   0.554  0.0739  0.3530  0.3391
 8249TIP3    H146238   4.188   1.156   0.570  0.0183  0.7723 -0.5270
 8249TIP3    H246239   4.059   1.114   0.637  0.0520  1.9095  0.2759
 8250TIP3   OH246240   1.856   6.559  16.857  0.1623  0.4437 -0.3302
 8250TIP3    H146241   1.788   6.626  16.850  0.1796  0.5517  0.4450
 8250TIP3    H246242   1.866   6.526  16.768 -2.1972 -0.8305 -0.2168
 8251TIP3   OH246243   3.276   4.464   0.306 -0.1175 -0.6267 -0.0190
 8251TIP3    H146244   3.232   4.406   0.244 -1.7757  0.4838  0.0465
 8251TIP3    H246245   3.209   4.486   0.370  1.0098 -0.1358  1.0399
 8252TIP3   OH246246   6.338   1.625  12.657 -0.1806  0.1404  0.0702
 8252TIP3    H146247   6.305   1.654  12.572  0.1123 -0.2527 -0.1810
 8252TIP3    H246248   6.428   1.658  12.660 -1.2659  3.4639  1.8256
 8253TIP3   OH246249   1.108   4.558  13.467 -0.0308  0.1363 -0.0805
 8253TIP3    H146250   1.037   4.586  13.409 -0.8068  0.1379  0.8403
 8253TIP3    H246251   1.109   4.463  13.459 -1.0503  0.0174  0.8963
 8254TIP3   OH246252   3.796   0.223  11.810 -0.3259 -0.0163 -0.1943
 8254TIP3    H146253   3.863   0.288  11.790 -1.5044  1.1363 -0.5542
 8254TIP3    H246254   3.735   0.227  11.736 -0.3910 -1.6104 -0.2680
 8255TIP3   OH246255   1.184   3.524   3.556  0.3206  0.5459 -0.8970
 8255TIP3    H146256   1.093   3.496   3.550  0.4055 -0.0358  0.1977
 8255TIP3    H246257   1.227   3.487   3.479  0.0877 -1.0437 -0.3024
 8256TIP3   OH246258   0.869   1.690   3.146 -0.1003 -0.1888 -0.3878
 8256TIP3    H146259   0.878   1.712   3.053 -1.8183 -1.1180 -0.8135
 8256TIP3    H246260   0.921   1.610   3.157 -1.5923 -1.3132 -1.0961
 8257TIP3   OH246261   0.664   3.194  14.164  0.9758  0.3894 -0.4191
 8257TIP3    H146262   0.653   3.132  14.236  2.1612 -0.4192 -0.9116
 8257TIP3    H246263   0.737   3.249  14.190  1.2852  0.2183 -0.9208
 8258TIP3   OH246264   4.739   1.425   2.421  0.6422  0.1914 -0.5467
 8258TIP3    H146265   4.696   1.482   2.357  1.4647  2.8933  1.1139
 8258TIP3    H246266   4.829   1.418   2.391  0.3672 -0.9534 -1.1574
 8259TIP3   OH246267   2.755   2.644   5.068 -0.3865 -0.3825  0.2325
 8259TIP3    H146268   2.737   2.726   5.113  1.3326 -0.1156  0.4764
 8259TIP3    H246269   2.842   2.618   5.098 -0.1561 -1.3839 -1.2024
 8260TIP3   OH246270   1.471   1.004   6.427  0.2789  0.5103 -0.7953
 8260TIP3    H146271   1.401   0.952   6.388  0.7019 -1.0306  0.3971
 8260TIP3    H246272   1.437   1.093   6.429  0.1632  0.6971 -4.4506
 8261TIP3   OH246273   4.303   3.262  13.461 -0.1315 -0.4096  0.3167
 8261TIP3    H146274   4.389   3.299  13.486 -1.0810  1.0168  1.6977
 8261TIP3    H246275   4.270   3.224  13.543 -0.7597 -1.0903 -0.2467
 8262TIP3   OH246276   0.675   3.557   3.075 -0.3084  0.1814  0.2964
 8262TIP3    H146277   0.752   3.614   3.068  1.4728 -1.9082  1.5162
 8262TIP3    H246278   0.680   3.500   2.998  0.1919 -0.8799  1.0997
 8263TIP3   OH246279   5.281   6.347   3.709 -0.3236  0.0917  0.2981
 8263TIP3    H146280   5.305   6.258   3.735  0.8249 -0.9069 -3.5844
 8263TIP3    H246281   5.185   6.344   3.700 -0.5977  0.0798  2.5352
 8264TIP3   OH246282   2.454   5.218  12.677 -0.5152  0.3326  0.0496
 8264TIP3    H146283   2.376   5.180  12.636  0.4075  0.5368 -2.0144
 8264TIP3    H246284   2.478   5.291  12.620  1.9183 -0.4993 -0.1033
 8265TIP3   OH246285   3.916   4.280  13.532  0.3031  0.2047 -0.0777
 8265TIP3    H146286   3.902   4.285  13.437 -1.4086 -1.3790  0.0544
 8265TIP3    H246287   3.943   4.190  13.548 -0.4464  0.1621  1.0507
 8266TIP3   OH246288   6.157   5.743   0.049  0.0114 -0.6186 -0.7776
 8266TIP3    H146289   6.100   5.808   0.091  1.7939 -0.8579  2.3486
 8266TIP3    H246290   6.100   5.668   0.032 -1.4349  0.6315 -1.6629
 8267TIP3   OH246291   0.980   5.053   0.898 -0.5270 -0.0103 -0.3376
 8267TIP3    H146292   0.937   5.101   0.969  1.4549 -0.3947  1.2129
 8267TIP3    H246293   1.027   4.982   0.942  1.1153 -0.0073 -1.9558
 8268TIP3   OH246294   1.964   5.214  11.094  0.2886  0.2318  0.2131
 8268TIP3    H146295   2.017   5.242  11.020 -0.4795  3.4213  0.7248
 8268TIP3    H246296   1.884   5.265  11.087  0.1691  0.6142  3.2008
 8269TIP3   OH246297   2.284   4.746   5.524  0.2070 -0.0942 -0.6405
 8269TIP3    H146298   2.296   4.732   5.431 -0.1190  0.9552 -0.8529
 8269TIP3    H246299   2.203   4.796   5.531  1.0646  1.2590  0.0788
 8270TIP3   OH246300   0.912   5.050  13.303 -0.0474 -0.8994  0.7203
 8270TIP3    H146301   0.987   5.109  13.303 -0.3028 -0.5745  0.6445
 8270TIP3    H246302   0.938   4.977  13.247  0.2964 -0.8944  0.8758
 8271TIP3   OH246303   5.353   4.145   1.135  0.2280 -0.5322  0.2126
 8271TIP3    H146304   5.276   4.200   1.121  0.0004 -1.2485 -1.5193
 8271TIP3    H246305   5.423   4.207   1.159 -0.5783  0.2337  0.6420
 8272TIP3   OH246306   5.600   5.158   1.886 -0.1368  0.0139 -0.0777
 8272TIP3    H146307   5.577   5.071   1.855  1.5516  0.4355 -2.8321
 8272TIP3    H246308   5.648   5.143   1.967 -0.2156 -1.5899 -0.2985
 8273TIP3   OH246309   4.927   6.383  11.375  0.2245  0.0939 -0.3207
 8273TIP3    H146310   4.990   6.399  11.305  1.1762  0.7696  0.6468
 8273TIP3    H246311   4.895   6.294  11.360 -0.3188  0.5601 -2.1467
 8274TIP3   OH246312   3.844   5.299   1.625 -0.1525  0.2504  0.3726
 8274TIP3    H146313   3.766   5.308   1.680  0.0441  2.0742  0.4398
 8274TIP3    H246314   3.911   5.264   1.684 -0.7538 -0.8079  0.4536
 8275TIP3   OH246315   1.729   1.532   3.657 -0.1879 -0.1830 -0.1206
 8275TIP3    H146316   1.797   1.541   3.724  0.7364 -1.3307 -0.8721
 8275TIP3    H246317   1.653   1.576   3.695  0.3198 -0.7654  1.6871
 8276TIP3   OH246318   6.408   6.099  16.933 -0.0388 -0.4970  0.2360
 8276TIP3    H146319   6.323   6.070  16.898  0.1635  0.4909 -1.1558
 8276TIP3    H246320   6.421   6.185  16.895 -0.0916  1.0223  3.3890
 8277TIP3   OH246321   3.220   3.583  11.429  0.2423 -0.9282  0.4183
 8277TIP3    H146322   3.146   3.592  11.489  1.0436  0.3125  1.2548
 8277TIP3    H246323   3.276   3.659  11.448  2.7302 -2.8180  1.2065
 8278TIP3   OH246324   5.106   1.230  12.706  0.2930  0.3733 -0.6928
 8278TIP3    H146325   5.155   1.298  12.752 -0.6880 -0.7734  2.2294
 8278TIP3    H246326   5.032   1.210  12.763 -0.9923 -1.2459 -2.7720
 8279TIP3   OH246327   1.092   1.864  12.368 -0.2712  0.1102  0.3129
 8279TIP3    H146328   1.066   1.873  12.276  1.3527  3.5227  0.0459
 8279TIP3    H246329   1.048   1.937  12.412  0.6210 -0.2534  1.8710
 8280TIP3   OH246330   3.697   3.603   4.413  0.1179  0.0013  0.0564
 8280TIP3    H146331   3.629   3.624   4.477  0.9999 -1.3577  1.5088
 8280TIP3    H246332   3.716   3.687   4.371 -3.5121  0.1919 -1.5729
 8281TIP3   OH246333   0.693   2.968   0.870 -0.0194 -0.1511 -0.0046
 8281TIP3    H146334   0.679   2.880   0.835  2.6098 -1.0081  0.8093
 8281TIP3    H246335   0.699   3.023   0.792  0.4565 -1.1045 -0.6695
 8282TIP3   OH246336   2.637   1.846   0.668 -0.5864  0.2109  0.0171
 8282TIP3    H146337   2.583   1.880   0.740 -1.0855 -1.0644  0.2720
 8282TIP3    H246338   2.598   1.761   0.647 -1.2634  1.1173 -2.6859
 8283TIP3   OH246339   0.509   3.651   0.963  0.6088 -0.5048 -0.2309
 8283TIP3    H146340   0.599   3.683   0.952  0.8006 -0.8301  0.3140
 8283TIP3    H246341   0.454   3.720   0.925  0.9960  0.6504  1.2007
 8284TIP3   OH246342   6.469   0.146  10.783 -0.2229  0.3005 -0.0804
 8284TIP3    H146343   6.390   0.199  10.781 -0.0079  0.6189 -0.2653
 8284TIP3    H246344   6.451   0.077  10.847 -0.4888  0.6215  0.1903
 8285TIP3   OH246345   3.150   4.165  13.527  0.4172  0.3221  0.5386
 8285TIP3    H146346   3.096   4.153  13.449  0.8634 -1.9702  0.5110
 8285TIP3    H246347   3.162   4.259  13.533  0.1205  0.6036 -1.9914
 8286TIP3   OH246348   3.575   1.082  12.458  0.0491  0.0657  0.4988
 8286TIP3    H146349   3.489   1.072  12.499  0.4066 -0.2364  1.1972
 8286TIP3    H246350   3.636   1.092  12.532  0.5016  1.2201 -0.0095
 8287TIP3   OH246351   0.865   5.747   2.674 -0.2406 -0.2633 -0.1933
 8287TIP3    H146352   0.959   5.737   2.689 -0.1968 -0.2263 -0.4346
 8287TIP3    H246353   0.847   5.838   2.694 -0.1823 -0.2138 -0.3609
 8288TIP3   OH246354   0.188   1.379  16.617  0.7288 -0.4285  0.3652
 8288TIP3    H146355   0.245   1.355  16.691  0.0292  0.3043  1.1650
 8288TIP3    H246356   0.247   1.381  16.542  1.8270  0.4989  1.1956
 8289TIP3   OH246357   5.643   1.688   3.673  0.0431  0.2960  0.1650
 8289TIP3    H146358   5.565   1.660   3.723  0.0249  1.7776  1.0147
 8289TIP3    H246359   5.701   1.612   3.675 -0.1084  0.1847  2.1969
 8290TIP3   OH246360   0.605   4.910   4.064  0.2026 -0.3785 -0.3845
 8290TIP3    H146361   0.516   4.934   4.038  0.7888  2.1254 -0.3043
 8290TIP3    H246362   0.641   4.867   3.987  0.0331  1.7564 -1.7325
 8291TIP3   OH246363   6.754   4.153  11.773  0.4478 -0.3684 -0.2586
 8291TIP3    H146364   6.660   4.139  11.761  0.5139 -1.0354 -0.0530
 8291TIP3    H246365   6.767   4.246  11.756 -0.3357 -0.1598  0.2344
 8292TIP3   OH246366   1.922   2.359  16.945 -0.0333  0.1602 -0.2007
 8292TIP3    H146367   1.977   2.284  16.967 -1.4960 -1.2143 -1.0619
 8292TIP3    H246368   1.969   2.434  16.982  1.4523 -1.1571  0.7319
 8293TIP3   OH246369   5.377   6.028   5.002 -0.2144 -0.3254  0.6038
 8293TIP3    H146370   5.454   6.015   5.057  0.6445 -1.6338 -0.8449
 8293TIP3    H246371   5.407   6.084   4.931 -0.3888 -1.3431 -0.3056
 8294TIP3   OH246372   3.722   3.393   5.481 -0.1147 -0.2546 -0.4251
 8294TIP3    H146373   3.634   3.357   5.487 -0.5343  0.9021  1.0744
 8294TIP3    H246374   3.776   3.321   5.448 -1.5877 -0.9927 -1.3314
 8295TIP3   OH246375   2.390   5.745  15.238  0.2330  0.4015 -0.2094
 8295TIP3    H146376   2.370   5.805  15.309 -0.8100  1.0695 -1.0349
 8295TIP3    H246377   2.337   5.775  15.165 -0.5700 -1.6975 -0.5760
 8296TIP3   OH246378   1.276   0.775  16.301 -0.0617  0.0765  0.1068
 8296TIP3    H146379   1.212   0.781  16.230  1.2561  0.0618 -1.1201
 8296TIP3    H246380   1.243   0.705  16.357 -1.6763  0.7865  0.1053
 8297TIP3   OH246381   5.296   0.383  11.281  0.0620  0.1150 -0.6386
 8297TIP3    H146382   5.342   0.301  11.297  0.5777  0.4948 -0.1779
 8297TIP3    H246383   5.364   0.447  11.260 -0.1188  0.9550  1.1475
 8298TIP3   OH246384   4.270   3.897  15.847  0.1121  0.1557  0.2733
 8298TIP3    H146385   4.322   3.835  15.899 -1.0033 -0.3091  0.8820
 8298TIP3    H246386   4.326   3.974  15.838  0.6053 -0.0233  1.5990
 8299TIP3   OH246387   0.082   0.501   5.144 -0.6980  0.0598  0.1598
 8299TIP3    H146388   0.017   0.531   5.208 -0.4320  0.0021  0.4589
 8299TIP3    H246389   0.157   0.475   5.197 -0.3212  0.4004 -0.2015
 8300TIP3   OH246390   5.868   6.329   5.473  1.0122 -0.0961 -0.0263
 8300TIP3    H146391   5.809   6.257   5.494  0.2388  0.4859 -0.1572
 8300TIP3    H246392   5.848   6.396   5.538  0.8692  0.4719 -0.6459
 8301TIP3   OH246393   5.069   6.257   6.076  0.0120 -0.2937  0.4650
 8301TIP3    H146394   5.148   6.257   6.130  1.0178  0.9294 -0.9086
 8301TIP3    H246395   5.022   6.336   6.103  0.9038  0.7525 -0.9006
 8302TIP3   OH246396   1.267   3.376   3.102  0.1633 -0.3802  0.0709
 8302TIP3    H146397   1.274   3.283   3.082 -1.6554 -0.6098  0.3344
 8302TIP3    H246398   1.315   3.420   3.032  0.2896 -1.4873 -0.5482
 8303TIP3   OH246399   4.467   4.305  10.703  0.2186 -1.2060 -0.3468
 8303TIP3    H146400   4.391   4.305  10.761 -0.0723 -1.8445 -0.7138
 8303TIP3    H246401   4.532   4.361  10.747 -1.3741  1.5506 -1.2593
 8304TIP3   OH246402   5.250   5.641  12.491  0.1290  0.0563  0.3241
 8304TIP3    H146403   5.273   5.734  12.481  0.1317 -0.1077 -1.5766
 8304TIP3    H246404   5.324   5.594  12.455 -0.5842 -0.6302 -0.2808
 8305TIP3   OH246405   1.615   1.494  13.920 -0.0126 -0.1670 -0.2809
 8305TIP3    H146406   1.597   1.414  13.969  0.9204  0.3052  0.9117
 8305TIP3    H246407   1.530   1.523  13.888 -0.4537 -1.2678 -0.1467
 8306TIP3   OH246408   3.326   5.678   5.503  0.0514  0.4554  0.1889
 8306TIP3    H146409   3.386   5.655   5.432  0.4792 -2.6324  1.3946
 8306TIP3    H246410   3.370   5.748   5.550  0.4669  1.4910 -1.6362
 8307TIP3   OH246411   5.485   1.782  12.948  0.1611  0.0325 -0.0436
 8307TIP3    H146412   5.567   1.824  12.921  1.2728 -2.5062 -0.8654
 8307TIP3    H246413   5.430   1.786  12.871  0.5465 -0.6393 -0.3618
 8308TIP3   OH246414   4.230   5.805   4.347 -0.0158  0.1868 -0.3319
 8308TIP3    H146415   4.156   5.749   4.370 -0.0576 -0.1268 -1.1744
 8308TIP3    H246416   4.214   5.887   4.393 -0.0467 -0.4241  0.7847
 8309TIP3   OH246417   5.909   2.071   0.270 -0.3262 -0.0557 -0.1483
 8309TIP3    H146418   5.989   2.095   0.318 -0.4752  0.8210 -0.3150
 8309TIP3    H246419   5.939   2.057   0.180 -0.0041 -1.9520  0.2126
 8310TIP3   OH246420   5.557   1.795   4.502  0.3600  0.1361  0.4409
 8310TIP3    H146421   5.641   1.839   4.515 -0.7928  2.2896  1.0067
 8310TIP3    H246422   5.520   1.789   4.590 -0.7343  0.6340  0.0290
 8311TIP3   OH246423   2.064   4.512  16.071 -0.0859  0.7118  0.1913
 8311TIP3    H146424   2.032   4.495  15.983 -1.1489  0.3145  0.6324
 8311TIP3    H246425   1.993   4.484  16.128  0.7783  0.4937  1.1986
 8312TIP3   OH246426   6.531   3.864   3.509  0.9197  0.0232  0.0791
 8312TIP3    H146427   6.620   3.875   3.540  1.7631  1.9558 -2.6450
 8312TIP3    H246428   6.528   3.912   3.426 -1.7104 -2.8129 -1.6859
 8313TIP3   OH246429   5.032   3.825   1.004 -0.1737 -0.1693  0.6303
 8313TIP3    H146430   4.986   3.888   0.949  1.4480  0.0044 -0.6013
 8313TIP3    H246431   5.125   3.849   0.997  0.3153 -1.5719  1.6016
 8314TIP3   OH246432   0.819   5.116  14.650  0.0913 -0.2835 -0.1208
 8314TIP3    H146433   0.727   5.101  14.632  0.1523 -1.1022  0.2009
 8314TIP3    H246434   0.822   5.204  14.688 -0.5564 -0.2557 -0.1250
 8315TIP3   OH246435   2.946   2.516  17.115  0.2006  0.6206  0.2817
 8315TIP3    H146436   2.865   2.566  17.119  1.0250  2.0091  0.0919
 8315TIP3    H246437   3.009   2.566  17.166  0.6788 -1.0059  1.3695
 8316TIP3   OH246438   3.099   2.696  12.488  0.0881 -0.2978 -0.2772
 8316TIP3    H146439   3.148   2.648  12.555 -0.2003 -3.2859 -2.0589
 8316TIP3    H246440   3.050   2.628  12.441 -2.3020  2.0552 -1.4442
 8317TIP3   OH246441   0.900   3.098   2.369 -0.1032 -0.7166  0.3860
 8317TIP3    H146442   0.867   3.107   2.279  4.4521 -0.1583 -1.4793
 8317TIP3    H246443   0.937   3.010   2.372  2.3964  0.2755  0.6274
 8318TIP3   OH246444   5.734   2.496   1.852  0.4513 -0.0482 -0.1698
 8318TIP3    H146445   5.657   2.464   1.806 -0.0412 -0.9025  1.1788
 8318TIP3    H246446   5.800   2.429   1.839  1.0006  0.6794 -1.3169
 8319TIP3   OH246447   0.577   1.999  13.612 -0.0686  0.5029 -0.3024
 8319TIP3    H146448   0.493   1.960  13.586  0.3239  0.4567 -1.5611
 8319TIP3    H246449   0.568   2.013  13.706 -1.4698  0.4504 -0.4005
 8320TIP3   OH246450   4.483   0.728   4.230 -0.8257  0.2270  0.4577
 8320TIP3    H146451   4.395   0.707   4.198 -0.2741 -1.4407 -0.0713
 8320TIP3    H246452   4.500   0.663   4.298 -0.1886  0.8380  0.8859
 8321TIP3   OH246453   3.466   6.070  12.758 -0.1361 -0.2525  0.0723
 8321TIP3    H146454   3.425   6.094  12.675 -1.1605  1.3538  0.9959
 8321TIP3    H246455   3.408   6.105  12.825  1.2038 -0.6017  1.4718
 8322TIP3   OH246456   3.410   3.343  13.987  0.2610 -0.2954  0.9652
 8322TIP3    H146457   3.316   3.351  14.000  0.1593 -0.4998  0.3625
 8322TIP3    H246458   3.433   3.413  13.926  0.2278 -1.2497 -0.1629
 8323TIP3   OH246459   4.283   3.429  11.631  0.1824  0.7518 -0.1728
 8323TIP3    H146460   4.232   3.480  11.695  0.7090  2.6486 -1.1827
 8323TIP3    H246461   4.307   3.493  11.564  0.9168 -0.8661 -1.5143
 8324TIP3   OH246462   3.701   2.299   0.321 -0.5577 -0.2050 -0.3992
 8324TIP3    H146463   3.767   2.363   0.294 -0.7955 -0.1622 -0.8970
 8324TIP3    H246464   3.706   2.299   0.417  0.1505 -0.1954 -0.4296
 8325TIP3   OH246465   3.446   1.829  15.965 -0.7693  0.1224  0.3914
 8325TIP3    H146466   3.518   1.851  15.905 -1.3888  1.1968  0.0111
 8325TIP3    H246467   3.450   1.734  15.974  0.5873  0.1471  0.2431
 8326TIP3   OH246468   3.698   1.628  16.689  0.6011  0.7778  0.3280
 8326TIP3    H146469   3.705   1.647  16.783  0.1485 -0.7241  0.6843
 8326TIP3    H246470   3.612   1.662  16.664  0.3831  0.4589  0.6426
 8327TIP3   OH246471   4.880   1.430  12.666  0.7151 -0.6253  0.5442
 8327TIP3    H146472   4.945   1.471  12.608 -0.5328 -0.6970 -0.9669
 8327TIP3    H246473   4.875   1.339  12.637  1.4615 -1.1887  2.0730
 8328TIP3   OH246474   4.155   1.170  12.915 -0.1569  0.3960 -0.0499
 8328TIP3    H146475   4.146   1.253  12.962  2.6482  1.0842 -0.5950
 8328TIP3    H246476   4.189   1.109  12.980  0.6326  0.4797 -0.3828
 8329TIP3   OH246477   2.341   4.468  12.292 -0.2597 -0.1860 -0.2154
 8329TIP3    H146478   2.303   4.500  12.210 -2.9907  0.0863  1.0318
 8329TIP3    H246479   2.313   4.531  12.358  1.4441 -0.6658  1.0270
 8330TIP3   OH246480   5.635   3.908   0.515 -0.0364 -0.1004 -0.5429
 8330TIP3    H146481   5.694   3.979   0.540 -0.5438  0.8969 -2.0332
 8330TIP3    H246482   5.567   3.907   0.583  0.7997 -0.2038  0.3108
 8331TIP3   OH246483   2.946   0.587  13.969 -0.2491  0.0867 -0.1059
 8331TIP3    H146484   2.996   0.567  13.890 -2.7095  2.8438 -2.6249
 8331TIP3    H246485   2.969   0.678  13.989  0.3125 -0.5402  2.4723
 8332TIP3   OH246486   5.890   5.082   5.051  0.4499 -0.2874 -0.1435
 8332TIP3    H146487   5.859   5.096   4.961 -0.1203  3.4190  0.4564
 8332TIP3    H246488   5.812   5.054   5.099 -1.2361  4.4757  0.4086
 8333TIP3   OH246489   4.729   1.230   3.260  1.0157 -0.0584 -0.2741
 8333TIP3    H146490   4.745   1.217   3.167 -0.2642  2.5145 -0.9481
 8333TIP3    H246491   4.700   1.321   3.267 -3.2003 -1.3164  2.0398
 8334TIP3   OH246492   3.217   4.684  15.182 -0.1529  0.2156 -0.2493
 8334TIP3    H146493   3.226   4.739  15.105  1.0176  2.1036  1.1266
 8334TIP3    H246494   3.268   4.605  15.161  0.3092  0.7785 -1.3364
 8335TIP3   OH246495   0.237   2.002   2.441 -0.2748  0.0293 -0.4776
 8335TIP3    H146496   0.147   1.971   2.443 -1.2081  2.5398  1.1210
 8335TIP3    H246497   0.283   1.947   2.504 -0.9656 -0.4710 -0.3983
 8336TIP3   OH246498   3.331   2.337   0.463 -0.0004  0.2635  0.3226
 8336TIP3    H146499   3.306   2.276   0.532 -0.6577  0.3715  0.1849
 8336TIP3    H246500   3.344   2.281   0.386  1.4938  0.0442  0.6981
 8337TIP3   OH246501   1.415   2.597  12.112 -0.3394  0.5850 -0.7655
 8337TIP3    H146502   1.488   2.598  12.050 -0.5075  0.3072 -0.9678
 8337TIP3    H246503   1.426   2.514  12.160 -1.9975 -0.7684 -2.5650
 8338TIP3   OH246504   6.272   1.958   0.468  0.0243  0.1881 -0.7579
 8338TIP3    H146505   6.357   1.999   0.453  1.6955 -1.4243  3.0516
 8338TIP3    H246506   6.276   1.875   0.421 -0.8719  1.3926 -3.1912
 8339TIP3   OH246507   5.963   3.344  11.514 -0.5599  0.0172 -0.0876
 8339TIP3    H146508   5.910   3.398  11.456 -0.0331 -0.6860 -1.2613
 8339TIP3    H246509   5.919   3.260  11.516 -1.0239  0.2634  1.2225
 8340TIP3   OH246510   5.523   2.460   4.618 -0.0052 -0.0022 -0.8069
 8340TIP3    H146511   5.578   2.504   4.682 -1.4126  0.1339  0.3564
 8340TIP3    H246512   5.488   2.530   4.563  1.4685 -0.1487 -1.9862
 8341TIP3   OH246513   5.067   6.523   6.154 -0.3497  1.0550 -0.5751
 8341TIP3    H146514   5.071   6.614   6.182  1.1024  0.4060  1.6129
 8341TIP3    H246515   5.082   6.472   6.234 -0.1814 -1.0877 -1.8714
 8342TIP3   OH246516   0.328   2.119   3.969 -0.0671 -0.1661  0.2060
 8342TIP3    H146517   0.354   2.082   3.885 -2.1571 -0.4630 -0.3809
 8342TIP3    H246518   0.257   2.179   3.948  1.3238  2.0726  1.4754
 8343TIP3   OH246519   0.340   3.091   0.461  0.4870 -0.0502  0.2080
 8343TIP3    H146520   0.247   3.104   0.480  0.1939  0.6920 -1.5759
 8343TIP3    H246521   0.365   3.168   0.411  1.5018 -1.2615 -1.2251
 8344TIP3   OH246522   2.387   1.907  14.002 -0.0220  0.7942  0.1036
 8344TIP3    H146523   2.391   2.002  14.009  1.7677  1.0958 -3.0727
 8344TIP3    H246524   2.305   1.890  13.955 -0.1789  0.8054  0.3743
 8345TIP3   OH246525   5.585   0.478  17.263  0.0542 -0.5021 -0.5726
 8345TIP3    H146526   5.674   0.511  17.273  0.1944 -0.7397 -1.0277
 8345TIP3    H246527   5.581   0.445  17.173 -0.3955 -0.7817 -0.4540
 8346TIP3   OH246528   6.557   0.059  11.412 -0.4471  0.0312 -0.2109
 8346TIP3    H146529   6.633   0.118  11.409  0.2898 -0.8142  1.0895
 8346TIP3    H246530   6.550   0.024  11.324  1.0661 -0.3436 -0.1947
 8347TIP3   OH246531   1.780   0.624   4.370  0.0587  0.4960  0.3403
 8347TIP3    H146532   1.832   0.637   4.449  0.5071  0.2074  0.1019
 8347TIP3    H246533   1.830   0.561   4.319  0.0785  1.1163 -0.4377
 8348TIP3   OH246534   1.540   0.931   5.006  0.1439  0.1235  0.0450
 8348TIP3    H146535   1.623   0.903   4.968 -0.3472 -0.5741 -0.5575
 8348TIP3    H246536   1.492   0.969   4.933 -0.2549  0.0788  0.2801
 8349TIP3   OH246537   5.310   0.057   2.926 -0.0576  0.2072 -0.7411
 8349TIP3    H146538   5.363  -0.020   2.945  0.5928  0.1261 -2.6863
 8349TIP3    H246539   5.220   0.024   2.922  0.4018 -1.0745 -3.9862
 8350TIP3   OH246540   3.671   3.021   2.023 -0.0797 -0.5979 -0.1324
 8350TIP3    H146541   3.617   2.943   2.012  0.5159 -0.8751 -1.2149
 8350TIP3    H246542   3.633   3.086   1.964  0.2003 -0.4928 -0.1991
 8351TIP3   OH246543   0.955   1.854  16.612  0.0414  0.0742 -0.1882
 8351TIP3    H146544   0.904   1.934  16.621 -0.3022 -0.1897  0.2016
 8351TIP3    H246545   0.923   1.814  16.531 -3.5588 -2.3262  2.1158
 8352TIP3   OH246546   3.100   1.725  12.708 -0.1279 -0.4250  0.2327
 8352TIP3    H146547   3.013   1.692  12.733 -0.4961  0.6155  0.4081
 8352TIP3    H246548   3.157   1.700  12.781 -0.8653  1.2020  1.4380
 8353TIP3   OH246549   3.511   4.304  16.881 -0.5392  0.5331  0.2932
 8353TIP3    H146550   3.472   4.383  16.918  1.1904  1.3247  0.5040
 8353TIP3    H246551   3.486   4.306  16.788 -2.6373 -0.0591  0.7901
 8354TIP3   OH246552   0.560   6.492  17.010  0.0231  0.1726  0.1106
 8354TIP3    H146553   0.555   6.487  17.105  2.7476 -2.3057  0.2664
 8354TIP3    H246554   0.492   6.432  16.979 -0.6261  0.7129  0.4473
 8355TIP3   OH246555   1.037   4.754  15.116  0.4988 -0.5782 -0.1169
 8355TIP3    H146556   0.992   4.838  15.118  1.3152 -0.1407  0.1668
 8355TIP3    H246557   1.114   4.766  15.172  0.0410 -1.8547  0.8388
 8356TIP3   OH246558   6.162   3.167  15.785  0.1280  0.0145  0.1564
 8356TIP3    H146559   6.104   3.100  15.749 -0.1302  0.8128 -0.9858
 8356TIP3    H246560   6.250   3.135  15.766  0.0023  0.1537 -0.7237
 8357TIP3   OH246561   2.548   1.355   3.011  0.8980 -0.2850 -0.8238
 8357TIP3    H146562   2.622   1.414   2.999  0.7381  0.7750  2.4063
 8357TIP3    H246563   2.475   1.400   2.969  1.3133  0.5709 -0.6659
 8358TIP3   OH246564   2.776   2.151   2.980 -0.1146  0.1146 -0.5126
 8358TIP3    H146565   2.867   2.162   3.009 -0.6701  0.0407  1.4509
 8358TIP3    H246566   2.781   2.092   2.906  1.3495 -0.9605  0.3863
 8359TIP3   OH246567   6.260   5.350  16.453 -0.3464  0.1464 -0.2571
 8359TIP3    H146568   6.171   5.384  16.466  0.2812  1.7764 -0.0025
 8359TIP3    H246569   6.270   5.283  16.521 -1.5825 -0.5009 -0.6834
 8360TIP3   OH246570   2.246   4.444   2.833  0.0563 -0.3419 -0.3322
 8360TIP3    H146571   2.214   4.403   2.752 -0.4832  0.6375 -0.6380
 8360TIP3    H246572   2.184   4.515   2.849 -0.0815 -0.7760  1.1821
 8361TIP3   OH246573   4.925   0.599   4.126 -0.0436 -0.0172 -0.7298
 8361TIP3    H146574   4.902   0.692   4.119  1.9054  0.5574 -0.2149
 8361TIP3    H246575   5.008   0.599   4.174 -0.3710 -2.0877 -0.0799
 8362TIP3   OH246576   3.040   5.616   2.993  0.0841  0.0669 -0.2365
 8362TIP3    H146577   3.023   5.613   2.899 -0.3579  1.9456 -0.2382
 8362TIP3    H246578   2.995   5.694   3.025 -0.7696 -1.1466  1.7762
 8363TIP3   OH246579   1.112   1.415   0.597 -0.1808  0.1720 -0.3140
 8363TIP3    H146580   1.096   1.456   0.512 -0.4836  0.5542 -0.0805
 8363TIP3    H246581   1.033   1.365   0.615 -0.6787  1.1403  0.3226
 8364TIP3   OH246582   3.671   5.902   5.521 -0.3530  0.3890  0.1158
 8364TIP3    H146583   3.735   5.860   5.463 -0.5315  0.9261 -0.4769
 8364TIP3    H246584   3.647   5.983   5.476  0.9823  1.8471  1.8492
 8365TIP3   OH246585   2.286   6.506   1.538 -0.0108  0.1330  0.2556
 8365TIP3    H146586   2.312   6.548   1.620  1.7230  0.6129 -0.4937
 8365TIP3    H246587   2.358   6.446   1.518 -0.9082 -0.7702 -0.3893
 8366TIP3   OH246588   1.665   4.970  14.046  0.5080  0.5201  0.8819
 8366TIP3    H146589   1.582   4.992  14.002 -0.4376 -1.4683  1.5307
 8366TIP3    H246590   1.719   5.048  14.036 -1.2141  1.6540 -0.1229
 8367TIP3   OH246591   3.260   2.536   2.107  0.0629 -0.6372 -0.5514
 8367TIP3    H146592   3.233   2.591   2.034 -0.9652 -1.3717 -0.7311
 8367TIP3    H246593   3.181   2.492   2.135  0.6097 -0.9861  0.4870
 8368TIP3   OH246594   5.738   6.545   4.449 -0.0624  0.4348  0.3947
 8368TIP3    H146595   5.788   6.569   4.370 -1.5766 -1.0156 -1.0737
 8368TIP3    H246596   5.805   6.522   4.513  1.2375 -1.1397 -1.4014
 8369TIP3   OH246597   1.398   4.488  15.391 -0.3536  0.3532 -0.0022
 8369TIP3    H146598   1.400   4.579  15.364 -1.1705  1.0927  2.2135
 8369TIP3    H246599   1.481   4.474  15.437 -1.0910  0.6057  1.4409
 8370TIP3   OH246600   3.139   4.258   4.211  0.1625 -0.0747  0.1359
 8370TIP3    H146601   3.102   4.190   4.267  0.1096  0.2397  0.4904
 8370TIP3    H246602   3.088   4.253   4.130 -1.7673  1.3604  1.1531
 8371TIP3   OH246603   2.300   6.485   6.577 -0.6612 -0.3132  0.7969
 8371TIP3    H146604   2.242   6.561   6.585 -0.5151  0.3246 -2.8099
 8371TIP3    H246605   2.263   6.433   6.506  1.2509 -1.7716  0.7836
 8372TIP3   OH246606   2.566   4.764   3.301 -0.0746  0.3253 -0.4821
 8372TIP3    H146607   2.564   4.713   3.382  0.9966  0.0651 -0.6060
 8372TIP3    H246608   2.508   4.839   3.318 -0.5661 -0.1976  0.1932
 8373TIP3   OH246609   0.284   2.758   5.043  0.1765 -0.2364 -0.1409
 8373TIP3    H146610   0.303   2.741   5.135  1.6740  1.1828 -0.1496
 8373TIP3    H246611   0.190   2.775   5.041 -0.0452 -1.1964  0.9671
 8374TIP3   OH246612   0.335   1.240   1.186  0.2451  0.0798  0.0051
 8374TIP3    H146613   0.284   1.309   1.229 -1.8261  0.3308 -2.5994
 8374TIP3    H246614   0.275   1.166   1.180  0.3789  0.0998 -2.4591
 8375TIP3   OH246615   2.359   4.888   0.894 -0.4462  0.2265 -0.2448
 8375TIP3    H146616   2.394   4.941   0.966 -0.9316  0.6309 -0.3032
 8375TIP3    H246617   2.333   4.952   0.828 -0.9179 -0.0941 -0.3712
 8376TIP3   OH246618   6.201   0.773  10.607  0.0079  0.4742 -0.3297
 8376TIP3    H146619   6.176   0.865  10.614 -2.3601 -0.1870  0.9034
 8376TIP3    H246620   6.159   0.741  10.528  0.0772  0.2407 -0.2754
 8377TIP3   OH246621   6.569   0.988  12.188  0.3568 -0.0429  0.6633
 8377TIP3    H146622   6.548   0.928  12.259 -2.2901 -0.1628 -0.1418
 8377TIP3    H246623   6.501   0.974  12.123  1.7587  1.2506 -1.1952
 8378TIP3   OH246624   2.491   3.269  14.326 -0.0868  0.5605 -0.0539
 8378TIP3    H146625   2.560   3.309  14.273  0.8974  0.1033  0.8255
 8378TIP3    H246626   2.510   3.299  14.415 -0.7779  0.0741  0.2656
 8379TIP3   OH246627   4.124   2.039   1.379 -0.4239 -0.1886 -0.4798
 8379TIP3    H146628   4.047   2.031   1.436  0.3758  1.9296  1.0298
 8379TIP3    H246629   4.189   1.981   1.418 -1.1766 -1.9696 -1.7483
 8380TIP3   OH246630   2.268   6.088  13.227 -0.7082 -0.0846 -0.0823
 8380TIP3    H146631   2.262   6.000  13.264 -1.5066  0.6606  1.6767
 8380TIP3    H246632   2.338   6.082  13.162  0.4569 -1.6040  1.2188
 8381TIP3   OH246633   3.932   1.966  13.306  0.0113 -0.5687 -0.5522
 8381TIP3    H146634   4.011   2.017  13.284  0.0985 -0.3922  0.1623
 8381TIP3    H246635   3.965   1.893  13.358 -0.5223  0.7929  1.8339
 8382TIP3   OH246636   5.475   2.025   1.937  0.7711 -0.5505 -0.3314
 8382TIP3    H146637   5.566   2.043   1.912  1.5901 -2.2562  1.1051
 8382TIP3    H246638   5.457   1.939   1.899  1.1434 -1.9725  2.3794
 8383TIP3   OH246639   2.826   3.674   0.954 -0.0370  0.1635 -0.0205
 8383TIP3    H146640   2.789   3.752   0.996  0.5793  0.4156  0.0692
 8383TIP3    H246641   2.752   3.633   0.909 -0.1437  1.4898 -1.1173
 8384TIP3   OH246642   6.515   5.478  13.893 -0.0570 -0.3349  0.1607
 8384TIP3    H146643   6.505   5.532  13.814  1.0454  0.6301  0.6706
 8384TIP3    H246644   6.552   5.396  13.861  1.3573  0.4265 -0.2241
 8385TIP3   OH246645   5.425   3.148  14.811  0.0865 -0.7435 -0.1825
 8385TIP3    H146646   5.371   3.194  14.747 -1.9226 -1.8926  0.6132
 8385TIP3    H246647   5.515   3.158  14.778 -0.7659 -0.3803 -2.5808
 8386TIP3   OH246648   2.091   5.347  16.380  0.4535 -0.2281  0.0027
 8386TIP3    H146649   2.094   5.427  16.431  0.8184  0.3574 -0.9213
 8386TIP3    H246650   2.007   5.308  16.401 -0.3782  1.1474 -0.6354
 8387TIP3   OH246651   6.069   0.990  13.231  0.3620 -0.1546 -0.3255
 8387TIP3    H146652   6.119   0.908  13.231  1.1643  0.3292 -0.1582
 8387TIP3    H246653   6.122   1.051  13.281 -0.6964  0.1981  0.4124
 8388TIP3   OH246654   4.709   6.788   6.399 -0.2701 -0.4691 -1.1404
 8388TIP3    H146655   4.792   6.811   6.441 -0.5174 -2.4460  0.5812
 8388TIP3    H246656   4.645   6.847   6.439 -0.3039 -1.5606  0.5237
 8389TIP3   OH246657   3.558   5.148  14.972 -0.4397 -0.5157  0.7908
 8389TIP3    H146658   3.556   5.122  15.064 -0.5146 -3.0058  0.1473
 8389TIP3    H246659   3.515   5.076  14.925  0.8442 -0.0021 -1.3377
 8390TIP3   OH246660   3.321   2.925  11.256  0.2513  0.0243  0.2392
 8390TIP3    H146661   3.330   2.860  11.326  2.2288  0.7202  0.6892
 8390TIP3    H246662   3.396   2.908  11.198 -1.3140 -0.5185 -1.7383
 8391TIP3   OH246663   4.222   4.918   2.611 -0.2239 -0.2860 -0.3448
 8391TIP3    H146664   4.300   4.911   2.556  0.6893 -0.2149  0.8973
 8391TIP3    H246665   4.254   4.954   2.693 -0.6015 -4.7643  2.0799
 8392TIP3   OH246666   5.694   5.572   5.219 -0.3567  0.4688 -0.4936
 8392TIP3    H146667   5.756   5.642   5.199  0.2064  0.4990  1.2189
 8392TIP3    H246668   5.651   5.554   5.136  1.1208  1.2521 -1.4761
 8393TIP3   OH246669   2.350   4.189  13.509  0.5635  0.2065 -0.1312
 8393TIP3    H146670   2.296   4.196  13.588 -0.3007  1.3548 -0.7812
 8393TIP3    H246671   2.409   4.264  13.513  1.3844 -0.4385  0.0367
 8394TIP3   OH246672   3.924   5.011  16.695  0.6747 -0.3781  0.3900
 8394TIP3    H146673   3.996   4.949  16.713 -0.9192 -1.8714  2.2009
 8394TIP3    H246674   3.891   4.984  16.610  0.6048 -1.4619  0.7329
 8395TIP3   OH246675   3.862   0.038   4.570 -0.0476 -0.5496  0.0302
 8395TIP3    H146676   3.955   0.021   4.584 -0.0991 -1.5130 -0.6897
 8395TIP3    H246677   3.825   0.044   4.658  0.8935  1.0842  0.3427
 8396TIP3   OH246678   1.622   3.668   1.610  0.0545  0.0634  0.0319
 8396TIP3    H146679   1.711   3.680   1.643 -0.2569 -1.1692  1.4665
 8396TIP3    H246680   1.632   3.618   1.529  0.7054  0.8212 -0.3678
 8397TIP3   OH246681   1.913   3.592   5.556  0.9598  0.3723  0.1208
 8397TIP3    H146682   1.957   3.586   5.641 -2.0428  2.4910  2.0285
 8397TIP3    H246683   1.923   3.684   5.531  0.0907  0.2258 -0.8087
 8398TIP3   OH246684   6.436   0.328   2.999 -0.3011  0.0328 -0.0371
 8398TIP3    H146685   6.524   0.358   2.975  0.0558 -0.7200  0.2822
 8398TIP3    H246686   6.386   0.332   2.918  0.7794 -2.1448 -0.9056
 8399TIP3   OH246687   1.596   0.276   1.561  0.0558  0.7380 -0.8401
 8399TIP3    H146688   1.645   0.347   1.602 -0.0183  0.7019 -0.6863
 8399TIP3    H246689   1.515   0.270   1.613 -1.2083  2.3475 -2.4746
 8400TIP3   OH246690   4.045   4.651   6.394 -0.3371  0.1809  0.0597
 8400TIP3    H146691   4.084   4.698   6.468  1.0279  0.4042 -0.7754
 8400TIP3    H246692   3.984   4.589   6.435  0.4569  0.2274  1.3821
 8401TIP3   OH246693   3.381   4.281  14.436 -0.0724  0.1253 -0.0250
 8401TIP3    H146694   3.415   4.230  14.364  2.0911 -0.2916  1.2037
 8401TIP3    H246695   3.297   4.315  14.405 -1.7026 -4.1154 -0.9336
 8402TIP3   OH246696   3.971   0.118  10.669 -0.2638 -0.2690  0.2466
 8402TIP3    H146697   3.969   0.067  10.588  3.6529 -1.7750  0.8409
 8402TIP3    H246698   3.981   0.209  10.640  0.6651 -0.7376 -1.0327
 8403TIP3   OH246699   0.659   0.925   0.757 -0.1073  0.3516  0.5361
 8403TIP3    H146700   0.736   0.909   0.702 -0.2818  0.3999  0.2743
 8403TIP3    H246701   0.655   1.020   0.765 -0.9566  0.4356 -0.6411
 8404TIP3   OH246702   2.129   4.346   4.214  0.0574 -0.3545 -0.1858
 8404TIP3    H146703   2.210   4.300   4.237  0.0046 -0.5845 -0.4429
 8404TIP3    H246704   2.082   4.356   4.297  0.9934  1.0706  0.2058
 8405TIP3   OH246705   0.265   0.928   0.461 -0.2553 -0.4860  0.0031
 8405TIP3    H146706   0.327   0.918   0.389  0.1847 -1.8277  0.5305
 8405TIP3    H246707   0.184   0.887   0.429  0.6018 -3.1741  1.0150
 8406TIP3   OH246708   0.503   1.647   5.705 -0.3035 -0.7353  0.0693
 8406TIP3    H146709   0.424   1.670   5.753 -0.5028  0.5747 -0.8406
 8406TIP3    H246710   0.474   1.634   5.615  0.2070 -2.2875  0.1040
 8407TIP3   OH246711   3.965   4.591   3.334  0.2097  0.5562 -0.1061
 8407TIP3    H146712   3.990   4.635   3.253 -0.0185 -1.1020 -1.1149
 8407TIP3    H246713   4.008   4.506   3.330 -3.5288 -1.5110 -0.7997
 8408TIP3   OH246714   1.507   1.055  11.340 -0.3654  0.2059  0.0538
 8408TIP3    H146715   1.449   0.981  11.320 -2.2468  2.1838 -2.6124
 8408TIP3    H246716   1.461   1.103  11.409  0.8633 -0.9926  1.7953
 8409TIP3   OH246717   0.554   2.106  16.560  0.0067  0.9101  0.5632
 8409TIP3    H146718   0.464   2.086  16.537  0.7287 -2.1663  0.0369
 8409TIP3    H246719   0.577   2.180  16.503 -1.8114  1.0224 -0.0973
 8410TIP3   OH246720   6.278   1.004   3.929  0.2433 -0.2651  0.3007
 8410TIP3    H146721   6.201   1.058   3.948  1.9248  1.6880  2.0649
 8410TIP3    H246722   6.322   1.049   3.857  0.2397 -0.8810 -0.0980
 8411TIP3   OH246723   4.822   1.381  11.088 -1.0906  0.2873 -0.1605
 8411TIP3    H146724   4.878   1.444  11.043  0.2349 -0.9105 -0.2697
 8411TIP3    H246725   4.879   1.339  11.152 -1.2145 -2.4430 -1.6579
 8412TIP3   OH246726   5.236   4.013  15.794  0.3374  0.3496 -0.1289
 8412TIP3    H146727   5.243   3.992  15.887  3.6249 -4.4456 -1.0802
 8412TIP3    H246728   5.238   4.109  15.790 -1.5993  0.8655  4.6480
 8413TIP3   OH246729   6.779   3.205   3.792  0.0151 -0.0718 -0.1274
 8413TIP3    H146730   6.701   3.232   3.841  0.4369 -0.1840  0.6175
 8413TIP3    H246731   6.772   3.109   3.786  0.6000 -0.1803  0.8195
 8414TIP3   OH246732   2.915   1.731  12.340 -0.0309 -0.1889 -0.0385
 8414TIP3    H146733   2.830   1.769  12.360  0.5939  1.5048 -0.4022
 8414TIP3    H246734   2.898   1.638  12.331 -1.8160  0.0905  0.0440
 8415TIP3   OH246735   6.710   4.876   1.263  0.2476  0.0029 -0.0327
 8415TIP3    H146736   6.618   4.900   1.271  0.4746  1.8021 -1.8403
 8415TIP3    H246737   6.753   4.956   1.234  2.3246 -0.9211  0.2880
 8416TIP3   OH246738   1.572   3.496  17.244  0.3193  0.1354 -0.0302
 8416TIP3    H146739   1.477   3.487  17.246  0.0666  2.0695 -0.6423
 8416TIP3    H246740   1.592   3.558  17.314  1.0919 -0.0703 -0.0625
 8417TIP3   OH246741   4.147   4.857   4.923 -0.2276 -0.4498 -0.2942
 8417TIP3    H146742   4.053   4.870   4.913 -0.2915 -1.7260 -1.6998
 8417TIP3    H246743   4.159   4.762   4.926  0.8942 -0.3034  1.5152
 8418TIP3   OH246744   2.893   3.743  10.996 -0.0921 -0.1570 -0.0548
 8418TIP3    H146745   2.880   3.820  11.051  0.4988  1.1806 -1.7050
 8418TIP3    H246746   2.811   3.734  10.947 -0.0406 -0.3900 -0.0999
 8419TIP3   OH246747   6.800   3.242  14.472  0.5825 -0.0541  1.0546
 8419TIP3    H146748   6.778   3.279  14.558  2.2230 -0.5057  1.7009
 8419TIP3    H246749   6.874   3.293  14.442  1.0748 -0.9688  0.6717
 8420TIP3   OH246750   6.491   5.951  12.007 -0.2261  0.7567  0.2875
 8420TIP3    H146751   6.478   5.928  11.915 -2.1359  0.5047  0.5836
 8420TIP3    H246752   6.532   5.873  12.045  3.6396  1.9786 -0.9099
 8421TIP3   OH246753   0.597   1.565   2.887  0.7791  0.3791  0.3267
 8421TIP3    H146754   0.666   1.619   2.849  1.4855 -0.4206  0.4506
 8421TIP3    H246755   0.573   1.505   2.816  0.9321 -0.0208  0.6128
 8422TIP3   OH246756   2.013   2.868   0.379 -0.1098  0.2063  0.1527
 8422TIP3    H146757   1.952   2.817   0.433 -0.1253 -1.1380 -1.0544
 8422TIP3    H246758   1.997   2.959   0.403 -0.2360 -0.3294  2.2462
 8423TIP3   OH246759   3.151   5.383   6.004 -0.2587  0.3896 -0.4402
 8423TIP3    H146760   3.233   5.335   6.016 -0.6653 -0.7810 -2.0191
 8423TIP3    H246761   3.170   5.471   6.034  1.0576 -0.2905  0.8398
 8424TIP3   OH246762   0.338   4.615  15.979 -0.5032 -0.0172 -0.2418
 8424TIP3    H146763   0.387   4.562  15.916 -0.4420 -0.1283 -0.0997
 8424TIP3    H246764   0.404   4.669  16.022 -0.4340 -0.5317  0.3103
 8425TIP3   OH246765   6.101   1.392  14.042  0.3680  0.7636 -0.0304
 8425TIP3    H146766   6.086   1.465  14.103  1.8301 -0.7187  2.2758
 8425TIP3    H246767   6.067   1.315  14.088  2.9092 -0.6458 -0.3206
 8426TIP3   OH246768   4.435   5.737   4.917 -0.0333 -0.1262  0.1545
 8426TIP3    H146769   4.379   5.735   4.839 -0.6331 -1.4161  0.5899
 8426TIP3    H246770   4.376   5.718   4.989  0.8422 -0.8203  0.7030
 8427TIP3   OH246771   5.188   3.579  13.866 -0.3127  0.1022  0.2962
 8427TIP3    H146772   5.190   3.666  13.906  1.5798 -0.2034  0.9965
 8427TIP3    H246773   5.213   3.594  13.775 -1.3974  0.4327  0.0425
 8428TIP3   OH246774   0.977   2.535  11.732 -0.2549 -0.2006 -0.3173
 8428TIP3    H146775   0.950   2.447  11.755  0.6065 -0.3109  0.3383
 8428TIP3    H246776   1.063   2.545  11.773 -0.1944  0.8205 -0.6631
 8429TIP3   OH246777   3.051   3.175  16.092 -0.7854  0.0347 -0.1742
 8429TIP3    H146778   3.112   3.103  16.078  0.4342  0.8997  0.4306
 8429TIP3    H246779   3.060   3.229  16.014  1.0155  1.3568  0.8442
 8430TIP3   OH246780   6.008   6.221  11.706  0.3174  0.0813 -0.4175
 8430TIP3    H146781   6.010   6.242  11.613 -2.9468 -1.4281 -0.9656
 8430TIP3    H246782   5.986   6.128  11.709  0.6912  0.0060  1.8934
 8431TIP3   OH246783   2.215   2.427   3.069  0.0340  0.1768 -0.2284
 8431TIP3    H146784   2.123   2.428   3.045  0.6241  1.2210 -2.7576
 8431TIP3    H246785   2.262   2.421   2.986  2.2575 -0.1185  0.9654
 8432TIP3   OH246786   5.760   5.799   1.908  0.0867 -0.2680  0.7795
 8432TIP3    H146787   5.793   5.742   1.839 -1.6767  1.3819 -1.5915
 8432TIP3    H246788   5.700   5.743   1.959 -1.3866 -0.7050 -1.3025
 8433TIP3   OH246789   0.429   1.483  15.366 -0.3256  0.7163  0.3505
 8433TIP3    H146790   0.500   1.546  15.359 -0.8030  1.1357 -1.0615
 8433TIP3    H246791   0.353   1.534  15.394 -0.1764  0.3211  1.5588
 8434TIP3   OH246792   5.435   5.954   6.768  0.3274 -0.4041 -0.0387
 8434TIP3    H146793   5.490   5.967   6.691  0.5026  0.6173  0.2432
 8434TIP3    H246794   5.453   6.031   6.824 -0.9246 -0.3592  0.3326
 8435TIP3   OH246795   6.125   4.950  14.505 -0.2294  0.6153  0.3477
 8435TIP3    H146796   6.193   4.883  14.501 -1.5619 -0.7427 -2.4508
 8435TIP3    H246797   6.170   5.027  14.538  3.0420  0.1080 -2.2889
 8436TIP3   OH246798   3.240   0.696   0.208 -0.5891  0.6194 -0.3099
 8436TIP3    H146799   3.226   0.692   0.302  0.5258  0.9414 -0.1098
 8436TIP3    H246800   3.169   0.751   0.175 -0.6631  0.9721  0.4173
 8437TIP3   OH246801   1.049   1.211  15.069 -0.4348  0.2980 -0.3121
 8437TIP3    H146802   1.083   1.170  14.989  0.2299 -0.2602  0.2469
 8437TIP3    H246803   0.963   1.171  15.081  0.1037 -0.7683  0.0845
 8438TIP3   OH246804   0.677   4.187  15.623  0.0965  0.4555 -0.3524
 8438TIP3    H146805   0.596   4.234  15.605  0.1155  0.8696  0.5541
 8438TIP3    H246806   0.744   4.235  15.575 -0.2853 -0.3374 -1.7291
 8439TIP3   OH246807   5.655   0.521  12.218  0.4072  0.8542 -0.2929
 8439TIP3    H146808   5.626   0.568  12.140  1.8491 -0.9329 -1.9777
 8439TIP3    H246809   5.575   0.513  12.271 -0.5192  2.4700 -1.3539
 8440TIP3   OH246810   3.468   4.613   0.156  0.1532 -0.7460  0.0897
 8440TIP3    H146811   3.470   4.709   0.163 -0.6888 -0.7007 -0.2134
 8440TIP3    H246812   3.398   4.586   0.215 -1.1566 -0.9905 -1.5068
 8441TIP3   OH246813   4.856   2.110   3.995 -0.4022 -0.5095 -0.8613
 8441TIP3    H146814   4.819   2.184   4.043  1.2789  2.0732 -3.2342
 8441TIP3    H246815   4.945   2.101   4.030  0.9508  1.5910 -3.3318
 8442TIP3   OH246816   4.468   4.865  11.776 -0.7075 -0.6797 -0.2696
 8442TIP3    H146817   4.523   4.814  11.717  0.8002 -0.2380  0.6861
 8442TIP3    H246818   4.435   4.936  11.722  2.5626  1.1183 -0.1634
 8443TIP3   OH246819   2.774   2.472   3.903 -0.1075 -0.2398 -0.6224
 8443TIP3    H146820   2.685   2.488   3.935 -0.2605 -1.7434 -0.2206
 8443TIP3    H246821   2.780   2.377   3.896  1.9707 -0.2820  0.8092
 8444TIP3   OH246822   6.755   5.389  11.655 -0.5030 -0.0253 -0.1089
 8444TIP3    H146823   6.846   5.365  11.637 -0.0871  1.3657  0.0144
 8444TIP3    H246824   6.740   5.362  11.745  0.2132  0.8536  0.2976
 8445TIP3   OH246825   5.428   5.363  11.954  0.5457  0.1321  0.0427
 8445TIP3    H146826   5.352   5.414  11.982  0.9207 -0.6711  2.8540
 8445TIP3    H246827   5.456   5.404  11.872 -0.5859  2.8801  0.9104
 8446TIP3   OH246828   4.436   6.366   3.229  0.1423 -0.0777 -0.3893
 8446TIP3    H146829   4.361   6.412   3.192  0.5089 -0.4579 -1.6770
 8446TIP3    H246830   4.453   6.410   3.312 -1.5097 -0.0105 -0.0625
 8447TIP3   OH246831   2.232   6.059   3.850  0.2668 -0.2808 -0.1249
 8447TIP3    H146832   2.200   6.146   3.826  1.8824  0.4413  0.2162
 8447TIP3    H246833   2.196   6.001   3.784  0.9704  0.9883 -1.6920
 8448TIP3   OH246834   0.087   4.665   1.559  0.1813 -0.1347 -0.2914
 8448TIP3    H146835   0.047   4.747   1.589 -1.2079 -0.7828 -0.2921
 8448TIP3    H246836   0.169   4.659   1.607 -0.3432  0.5939  0.7227
 8449TIP3   OH246837   2.000   1.589  12.950 -0.4252  0.2235 -0.2328
 8449TIP3    H146838   1.970   1.679  12.959 -1.9709 -0.1086 -1.5710
 8449TIP3    H246839   1.945   1.539  13.012 -0.5039  0.0261 -0.4597
 8450TIP3   OH246840   2.458   1.929   0.343  0.0996  0.9413  0.7227
 8450TIP3    H146841   2.410   1.975   0.412  2.4234  2.5211  1.3951
 8450TIP3    H246842   2.550   1.949   0.359  0.8928 -0.2525 -1.7104
 8451TIP3   OH246843   3.091   6.512   3.080 -0.1101 -0.1586 -0.0927
 8451TIP3    H146844   3.024   6.557   3.028 -0.7750 -0.0585  0.8281
 8451TIP3    H246845   3.155   6.580   3.100 -0.5492  0.1239  0.3644
 8452TIP3   OH246846   6.150   6.274   1.714 -0.3088  0.5363 -0.0319
 8452TIP3    H146847   6.150   6.255   1.808 -0.0764  0.6478 -0.0090
 8452TIP3    H246848   6.069   6.322   1.699  0.0558  1.2687  0.2643
 8453TIP3   OH246849   4.627   0.721   5.009 -0.1634 -0.0727  0.1584
 8453TIP3    H146850   4.535   0.745   5.022 -0.2852 -0.7966  0.7310
 8453TIP3    H246851   4.633   0.693   4.918 -1.0370 -2.1677  0.6888
 8454TIP3   OH246852   4.225   2.844  10.589 -0.4848 -0.2044 -0.5067
 8454TIP3    H146853   4.179   2.804  10.516  0.3402  0.3042 -1.3241
 8454TIP3    H246854   4.310   2.870  10.553  0.2743 -0.7019  0.8393
 8455TIP3   OH246855   1.505   4.331   2.273  0.7720 -0.2390 -0.6233
 8455TIP3    H146856   1.591   4.371   2.283  0.5147  0.3097 -0.5665
 8455TIP3    H246857   1.444   4.395   2.310  0.1562  0.2182 -2.3351
 8456TIP3   OH246858   4.068   6.626   6.228  0.4113 -0.2756 -0.0834
 8456TIP3    H146859   3.994   6.619   6.167  0.2350  0.8238 -0.0165
 8456TIP3    H246860   4.038   6.687   6.295  0.6655 -1.3384  1.0425
 8457TIP3   OH246861   4.504   1.244  15.264  0.2729 -0.1723  0.2158
 8457TIP3    H146862   4.490   1.252  15.358 -0.7940 -1.0233  0.1592
 8457TIP3    H246863   4.516   1.334  15.233  2.2222  0.0129  1.3569
 8458TIP3   OH246864   1.418   1.307   1.386  0.3504  0.3331  0.3320
 8458TIP3    H146865   1.382   1.366   1.453  0.4135  0.7190  0.0326
 8458TIP3    H246866   1.419   1.360   1.307  0.9278  0.1015  0.1807
 8459TIP3   OH246867   5.674   4.256   0.874  0.3850  0.2407 -0.4469
 8459TIP3    H146868   5.669   4.177   0.927  0.4515  0.8961  0.5722
 8459TIP3    H246869   5.587   4.297   0.884  0.6568  0.7699 -0.1778
 8460TIP3   OH246870   5.930   4.674  16.329  0.1181  0.0250  0.4043
 8460TIP3    H146871   5.839   4.703  16.323  0.4133  1.2990  1.5705
 8460TIP3    H246872   5.931   4.588  16.288 -1.4206  0.3930 -0.4661
 8461TIP3   OH246873   5.834   4.018   5.419 -0.1836  0.4555 -0.2019
 8461TIP3    H146874   5.904   4.079   5.440  1.6905 -0.5374 -2.9395
 8461TIP3    H246875   5.807   4.043   5.330 -1.8428 -0.5586 -0.0367
 8462TIP3   OH246876   6.478   1.276   0.929 -0.1634 -0.5892  0.1767
 8462TIP3    H146877   6.522   1.275   0.844  0.2114  0.8124  0.3359
 8462TIP3    H246878   6.385   1.267   0.908  0.0129 -1.5645 -0.2803
 8463TIP3   OH246879   1.063   3.180  11.527 -0.5521  0.5063 -0.2079
 8463TIP3    H146880   1.106   3.199  11.444 -3.3409 -0.9162 -2.1520
 8463TIP3    H246881   1.012   3.259  11.546 -0.8374  0.3985 -0.5115
 8464TIP3   OH246882   3.269   5.655  13.517  0.5315  0.0988 -0.0309
 8464TIP3    H146883   3.234   5.594  13.582  1.6435  0.2851  0.7709
 8464TIP3    H246884   3.317   5.600  13.455  1.6902  0.1314  0.7939
 8465TIP3   OH246885   4.105   0.792  12.640  0.3859  0.6072 -0.5652
 8465TIP3    H146886   4.051   0.837  12.705  0.1180 -0.1430 -0.2509
 8465TIP3    H246887   4.179   0.850  12.625  0.5006  0.7448  0.4906
 8466TIP3   OH246888   1.819   6.207  13.710 -0.0284 -1.0197 -0.9372
 8466TIP3    H146889   1.741   6.152  13.711 -0.5117 -0.4779  2.6454
 8466TIP3    H246890   1.787   6.294  13.687 -0.4466 -0.8784  0.1368
 8467TIP3   OH246891   4.673   3.265   1.526  0.1405 -0.2027 -0.0168
 8467TIP3    H146892   4.592   3.279   1.476  0.1306 -0.4999 -0.0873
 8467TIP3    H246893   4.743   3.283   1.463  0.1587  1.4721  0.4225
 8468TIP3   OH246894   1.491   6.711   5.040 -0.1681  0.4936  0.0964
 8468TIP3    H146895   1.495   6.738   5.132  2.6420  0.5870  0.0393
 8468TIP3    H246896   1.519   6.788   4.991 -0.7065  0.1405 -0.7882
 8469TIP3   OH246897   5.177   6.386   5.114 -0.2119 -0.1156 -0.4271
 8469TIP3    H146898   5.168   6.367   5.207 -3.2727  1.1266 -0.3425
 8469TIP3    H246899   5.165   6.301   5.071  2.1459 -0.8612  0.2457
 8470TIP3   OH246900   0.042   3.133  13.061 -1.0514 -0.1262 -0.5572
 8470TIP3    H146901   0.098   3.061  13.031  0.4170  0.6623  0.1742
 8470TIP3    H246902  -0.008   3.097  13.133  1.5456  0.1871  1.5427
 8471TIP3   OH246903   0.616   0.186  11.729  0.0638  0.4731 -0.1654
 8471TIP3    H146904   0.547   0.151  11.671 -0.1390 -0.4829  0.6292
 8471TIP3    H246905   0.577   0.184  11.816  0.4294  1.7492  0.0370
 8472TIP3   OH246906   4.107   1.588  11.933 -0.0454 -0.0709 -0.0601
 8472TIP3    H146907   4.098   1.677  11.966 -0.6445 -0.3552  0.5662
 8472TIP3    H246908   4.175   1.594  11.866 -0.5086  0.9669 -0.4560
 8473TIP3   OH246909   6.435   1.847   5.526 -0.9306  0.1753 -0.3630
 8473TIP3    H146910   6.487   1.862   5.605 -0.4460  3.9802 -1.2143
 8473TIP3    H246911   6.346   1.833   5.558 -0.1656 -2.5310  0.9182
 8474TIP3   OH246912   0.497   5.534  11.530 -0.6462 -1.5103 -0.0188
 8474TIP3    H146913   0.411   5.551  11.568  0.1700  0.2727  1.1793
 8474TIP3    H246914   0.556   5.535  11.605  0.9053  1.0646 -1.1544
 8475TIP3   OH246915   5.975   4.194  16.673 -0.2324 -0.2645  0.0441
 8475TIP3    H146916   6.010   4.247  16.745 -0.4858 -0.7835  0.5609
 8475TIP3    H246917   5.926   4.256  16.619 -1.1506 -0.0890  1.0483
 8476TIP3   OH246918   0.302   0.714  13.783 -0.3991 -0.5793  0.0539
 8476TIP3    H146919   0.363   0.662  13.835 -0.0573  0.2025  0.4394
 8476TIP3    H246920   0.224   0.721  13.837  0.4855  1.5084  1.1639
 8477TIP3   OH246921   5.290   2.580  12.508 -0.1542 -0.5340  0.1147
 8477TIP3    H146922   5.291   2.516  12.437 -1.4162 -0.9456  0.4334
 8477TIP3    H246923   5.220   2.641  12.484  0.9258  0.6704 -0.1077
 8478TIP3   OH246924   3.541   3.098  17.150  0.0823  0.1678 -0.1539
 8478TIP3    H146925   3.549   3.009  17.115 -1.8708  0.4200 -1.4261
 8478TIP3    H246926   3.597   3.099  17.227 -0.2720 -2.3375  0.2141
 8479TIP3   OH246927   1.795   1.365  15.350  0.4938 -0.1691  0.5842
 8479TIP3    H146928   1.750   1.287  15.319 -1.2154  0.6341  0.9124
 8479TIP3    H246929   1.744   1.394  15.426  0.1750  2.0812 -0.4108
 8480TIP3   OH246930   4.675   0.043  12.309  0.7612  0.1422  0.2042
 8480TIP3    H146931   4.671  -0.051  12.292  2.0758  0.1417 -0.2016
 8480TIP3    H246932   4.730   0.051  12.388 -1.1541  0.4599  1.5773
 8481TIP3   OH246933   5.477   1.434   2.051 -0.1063  0.1736  0.1437
 8481TIP3    H146934   5.566   1.402   2.066 -0.4376 -0.2941  1.1816
 8481TIP3    H246935   5.430   1.414   2.131 -0.8356  1.5764  0.1008
 8482TIP3   OH246936   2.960   5.450  15.185 -0.0505  0.1460  0.2518
 8482TIP3    H146937   3.033   5.409  15.138 -2.1681 -3.0707 -0.5455
 8482TIP3    H246938   2.934   5.385  15.249 -2.3246  1.1108  0.3808
 8483TIP3   OH246939   5.713   5.725   2.558 -0.1962  0.0920  0.0183
 8483TIP3    H146940   5.652   5.674   2.611 -1.1816 -0.4908 -1.6153
 8483TIP3    H246941   5.787   5.665   2.542 -0.3739 -0.0922 -0.1152
 8484TIP3   OH246942   2.260   1.016  17.297 -0.3763 -0.2294  0.4690
 8484TIP3    H146943   2.245   1.096  17.248  1.5979  1.0119  1.7622
 8484TIP3    H246944   2.307   0.959  17.236 -0.0180  0.3743  0.1747
 8485TIP3   OH246945   5.026   0.982  13.511 -0.9545  0.2136  0.2341
 8485TIP3    H146946   5.072   0.917  13.459  0.1307  1.6269 -0.6567
 8485TIP3    H246947   5.094   1.045  13.537 -1.9757  1.0837  0.9049
 8486TIP3   OH246948   3.026   4.822  13.355  0.2396  0.0951 -0.4331
 8486TIP3    H146949   3.070   4.738  13.347  0.2037  0.0801 -0.4735
 8486TIP3    H246950   2.933   4.802  13.340  0.1356  0.0250  0.2471
 8487TIP3   OH246951   6.230   1.293  15.559  0.1755  0.3050  0.3176
 8487TIP3    H146952   6.185   1.346  15.493 -0.3752 -0.0093  0.4352
 8487TIP3    H246953   6.166   1.284  15.630  1.0566  1.3647  1.2889
 8488TIP3   OH246954   1.505   1.127  15.702  0.2231 -0.6247  0.4736
 8488TIP3    H146955   1.485   1.170  15.620 -0.4441 -0.5801  0.6580
 8488TIP3    H246956   1.538   1.041  15.677  1.2483 -0.1496  0.1190
 8489TIP3   OH246957   5.990   4.345  14.974  0.4776  0.1331  0.3432
 8489TIP3    H146958   6.075   4.385  14.955  1.7051 -2.4814 -0.0970
 8489TIP3    H246959   5.932   4.377  14.904  1.9438 -0.4334 -1.2046
 8490TIP3   OH246960   6.623   4.452  11.949  0.2041  0.2291 -0.0985
 8490TIP3    H146961   6.551   4.469  11.888  1.4747  2.2303 -1.1642
 8490TIP3    H246962   6.609   4.362  11.978 -0.4103 -0.9400 -3.5025
 8491TIP3   OH246963   2.287   3.966  12.314 -0.5696  0.4649 -0.2411
 8491TIP3    H146964   2.340   3.889  12.337  1.4072  1.7756 -0.2022
 8491TIP3    H246965   2.255   3.999  12.398 -1.1434 -0.0733 -0.2329
 8492TIP3   OH246966   0.206   0.076   2.233  0.6576 -0.7037  0.1888
 8492TIP3    H146967   0.231   0.168   2.239 -0.0402 -0.4529 -0.6306
 8492TIP3    H246968   0.155   0.069   2.152  1.2056 -1.9311 -0.0845
 8493TIP3   OH246969   1.355   5.967  15.786 -0.5057  0.3640  0.2105
 8493TIP3    H146970   1.397   5.960  15.872  0.2938  0.5212 -0.1515
 8493TIP3    H246971   1.377   6.056  15.757  0.8158 -0.2932 -0.9391
 8494TIP3   OH246972   4.325   4.645  13.075 -0.2080  0.0018 -0.5491
 8494TIP3    H146973   4.248   4.659  13.130  1.1485  3.3137  0.7645
 8494TIP3    H246974   4.311   4.704  13.000  0.1756 -0.8317 -1.2849
 8495TIP3   OH246975   5.910   2.400  15.507  0.3143 -0.4252 -0.0757
 8495TIP3    H146976   5.866   2.480  15.479 -1.8082 -0.8298  1.8188
 8495TIP3    H246977   5.891   2.336  15.439  0.7462  0.2701 -0.8608
 8496TIP3   OH246978   6.672   1.344   0.729  0.7098 -0.0793 -0.6225
 8496TIP3    H146979   6.730   1.267   0.731 -1.3026 -1.7279 -1.4087
 8496TIP3    H246980   6.633   1.341   0.642 -2.1783 -0.3982  0.5830
 8497TIP3   OH246981   3.358   3.137  13.253  0.1543 -0.5171 -0.3005
 8497TIP3    H146982   3.451   3.119  13.238  0.2027 -0.3134 -0.2454
 8497TIP3    H246983   3.355   3.229  13.279  0.0729 -0.8478  0.8963
 8498TIP3   OH246984   6.759   2.684  12.944  0.1405 -0.0693  0.2858
 8498TIP3    H146985   6.848   2.651  12.950  0.2441  0.4234  1.9601
 8498TIP3    H246986   6.704   2.610  12.968  0.1667 -0.0436  0.4249
 8499TIP3   OH246987   2.638   6.140  11.154  0.2585  0.1163 -0.3979
 8499TIP3    H146988   2.730   6.122  11.131 -0.0992 -3.8216  0.4842
 8499TIP3    H246989   2.589   6.100  11.082 -0.7346 -0.4115  0.5536
 8500TIP3   OH246990   0.007   0.520   0.891 -0.1599  0.0585 -0.0450
 8500TIP3    H146991   0.074   0.508   0.959  0.6437  0.7227 -0.6995
 8500TIP3    H246992   0.014   0.442   0.836 -1.5781 -1.0270  1.2442
 8501TIP3   OH246993   6.566   0.927   3.524  0.1348 -0.0862  0.5930
 8501TIP3    H146994   6.563   0.958   3.434 -1.2117 -1.2899  0.1919
 8501TIP3    H246995   6.491   0.867   3.532  1.0005 -1.0348  2.1265
 8502TIP3   OH246996   3.982   1.391  13.251 -0.1692  0.2721 -0.2410
 8502TIP3    H146997   3.935   1.418  13.329  1.6954 -0.5084  1.2276
 8502TIP3    H246998   4.071   1.423  13.264  0.3483 -0.4434 -1.7449
 8503TIP3   OH246999   2.277   4.217   2.975 -0.7568  0.3893 -0.0420
 8503TIP3    H147000   2.369   4.192   2.972 -0.6011  0.7070  1.4703
 8503TIP3    H247001   2.273   4.302   2.930 -0.2615  0.5293  0.1776
 8504TIP3   OH247002   3.489   4.006  12.831  0.4708  0.1389 -0.5055
 8504TIP3    H147003   3.394   4.017  12.834  0.3282 -0.8066 -1.0839
 8504TIP3    H247004   3.512   4.018  12.739  0.6923 -1.1127 -0.6394
 8505TIP3   OH247005   1.505   0.649   6.341 -0.4355 -0.8187 -0.0606
 8505TIP3    H147006   1.514   0.652   6.246 -1.0462 -2.2230 -0.1825
 8505TIP3    H247007   1.411   0.659   6.357 -0.3806 -0.9413  0.3686
 8506TIP3   OH247008   3.781   1.665   5.068  0.3789 -0.5559  0.0796
 8506TIP3    H147009   3.789   1.685   4.975  0.5742  1.5041  0.4830
 8506TIP3    H247010   3.695   1.625   5.078  0.3129 -0.6798 -0.9594
 8507TIP3   OH247011   2.564   1.589   0.672 -0.0811  0.5082  0.2224
 8507TIP3    H147012   2.471   1.596   0.695  0.3150  2.3962  1.4234
 8507TIP3    H247013   2.609   1.582   0.756  0.7940 -2.9702 -0.3529
 8508TIP3   OH247014   6.317   0.189   5.237  0.1579  0.5998 -0.1922
 8508TIP3    H147015   6.314   0.155   5.326  0.7331 -0.5449 -0.5942
 8508TIP3    H247016   6.397   0.243   5.235  1.7871 -1.7076 -0.7818
 8509TIP3   OH247017   2.260   4.699   1.105 -0.7302 -0.0148 -0.0442
 8509TIP3    H147018   2.288   4.778   1.059  0.0932  0.1616  0.7460
 8509TIP3    H247019   2.168   4.715   1.127 -0.5143  0.8163  0.2903
 8510TIP3   OH247020   6.234   3.469   1.351 -0.1055  0.1209  0.4053
 8510TIP3    H147021   6.299   3.459   1.281 -2.6101  0.6159 -2.1787
 8510TIP3    H247022   6.251   3.556   1.388  0.9896  0.0365  0.1234
 8511TIP3   OH247023   3.412   3.626   0.637 -0.2950 -0.1544 -0.4721
 8511TIP3    H147024   3.381   3.564   0.570 -1.7362 -1.1688  1.0442
 8511TIP3    H247025   3.343   3.691   0.643 -0.4795 -0.4295  0.4656
 8512TIP3   OH247026   1.346   1.049   0.548  0.3308 -0.5129 -0.0493
 8512TIP3    H147027   1.369   1.027   0.458 -0.5728  1.3974 -0.8056
 8512TIP3    H247028   1.303   0.971   0.582 -1.2324 -0.5781 -2.0058
 8513TIP3   OH247029   0.843   4.470   5.220 -0.0112  0.8860 -0.5585
 8513TIP3    H147030   0.782   4.533   5.259  0.9677  1.3481  0.2899
 8513TIP3    H247031   0.818   4.466   5.128 -0.2407  2.3734 -0.5938
 8514TIP3   OH247032   1.908   0.580  14.132 -0.4554 -0.1909  0.7989
 8514TIP3    H147033   1.926   0.511  14.196 -0.8965  1.1830  2.5081
 8514TIP3    H247034   1.971   0.565  14.062 -0.4325 -2.2027  1.2032
 8515TIP3   OH247035   4.278   3.353   1.310 -0.1103  0.0575  0.0171
 8515TIP3    H147036   4.312   3.431   1.267  0.3559  0.3743  0.9441
 8515TIP3    H247037   4.185   3.351   1.287 -0.0454  0.6715 -0.3131
 8516TIP3   OH247038   1.529   0.658  12.000 -0.3157 -0.3465 -0.5968
 8516TIP3    H147039   1.487   0.633  12.082 -0.6492  1.2346 -0.2560
 8516TIP3    H247040   1.582   0.582  11.976  0.2524 -0.6211  1.3836
 8517TIP3   OH247041   2.093   1.122   6.232 -0.6472  0.0768  0.1352
 8517TIP3    H147042   2.070   1.064   6.304  2.3874  1.0874  2.1088
 8517TIP3    H247043   2.161   1.076   6.184  0.1698  1.0278  0.3498
 8518TIP3   OH247044   0.767   0.882   2.712  0.4727 -0.3663  0.3683
 8518TIP3    H147045   0.685   0.930   2.712  1.9236  2.3741  2.5712
 8518TIP3    H247046   0.747   0.800   2.758 -1.1199 -0.0131  0.3484
 8519TIP3   OH247047   0.477   4.225  16.427 -0.1606 -0.1389 -0.1218
 8519TIP3    H147048   0.404   4.188  16.377  0.4246 -0.8452 -0.4629
 8519TIP3    H247049   0.518   4.149  16.468  0.0659  0.3168  0.5002
 8520TIP3   OH247050   1.483   3.667   3.441  0.2629 -0.3844 -0.0937
 8520TIP3    H147051   1.513   3.710   3.360 -0.0645 -0.8367 -0.4633
 8520TIP3    H247052   1.427   3.595   3.410 -0.7876  0.1310  0.5628
 8521TIP3   OH247053   4.456   4.127   3.633 -0.4627 -0.2677 -0.3928
 8521TIP3    H147054   4.478   4.063   3.566 -1.3561 -2.3638  1.1987
 8521TIP3    H247055   4.429   4.205   3.584  0.9016 -0.9903 -2.3994
 8522TIP3   OH247056   3.978   6.644  13.658  1.0071 -0.5718 -0.1979
 8522TIP3    H147057   4.004   6.675  13.745  0.8859  0.6208 -0.5801
 8522TIP3    H247058   4.010   6.553  13.655 -0.1472 -1.0928  1.5756
 8523TIP3   OH247059   5.951   3.373  14.103  0.4328  0.0357  0.0434
 8523TIP3    H147060   5.879   3.389  14.043  1.0155  0.6248 -0.5255
 8523TIP3    H247061   5.967   3.279  14.098  0.6660  0.1249 -0.9512
 8524TIP3   OH247062   4.520   5.131  14.761 -0.0574  0.3911 -0.4819
 8524TIP3    H147063   4.612   5.111  14.780 -0.4853 -1.8142 -0.4424
 8524TIP3    H247064   4.502   5.080  14.681 -0.7077  2.4368 -1.6973
 8525TIP3   OH247065   5.337   6.456  10.903  0.5086  0.5861 -0.3189
 8525TIP3    H147066   5.327   6.534  10.958  0.9149 -0.1762  0.8814
 8525TIP3    H247067   5.249   6.419  10.899  0.5745  0.3477  0.2953
 8526TIP3   OH247068   5.795   6.151   1.332 -0.4933  0.1523  0.0142
 8526TIP3    H147069   5.793   6.104   1.415 -1.9646 -0.3713 -0.2949
 8526TIP3    H247070   5.807   6.243   1.357  1.7056 -0.2543  0.6523
 8527TIP3   OH247071   6.708   6.345  11.277  0.4544 -0.3243 -0.5278
 8527TIP3    H147072   6.754   6.331  11.360 -1.2510 -0.5773  0.4100
 8527TIP3    H247073   6.620   6.313  11.292  0.0454 -0.2204 -2.4084
 8528TIP3   OH247074   5.385   0.479   4.585 -0.1174  0.0855  0.2101
 8528TIP3    H147075   5.347   0.552   4.633 -0.4651 -1.5384  2.5267
 8528TIP3    H247076   5.477   0.478   4.611 -0.2620 -0.6895  0.7050
 8529TIP3   OH247077   0.500   5.984  12.503  0.0725 -0.1760  0.3659
 8529TIP3    H147078   0.574   5.976  12.563  0.6765 -0.3547 -0.3881
 8529TIP3    H247079   0.458   5.898  12.505  0.5867 -0.4472 -0.0800
 8530TIP3   OH247080   1.520   3.306  13.306 -0.0085 -0.2413  0.2332
 8530TIP3    H147081   1.492   3.373  13.244  1.0247  0.8031  0.8672
 8530TIP3    H247082   1.473   3.326  13.387 -0.1899 -0.6728  0.2379
 8531TIP3   OH247083   1.143   2.750  12.442 -0.0126  0.0393 -0.4174
 8531TIP3    H147084   1.167   2.762  12.350 -1.3018 -0.4641 -0.8432
 8531TIP3    H247085   1.145   2.655  12.455  0.7955  0.1396  0.2662
 8532TIP3   OH247086   2.279   4.565  15.734  0.4420 -0.0567  0.5040
 8532TIP3    H147087   2.235   4.480  15.728  0.2297  0.0081  1.0443
 8532TIP3    H247088   2.344   4.553  15.803  2.0216 -0.4690 -1.0036
 8533TIP3   OH247089   3.982   2.243  12.378  0.2411  0.2516  0.1517
 8533TIP3    H147090   3.941   2.241  12.292 -1.2475  0.5698  0.8204
 8533TIP3    H247091   3.993   2.336  12.397  2.2920  0.1899 -0.4314
 8534TIP3   OH247092   6.814   3.588   5.287  0.8264 -0.0672 -0.3241
 8534TIP3    H147093   6.752   3.515   5.284  0.3370  0.3634 -2.7987
 8534TIP3    H247094   6.764   3.660   5.327  0.5896 -0.4767  0.1193
 8535TIP3   OH247095   3.879   0.239   5.431 -0.2655  0.5000  0.5460
 8535TIP3    H147096   3.841   0.152   5.417  0.3538  0.0700  1.4591
 8535TIP3    H247097   3.880   0.279   5.344 -0.3511 -0.4859  0.0807
 8536TIP3   OH247098   1.606   6.747   1.879  0.3815 -0.5506  0.0296
 8536TIP3    H147099   1.676   6.755   1.815 -0.1392  0.6970 -0.4156
 8536TIP3    H247100   1.583   6.837   1.902 -1.1296 -0.9117  0.0831
 8537TIP3   OH247101   5.498   3.965   2.121  0.0527  0.1012 -0.3318
 8537TIP3    H147102   5.497   4.061   2.124  0.5464  0.1610 -1.5484
 8537TIP3    H247103   5.444   3.943   2.045  0.6035 -0.5526 -0.5441
 8538TIP3   OH247104   2.553   4.416   3.950  0.1042 -0.8393 -0.3302
 8538TIP3    H147105   2.590   4.347   4.005  0.6695 -0.2030  0.1035
 8538TIP3    H247106   2.622   4.436   3.887  0.5270  0.3425  0.4705
 8539TIP3   OH247107   6.236   6.297   0.238  0.1662 -0.6261 -0.9139
 8539TIP3    H147108   6.180   6.337   0.172  1.3840 -0.7436 -2.0704
 8539TIP3    H247109   6.194   6.213   0.258 -1.6476  0.5557  0.4988
 8540TIP3   OH247110   2.463   2.576  11.519  0.0620  0.0207 -0.0847
 8540TIP3    H147111   2.420   2.578  11.604 -1.8817 -0.1626 -1.0127
 8540TIP3    H247112   2.514   2.657  11.516 -0.7052  0.5517  0.8370
 8541TIP3   OH247113   6.793   3.792   0.356  0.1876 -0.1913 -0.0538
 8541TIP3    H147114   6.745   3.740   0.421  0.8123 -2.5391 -1.3721
 8541TIP3    H247115   6.729   3.856   0.325 -0.8974 -0.7320  0.9758
 8542TIP3   OH247116   0.021   4.932   3.343 -0.0554 -0.1841  0.0704
 8542TIP3    H147117   0.056   4.940   3.254 -1.9367 -1.1229 -0.8051
 8542TIP3    H247118  -0.042   4.860   3.338 -0.6673  0.1577  2.0230
 8543TIP3   OH247119   4.829   5.245  15.616  0.3361 -0.0376 -0.2057
 8543TIP3    H147120   4.870   5.172  15.569  0.2969 -0.9005  1.0417
 8543TIP3    H247121   4.821   5.314  15.550 -0.7478 -1.5633 -1.7724
 8544TIP3   OH247122   6.129   3.844  12.342  0.6583  0.4110  0.0008
 8544TIP3    H147123   6.043   3.886  12.347  1.4022  2.5852 -2.9337
 8544TIP3    H247124   6.189   3.915  12.320  2.7757 -1.5054 -0.7624
 8545TIP3   OH247125   5.329   5.007   4.135  0.7403 -0.5509 -0.9831
 8545TIP3    H147126   5.256   5.055   4.174  1.9923  1.8725 -1.4430
 8545TIP3    H247127   5.370   4.962   4.209 -0.1861 -0.5202 -0.4348
 8546TIP3   OH247128   0.297   2.550   3.557 -0.3527  0.6727  0.5868
 8546TIP3    H147129   0.266   2.639   3.539  0.9264  0.9064 -0.5758
 8546TIP3    H247130   0.380   2.562   3.603  0.9671  0.1372 -1.5538
 8547TIP3   OH247131   4.562   2.662  12.217  0.2053  0.0303 -0.0300
 8547TIP3    H147132   4.604   2.582  12.250  1.6657  0.4234 -0.8347
 8547TIP3    H247133   4.566   2.654  12.122 -1.1667  0.3162 -0.1332
 8548TIP3   OH247134   0.511   0.544  14.508 -0.7901  0.1541 -0.1450
 8548TIP3    H147135   0.549   0.461  14.535  1.2702  0.8658 -0.6246
 8548TIP3    H247136   0.479   0.584  14.589 -1.3958 -0.9034  0.1473
 8549TIP3   OH247137   4.457   0.417   0.683 -0.6132  0.0649 -0.7824
 8549TIP3    H147138   4.436   0.425   0.776  0.6867 -0.3080 -0.4442
 8549TIP3    H247139   4.525   0.482   0.667 -0.1501 -0.5116 -1.2457
 8550TIP3   OH247140   4.713   3.500  13.853  0.2478 -0.0323  0.1865
 8550TIP3    H147141   4.704   3.485  13.948  0.4489  0.7899  0.3387
 8550TIP3    H247142   4.745   3.416  13.819 -2.1335 -1.1526  0.4772
 8551TIP3   OH247143   6.821   6.280  13.237 -0.6305  0.1199 -0.0739
 8551TIP3    H147144   6.855   6.195  13.265 -1.8401 -0.2182  0.3977
 8551TIP3    H247145   6.897   6.338  13.242  0.2459 -0.9424 -0.5280
 8552TIP3   OH247146   5.401   5.751  16.125 -0.7786  0.0750 -0.5576
 8552TIP3    H147147   5.356   5.672  16.095  1.8469 -1.7618  0.0441
 8552TIP3    H247148   5.486   5.749  16.081 -0.4126  2.2789 -0.0731
 8553TIP3   OH247149   1.766   1.315   4.662  0.1474 -0.4411 -0.1182
 8553TIP3    H147150   1.745   1.318   4.569 -3.9219  3.7977  0.5514
 8553TIP3    H247151   1.701   1.254   4.699  0.4510 -0.5813  0.1869
 8554TIP3   OH247152   1.536   5.050   3.398 -0.3742 -0.0272 -0.0559
 8554TIP3    H147153   1.563   5.005   3.317 -0.4994 -0.4238  0.1202
 8554TIP3    H247154   1.545   5.143   3.377 -1.9498 -0.0632 -1.0759
 8555TIP3   OH247155   4.748   0.689  16.590 -0.0984 -0.5784 -0.1548
 8555TIP3    H147156   4.679   0.713  16.653 -0.3973 -1.4247 -0.1549
 8555TIP3    H247157   4.738   0.595  16.577 -0.5955 -0.3006 -2.1221
 8556TIP3   OH247158   6.528   1.685  15.649 -0.4317 -0.8480  0.9230
 8556TIP3    H147159   6.562   1.599  15.622 -2.0885 -1.7125  1.4873
 8556TIP3    H247160   6.437   1.685  15.621 -0.7596  0.2955  1.9110
 8557TIP3   OH247161   4.084   4.282  11.119 -0.1094 -0.0003  0.3850
 8557TIP3    H147162   4.039   4.329  11.048 -1.7002 -1.6552  0.2292
 8557TIP3    H247163   4.039   4.311  11.199 -0.3207 -0.3970  0.4089
 8558TIP3   OH247164   4.126   4.999  17.052 -0.2945  0.1582  0.1554
 8558TIP3    H147165   4.187   5.069  17.071 -0.3051  0.2454 -0.1272
 8558TIP3    H247166   4.046   5.043  17.024 -0.2696  0.0334 -0.1181
 8559TIP3   OH247167   1.141   5.008  11.500 -0.0835  0.5568 -0.4160
 8559TIP3    H147168   1.089   5.089  11.502  0.1724  0.7426 -1.0317
 8559TIP3    H247169   1.181   5.003  11.587 -2.6052 -0.5845  0.7498
 8560TIP3   OH247170   3.836   1.610  12.336  0.6998  0.1923  0.2263
 8560TIP3    H147171   3.931   1.604  12.344  0.6075 -0.0394  1.4901
 8560TIP3    H247172   3.805   1.614  12.427 -0.4314  1.3758 -0.1782
 8561TIP3   OH247173   0.707   1.710  15.528 -0.6397 -0.1391 -0.1902
 8561TIP3    H147174   0.773   1.753  15.582  0.3048 -0.2375 -1.2402
 8561TIP3    H247175   0.756   1.646  15.476 -1.3447  0.6423 -1.8923
 8562TIP3   OH247176   3.551   6.514  16.264  0.1681  0.1698 -0.8061
 8562TIP3    H147177   3.486   6.478  16.324 -0.0470  0.7579 -0.6714
 8562TIP3    H247178   3.607   6.440  16.241  0.6192  0.0421  0.6019
 8563TIP3   OH247179   2.026   3.167  13.332  0.0758 -0.4646  0.3608
 8563TIP3    H147180   2.010   3.206  13.417 -0.4013 -0.3783  0.2337
 8563TIP3    H247181   2.029   3.241  13.271 -0.0283 -0.5618  0.2361
 8564TIP3   OH247182   3.095   2.929   3.287 -0.0748  0.0103 -0.2856
 8564TIP3    H147183   3.019   2.903   3.338 -0.0596 -1.3947 -0.9430
 8564TIP3    H247184   3.152   2.974   3.350 -0.3967 -1.0088  0.7563
 8565TIP3   OH247185   1.252   0.849   5.233  0.5774  0.0108 -0.2558
 8565TIP3    H147186   1.336   0.806   5.220  1.0142  0.4575  0.9137
 8565TIP3    H247187   1.274   0.934   5.271 -0.3120  0.9360 -1.6958
 8566TIP3   OH247188   1.990   1.049  15.169  0.2732  0.5407 -0.2746
 8566TIP3    H147189   1.940   1.069  15.090  1.1331  1.3085 -0.6472
 8566TIP3    H247190   1.943   0.976  15.210 -1.1820  1.2880 -0.5506
 8567TIP3   OH247191   1.977   6.166   3.185 -0.4976 -0.9507  0.2023
 8567TIP3    H147192   1.947   6.176   3.276 -0.4135  1.3007  0.0539
 8567TIP3    H247193   1.925   6.094   3.150 -3.1492  0.4138  1.0505
 8568TIP3   OH247194   5.547   5.976   6.512 -0.3889 -0.2856 -0.0981
 8568TIP3    H147195   5.642   5.989   6.515 -0.2570 -1.2552  2.3871
 8568TIP3    H247196   5.513   6.059   6.480  1.1976  0.9404  1.1902
 8569TIP3   OH247197   5.896   0.529  16.706  0.5414 -0.0310 -0.3975
 8569TIP3    H147198   5.924   0.469  16.637 -1.2711 -0.9430 -0.4032
 8569TIP3    H247199   5.801   0.517  16.711  0.3181  1.7842  0.6163
 8570TIP3   OH247200   6.311   6.678  11.352 -0.4645 -0.0688  0.7291
 8570TIP3    H147201   6.346   6.659  11.439  0.2413  1.7463  0.8879
 8570TIP3    H247202   6.367   6.628  11.293 -1.8180 -2.4458  1.3233
 8571TIP3   OH247203   0.911   3.864  16.155 -0.0505  0.5606  0.2417
 8571TIP3    H147204   0.926   3.782  16.109  0.6644  1.2637 -0.8127
 8571TIP3    H247205   0.844   3.842  16.220 -1.5110 -0.3566 -1.4579
 8572TIP3   OH247206   0.681   2.763   3.887  0.2439  0.2798 -0.0685
 8572TIP3    H147207   0.753   2.755   3.824  0.4469  0.8325  0.0834
 8572TIP3    H247208   0.725   2.777   3.971 -0.0499  1.3594 -0.0865
 8573TIP3   OH247209   3.244   6.069   0.603 -0.3280  0.0109 -0.2764
 8573TIP3    H147210   3.259   5.975   0.598 -0.3083 -0.1637  1.8916
 8573TIP3    H247211   3.151   6.080   0.584 -0.6380 -0.6388  0.7649
 8574TIP3   OH247212   6.300   3.840  16.691  0.2733 -0.2246 -0.4649
 8574TIP3    H147213   6.211   3.813  16.672  0.2316 -1.2046  1.0194
 8574TIP3    H247214   6.293   3.889  16.774  1.0603  0.0527 -0.5536
 8575TIP3   OH247215   6.476   3.971   3.249  0.3152  0.4714 -0.3941
 8575TIP3    H147216   6.478   3.918   3.169 -0.7929  0.4520 -0.4178
 8575TIP3    H247217   6.554   4.027   3.242  1.1264 -0.6587 -0.6923
 8576TIP3   OH247218   0.705   1.138  15.472 -0.1896  0.8607 -0.0564
 8576TIP3    H147219   0.628   1.175  15.428  0.1286  0.5313 -0.9163
 8576TIP3    H247220   0.779   1.187  15.436  0.1462  0.0486 -0.4883
 8577TIP3   OH247221   1.917   1.031   2.108 -0.1572 -0.1962 -0.1603
 8577TIP3    H147222   1.878   1.091   2.171  1.1992  0.1137  0.4295
 8577TIP3    H247223   1.847   1.011   2.046 -1.0960  0.6694  0.5958
 8578TIP3   OH247224   5.567   1.063  15.609 -0.1206  0.1210  0.3395
 8578TIP3    H147225   5.554   0.996  15.542 -1.4753 -1.0101  1.6844
 8578TIP3    H247226   5.540   1.144  15.566  1.7674 -0.0646 -1.3830
 8579TIP3   OH247227   6.792   2.711   0.201 -0.2305 -0.0733  0.3707
 8579TIP3    H147228   6.796   2.615   0.206  1.0460 -0.2064 -1.8941
 8579TIP3    H247229   6.881   2.740   0.220 -0.4195  0.6101  0.2237
 8580TIP3   OH247230   1.572   6.191  11.806 -0.2265  0.2005 -0.0938
 8580TIP3    H147231   1.544   6.171  11.895  0.5217  0.5422  0.2285
 8580TIP3    H247232   1.513   6.140  11.750 -0.9004  0.2272  0.5804
 8581TIP3   OH247233   0.508   5.095  13.615  0.5956  0.0647  0.1520
 8581TIP3    H147234   0.587   5.108  13.668  1.5655  0.1916 -1.2753
 8581TIP3    H247235   0.451   5.042  13.670  2.1850 -1.0987  0.7542
 8582TIP3   OH247236   0.176   1.434  13.910 -0.7447  0.1184 -0.4468
 8582TIP3    H147237   0.224   1.380  13.848 -0.6389 -2.0488  1.3903
 8582TIP3    H247238   0.108   1.376  13.945 -0.3713  1.0072  1.9280
 8583TIP3   OH247239   0.264   5.191  15.461  0.0556  0.3778 -0.0090
 8583TIP3    H147240   0.298   5.277  15.438 -1.4012  0.9655 -0.0835
 8583TIP3    H247241   0.319   5.130  15.413  0.7913  1.2863 -0.3548
 8584TIP3   OH247242   0.804   2.034   2.792  0.4351 -0.1034 -0.0165
 8584TIP3    H147243   0.809   1.977   2.715  0.9551  1.7815 -1.4393
 8584TIP3    H247244   0.796   1.973   2.866 -2.0826 -1.9629 -1.6372
 8585TIP3   OH247245   1.461   3.226  14.150 -0.2390 -0.1391 -0.3876
 8585TIP3    H147246   1.459   3.299  14.211 -0.0406 -0.9229  0.5803
 8585TIP3    H247247   1.457   3.267  14.063  2.7778  1.2129 -0.0056
 8586TIP3   OH247248   0.345   0.405  10.519 -0.6670  0.2361  0.3690
 8586TIP3    H147249   0.290   0.453  10.457 -0.6621  2.5262  2.0354
 8586TIP3    H247250   0.327   0.446  10.604  0.6092 -1.6552  1.6225
 8587TIP3   OH247251   5.270   6.387   2.228 -0.4488 -0.1836  0.6393
 8587TIP3    H147252   5.181   6.352   2.232 -0.7055  0.4769  0.6868
 8587TIP3    H247253   5.261   6.471   2.183  0.3987 -0.9170 -0.9782
 8588TIP3   OH247254   6.380   5.004   2.588 -0.3726 -0.4130 -0.9517
 8588TIP3    H147255   6.308   5.067   2.593 -1.4159 -1.5942 -0.3702
 8588TIP3    H247256   6.450   5.051   2.544  0.0525  2.1947  2.1258
 8589TIP3   OH247257   6.488   2.040   3.224 -0.5037 -0.2191  0.4206
 8589TIP3    H147258   6.550   1.990   3.169  1.2459  0.6926  1.4701
 8589TIP3    H247259   6.412   1.983   3.231 -1.4696  0.1313 -4.0418
 8590TIP3   OH247260   5.428   2.694   5.713 -0.6153  0.2998 -0.4340
 8590TIP3    H147261   5.452   2.751   5.786 -1.0631  1.3116 -1.0539
 8590TIP3    H247262   5.433   2.749   5.636 -1.2231 -0.4538 -1.0399
 8591TIP3   OH247263   1.708   0.750  13.047 -0.5341  0.3109  0.1907
 8591TIP3    H147264   1.618   0.775  13.066 -1.0215 -2.4922  2.1633
 8591TIP3    H247265   1.741   0.712  13.129  2.2587  0.6834 -0.6375
 8592TIP3   OH247266   1.934   6.231   1.471  0.4648  0.3498  0.0302
 8592TIP3    H147267   1.885   6.313   1.474 -1.5471 -0.7845  1.2874
 8592TIP3    H247268   1.950   6.210   1.563  0.1976 -1.0494 -0.2234
 8593TIP3   OH247269   1.716   1.264   2.841 -0.5032 -0.2179  0.5335
 8593TIP3    H147270   1.721   1.180   2.797  0.1767 -0.1358  0.4433
 8593TIP3    H247271   1.704   1.328   2.771 -1.8061 -0.2940  0.6556
 8594TIP3   OH247272   5.685   4.775  15.495 -0.6598 -0.2818 -0.4308
 8594TIP3    H147273   5.693   4.862  15.534 -0.0362 -0.3249 -0.4658
 8594TIP3    H247274   5.709   4.787  15.404  1.7927 -0.9281  0.0713
 8595TIP3   OH247275   0.252   2.841   1.755  0.6032  0.5195  0.2818
 8595TIP3    H147276   0.342   2.818   1.733  0.6596 -0.5653  1.5005
 8595TIP3    H247277   0.239   2.928   1.717  2.6409  1.3477  1.3373
 8596TIP3   OH247278   3.920   3.706  14.018  0.0174  0.0604  0.1156
 8596TIP3    H147279   3.842   3.655  14.042  0.6947 -0.5833  1.0238
 8596TIP3    H247280   3.885   3.791  13.991 -1.1300 -0.7704 -1.1639
 8597TIP3   OH247281   3.226   6.112  16.264  0.2005  0.1808  0.1261
 8597TIP3    H147282   3.162   6.041  16.257 -0.2727  0.6550 -0.3621
 8597TIP3    H247283   3.223   6.157  16.180 -0.2273  1.3971  0.7649
 8598TIP3   OH247284   0.710   3.692  12.184  0.6111 -0.4744  0.8623
 8598TIP3    H147285   0.777   3.651  12.239  1.3844 -2.6363 -1.5059
 8598TIP3    H247286   0.724   3.655  12.097 -2.8666 -0.0360 -0.0360
 8599TIP3   OH247287   4.651   5.968  11.157 -0.0939  0.1813 -0.1432
 8599TIP3    H147288   4.666   5.896  11.096 -0.2528 -1.4320  1.6185
 8599TIP3    H247289   4.684   5.935  11.241  1.3304  2.8027  0.4111
 8600TIP3   OH247290   5.849   6.234  11.927 -0.3077 -0.9019  0.0038
 8600TIP3    H147291   5.904   6.171  11.973  0.4537 -0.6549 -0.5549
 8600TIP3    H247292   5.906   6.271  11.859 -0.8785  0.0462  0.0235
 8601TIP3   OH247293   3.065   4.577   5.729 -0.3888  0.1265  0.6496
 8601TIP3    H147294   2.972   4.597   5.733 -0.2028  0.8430  2.5046
 8601TIP3    H247295   3.107   4.647   5.780  1.3098  0.5252 -1.1317
 8602TIP3   OH247296   4.472   4.619   4.958  0.3886 -0.3786 -0.6964
 8602TIP3    H147297   4.499   4.581   4.875  2.1311 -0.0191 -0.3505
 8602TIP3    H247298   4.487   4.550   5.023  0.1447 -0.2809 -0.5322
 8603TIP3   OH247299   2.550   4.809   3.021 -0.1112 -0.0603 -0.0375
 8603TIP3    H147300   2.502   4.742   2.972 -1.6253  0.9171  0.0505
 8603TIP3    H247301   2.546   4.780   3.112 -1.1073  0.3330  0.0509
 8604TIP3   OH247302   6.342   5.711  10.767 -0.2415  0.4088  0.1265
 8604TIP3    H147303   6.419   5.668  10.730  0.1239 -0.3685  1.6967
 8604TIP3    H247304   6.270   5.684  10.710  0.4251  0.0242 -0.5542
 8605TIP3   OH247305   4.277   3.641   3.204  0.2008 -0.2473 -0.0850
 8605TIP3    H147306   4.252   3.716   3.258  0.4078 -0.3173  0.1111
 8605TIP3    H247307   4.208   3.635   3.138 -0.4887 -0.6608  0.6540
 8606TIP3   OH247308   4.786   3.739   1.515  0.3043 -0.5211 -0.3234
 8606TIP3    H147309   4.797   3.665   1.574  1.1423  0.0408  0.2473
 8606TIP3    H247310   4.861   3.734   1.456  0.5515  0.0666 -0.0641
 8607TIP3   OH247311   6.743   0.234   2.292  0.0764 -0.6115 -0.1868
 8607TIP3    H147312   6.733   0.253   2.199  0.5085  0.7855  0.0424
 8607TIP3    H247313   6.706   0.146   2.302 -1.2709 -0.2280 -1.4287
 8608TIP3   OH247314   1.795   0.756   6.284 -1.2131 -0.2318 -0.3351
 8608TIP3    H147315   1.815   0.839   6.327 -1.1361 -0.1115 -0.6027
 8608TIP3    H247316   1.704   0.764   6.256 -1.4673 -0.5566  0.3668
 8609TIP3   OH247317   4.465   0.874  15.808 -0.2573  0.3264 -0.5040
 8609TIP3    H147318   4.485   0.786  15.841  1.4758  0.3522 -1.3510
 8609TIP3    H247319   4.471   0.930  15.885 -1.5974 -0.3039  0.0887
 8610TIP3   OH247320   3.561   0.180  14.750 -0.2561 -0.2466  0.0574
 8610TIP3    H147321   3.649   0.216  14.738  0.0365 -0.7921  0.4970
 8610TIP3    H247322   3.506   0.256  14.768  0.0214  0.1590 -0.7534
 8611TIP3   OH247323   4.317   5.349   2.317 -0.3597  0.0625  1.0961
 8611TIP3    H147324   4.263   5.358   2.238  1.0001  0.8745  0.2080
 8611TIP3    H247325   4.280   5.274   2.363  0.6296 -2.4030 -1.8212
 8612TIP3   OH247326   6.609   0.394  11.937  0.3037 -0.0207 -0.3556
 8612TIP3    H147327   6.544   0.324  11.923  0.5776  0.0185 -1.9970
 8612TIP3    H247328   6.691   0.357  11.904  0.4147  1.1352 -1.4343
 8613TIP3   OH247329   3.253   2.713  16.957 -0.9177 -0.1212  0.2440
 8613TIP3    H147330   3.333   2.693  16.910  0.2133  0.8203  1.6936
 8613TIP3    H247331   3.192   2.643  16.931  0.2412 -0.6714 -1.1196
 8614TIP3   OH247332   3.368   4.900   5.709 -0.2170  0.3505 -0.2980
 8614TIP3    H147333   3.372   4.996   5.712 -3.2002  0.5860 -0.5758
 8614TIP3    H247334   3.364   4.879   5.615  0.8267 -0.0897 -0.2518
 8615TIP3   OH247335   3.691   1.608   4.621 -0.0838 -0.0668  0.6605
 8615TIP3    H147336   3.688   1.519   4.657  0.9930 -0.8930 -1.1655
 8615TIP3    H247337   3.629   1.607   4.548  1.8300 -0.1990 -1.0714
 8616TIP3   OH247338   3.812   0.372  14.772 -0.3367 -0.1317  0.7013
 8616TIP3    H147339   3.904   0.352  14.792 -0.7345 -0.5613  2.3059
 8616TIP3    H247340   3.814   0.458  14.732  0.6715  0.4372  1.9020
 8617TIP3   OH247341   0.274   6.321   0.562 -0.1063  0.5286 -0.4902
 8617TIP3    H147342   0.209   6.302   0.630 -1.2954  0.3515 -1.6303
 8617TIP3    H247343   0.246   6.268   0.487  0.7801  1.2229 -1.3351
 8618TIP3   OH247344   2.797   4.662  14.094 -0.0336 -0.2860 -0.0736
 8618TIP3    H147345   2.730   4.637  14.030 -0.4803 -1.3899  0.7756
 8618TIP3    H247346   2.864   4.594  14.086  0.3186  0.0497  0.0245
 8619TIP3   OH247347   2.863   4.048  15.121 -0.1989 -0.0014  0.9704
 8619TIP3    H147348   2.956   4.029  15.110 -0.1634  0.9358 -0.5537
 8619TIP3    H247349   2.834   3.986  15.189  0.6339 -3.2524 -1.3643
 8620TIP3   OH247350   6.300   2.405   1.427 -0.8431 -0.1818 -0.2206
 8620TIP3    H147351   6.235   2.335   1.428 -0.6123 -0.3982  0.0725
 8620TIP3    H247352   6.384   2.360   1.420 -0.7896  0.1742 -4.4640
 8621TIP3   OH247353   3.117   6.673  17.275 -0.1242 -0.1415 -0.2438
 8621TIP3    H147354   3.163   6.744  17.321 -0.9161  0.0401  0.2761
 8621TIP3    H247355   3.116   6.701  17.184  0.1272  0.2147 -0.1416
 8622TIP3   OH247356   0.379   1.651  13.330  0.7583  0.5547  0.1346
 8622TIP3    H147357   0.318   1.586  13.364  0.7797 -1.0993 -2.6991
 8622TIP3    H247358   0.347   1.672  13.242  3.4958  0.5677 -0.9716
 8623TIP3   OH247359   4.385   6.347  14.139  0.0602  1.2211  0.3992
 8623TIP3    H147360   4.358   6.294  14.064  0.1168  1.4742  0.1968
 8623TIP3    H247361   4.445   6.291  14.188 -0.0739  1.0094  0.3209
 8624TIP3   OH247362   2.977   5.366  16.120  0.2046  0.4368  0.5189
 8624TIP3    H147363   2.978   5.406  16.207 -0.3857  0.2129  0.6348
 8624TIP3    H247364   2.956   5.274  16.136  0.1534  0.3801  0.1483
 8625TIP3   OH247365   4.300   2.285  13.470  0.3933  0.3208  0.3503
 8625TIP3    H147366   4.333   2.357  13.524  0.9908  0.8728 -0.7150
 8625TIP3    H247367   4.366   2.216  13.479  0.7583  0.6107 -0.0805
 8626TIP3   OH247368   3.069   0.465  16.097  0.5394 -0.0175 -0.4319
 8626TIP3    H147369   3.107   0.387  16.057 -1.6847 -1.4402  0.0279
 8626TIP3    H247370   3.027   0.433  16.177 -0.7434  1.5710 -0.4186
 8627TIP3   OH247371   2.924   3.316   3.364  0.3166 -0.1727  0.3342
 8627TIP3    H147372   2.976   3.301   3.285 -1.2591  1.2470 -1.0604
 8627TIP3    H247373   2.869   3.239   3.372 -0.2334  0.1048 -0.5827
 8628TIP3   OH247374   2.517   1.971   3.220  0.5874 -0.2427  0.5183
 8628TIP3    H147375   2.550   2.060   3.219 -0.3190  0.1195  1.2549
 8628TIP3    H247376   2.440   1.973   3.163 -0.3429 -0.1576  1.7286
 8629TIP3   OH247377   4.414   3.537  11.928 -0.0231 -0.2930  0.2879
 8629TIP3    H147378   4.380   3.623  11.904  2.7325  0.4399 -1.4403
 8629TIP3    H247379   4.414   3.537  12.024  0.5755  1.9482  0.3451
 8630TIP3   OH247380   0.590   3.840   1.347 -0.0273 -0.3462 -1.0196
 8630TIP3    H147381   0.623   3.899   1.415 -2.1685  1.0234 -1.0633
 8630TIP3    H247382   0.655   3.845   1.277  0.1402  1.5442 -0.7817
 8631TIP3   OH247383   0.664   1.293  16.119 -0.3578  0.3156  0.2931
 8631TIP3    H147384   0.619   1.373  16.094 -0.7917 -0.4107 -1.3972
 8631TIP3    H247385   0.717   1.269  16.042  1.1082 -0.1081  1.3887
 8632TIP3   OH247386   5.986   6.069  13.471  0.3526  0.3637  0.2280
 8632TIP3    H147387   5.897   6.065  13.437  0.1953  0.7902  0.5782
 8632TIP3    H247388   6.036   6.012  13.414 -0.3022 -0.5104  0.5106
 8633TIP3   OH247389   6.736   3.339  11.971  0.0690  0.1998 -0.1358
 8633TIP3    H147390   6.796   3.409  11.942  0.3461  0.0688  0.1118
 8633TIP3    H247391   6.683   3.320  11.894  0.4829  0.1809 -0.4193
 8634TIP3   OH247392   2.284   0.933   5.732  0.1623 -0.0924  0.4615
 8634TIP3    H147393   2.338   0.863   5.769  0.3434 -0.1406  0.1155
 8634TIP3    H247394   2.220   0.953   5.800  0.1914 -0.5069  0.6143
 8635TIP3   OH247395   6.452   5.281  15.277  0.0460 -0.2429 -0.1412
 8635TIP3    H147396   6.371   5.264  15.325 -0.3676  0.3072 -0.6336
 8635TIP3    H247397   6.478   5.369  15.305  0.9847 -0.7688  0.7183
 8636TIP3   OH247398   0.245   1.570   0.794  0.4771 -0.0475  0.2847
 8636TIP3    H147399   0.216   1.638   0.855 -0.7796  0.3198 -0.6719
 8636TIP3    H247400   0.255   1.616   0.710  3.0371 -0.3539  0.3436
 8637TIP3   OH247401   4.681   3.361   4.205  0.5885  0.6300 -0.1311
 8637TIP3    H147402   4.708   3.302   4.276  0.4131 -1.8565 -2.0086
 8637TIP3    H247403   4.588   3.378   4.223  0.2493 -0.8738 -0.2767
 8638TIP3   OH247404   4.825   4.449  11.624  0.0810 -0.4298 -0.1015
 8638TIP3    H147405   4.799   4.482  11.538 -0.7099 -0.1291  0.2419
 8638TIP3    H247406   4.887   4.515  11.657 -0.2371 -0.1315 -0.1016
 8639TIP3   OH247407   0.298   3.522   4.149 -0.4267 -0.1413 -0.4431
 8639TIP3    H147408   0.203   3.537   4.155 -0.6266 -1.7031  1.4501
 8639TIP3    H247409   0.335   3.576   4.219  0.3393  1.6598 -2.1196
 8640TIP3   OH247410   4.547   2.821  16.248 -0.7107 -0.3045  0.0322
 8640TIP3    H147411   4.554   2.744  16.304 -1.2328 -0.1117  0.3736
 8640TIP3    H247412   4.468   2.806  16.196 -1.1881  0.2913  0.5682
 8641TIP3   OH247413   4.391   4.206   2.011 -0.5849 -0.3260  0.4975
 8641TIP3    H147414   4.450   4.155   1.956 -0.3812  0.8557 -0.4376
 8641TIP3    H247415   4.417   4.297   1.995 -1.5530  0.1225  1.3771
 8642TIP3   OH247416   1.443   5.319   3.349  0.1980  0.1971  0.1390
 8642TIP3    H147417   1.371   5.313   3.412 -0.6085  1.1577 -0.6473
 8642TIP3    H247418   1.519   5.344   3.402 -0.6096  1.6669  0.6661
 8643TIP3   OH247419   5.002   4.353  13.424 -0.1534  0.1769  0.2477
 8643TIP3    H147420   5.057   4.422  13.461  0.4321  0.4238 -1.0147
 8643TIP3    H247421   5.001   4.372  13.330 -1.1937 -0.6889  0.0652
 8644TIP3   OH247422   3.938   5.931   1.727  0.1183  0.1861  0.4187
 8644TIP3    H147423   3.965   5.859   1.671 -0.8235  0.5575 -0.5756
 8644TIP3    H247424   3.960   6.010   1.677 -3.4190  0.5229 -0.9353
 8645TIP3   OH247425   6.580   2.921   0.980  0.7101  0.0013 -1.0086
 8645TIP3    H147426   6.554   2.835   0.946 -0.5873  0.0674 -0.2622
 8645TIP3    H247427   6.500   2.956   1.020  1.5165  1.0339 -0.2383
 8646TIP3   OH247428   2.786   3.318  16.859 -0.1743  0.3896  0.0125
 8646TIP3    H147429   2.786   3.223  16.850  0.9417  0.3632  0.1955
 8646TIP3    H247430   2.843   3.335  16.934 -0.8178  1.1765  0.3418
 8647TIP3   OH247431   5.644   2.572   6.558 -0.3566  0.2549 -0.1018
 8647TIP3    H147432   5.717   2.631   6.537 -0.4389  1.1452  1.9157
 8647TIP3    H247433   5.567   2.616   6.522 -0.0244 -0.3699 -1.6645
 8648TIP3   OH247434   3.191   2.139  13.957 -0.5025  0.1944  0.0380
 8648TIP3    H147435   3.192   2.211  14.020  0.3003  0.5287 -0.3504
 8648TIP3    H247436   3.227   2.177  13.877 -0.2772 -0.5827 -0.2364
 8649TIP3   OH247437   3.737   3.707  11.546  0.0061  0.5707 -0.3362
 8649TIP3    H147438   3.748   3.778  11.483 -2.8993  1.6797  0.2469
 8649TIP3    H247439   3.736   3.750  11.631  0.6745 -0.5125  0.2464
 8650TIP3   OH247440   6.350   5.905   3.205  0.3728 -0.1373  0.1711
 8650TIP3    H147441   6.426   5.903   3.147  0.5118  0.1897  0.3413
 8650TIP3    H247442   6.383   5.877   3.290  0.6745  1.5850  0.6621
 8651TIP3   OH247443   3.349   1.246   2.193 -0.0640 -0.3983  0.0218
 8651TIP3    H147444   3.335   1.232   2.099  0.1181 -1.0844  0.0941
 8651TIP3    H247445   3.381   1.162   2.225 -1.0553 -0.4637  0.8867
 8652TIP3   OH247446   2.816   1.957   5.033 -0.5306  0.1298 -0.0937
 8652TIP3    H147447   2.730   1.981   5.067 -0.0984  1.7798 -0.0766
 8652TIP3    H247448   2.847   1.889   5.093 -1.4785  0.0992  0.3854
 8653TIP3   OH247449   3.857   0.102   5.687 -0.3119 -0.2151  0.9948
 8653TIP3    H147450   3.837   0.064   5.602 -3.9707 -1.0515  2.0426
 8653TIP3    H247451   3.900   0.185   5.667 -1.2296 -0.2829 -1.6716
 8654TIP3   OH247452   2.799   6.013   1.940  0.1462  0.6565  0.0829
 8654TIP3    H147453   2.733   6.065   1.986  0.4508  1.6572 -0.5849
 8654TIP3    H247454   2.871   6.074   1.923  0.3851  0.1053 -1.0012
 8655TIP3   OH247455   2.121   4.173  13.695  0.0495  0.2950 -0.4361
 8655TIP3    H147456   2.105   4.162  13.601  0.2204 -0.7399 -0.3565
 8655TIP3    H247457   2.068   4.248  13.720 -0.6415  0.0696 -1.1967
 8656TIP3   OH247458   2.346   6.408  12.600 -0.4609  0.1615  0.2446
 8656TIP3    H147459   2.404   6.345  12.643  0.1903  1.1155  0.7883
 8656TIP3    H247460   2.262   6.364  12.596  0.3153 -1.3279 -0.7124
 8657TIP3   OH247461   3.649   3.202  15.323 -0.0543 -0.0150  0.0108
 8657TIP3    H147462   3.707   3.175  15.394  0.1671  1.6520  0.4946
 8657TIP3    H247463   3.677   3.149  15.248 -1.0793 -2.6781  1.3884
 8658TIP3   OH247464   3.163   1.398   3.570  0.2207 -0.6520 -0.0299
 8658TIP3    H147465   3.246   1.353   3.587 -0.0843 -1.3788 -0.4267
 8658TIP3    H247466   3.147   1.384   3.476 -0.6643 -1.0605  0.1720
 8659TIP3   OH247467   2.881   3.327   2.428  0.2692 -0.4620  0.2527
 8659TIP3    H147468   2.960   3.289   2.467  2.2574  0.8347 -2.1893
 8659TIP3    H247469   2.894   3.317   2.333 -1.6998  1.3244 -0.2828
 8660TIP3   OH247470   5.426   5.369   0.352  0.1675  0.1894 -0.0614
 8660TIP3    H147471   5.368   5.306   0.309  0.9046  0.5142 -1.5767
 8660TIP3    H247472   5.485   5.316   0.405 -1.8868 -0.1233  2.1113
 8661TIP3   OH247473   3.571   4.798  13.106 -0.9155  0.1954 -0.0384
 8661TIP3    H147474   3.603   4.723  13.155 -1.1810 -0.0154 -0.1889
 8661TIP3    H247475   3.646   4.857  13.100 -0.7840  0.0595  0.3083
 8662TIP3   OH247476   3.883   6.289  12.578  0.1381  0.0699  0.1101
 8662TIP3    H147477   3.836   6.373  12.575  0.3768  0.1930 -0.2524
 8662TIP3    H247478   3.814   6.224  12.567  0.0961  0.2713 -1.0238
 8663TIP3   OH247479   4.996   1.288   5.805 -0.2083  0.2042  0.4032
 8663TIP3    H147480   4.952   1.352   5.748  0.9645 -0.0986 -0.8989
 8663TIP3    H247481   4.930   1.267   5.872 -1.7709  0.3638 -1.0017
 8664TIP3   OH247482   2.250   4.149  12.114  0.2725  0.4619 -0.1002
 8664TIP3    H147483   2.163   4.182  12.134  1.0024  1.7716  1.1000
 8664TIP3    H247484   2.256   4.067  12.164 -0.4782  0.0189 -0.7090
 8665TIP3   OH247485   4.885   6.006  16.504  0.6650 -0.5088 -0.0541
 8665TIP3    H147486   4.968   6.027  16.547  2.3556 -4.1237 -1.1814
 8665TIP3    H247487   4.853   5.929  16.550 -1.1974 -0.2213 -0.7868
 8666TIP3   OH247488   4.108   2.909  16.768  0.2956  0.1694  0.2711
 8666TIP3    H147489   4.088   3.002  16.783 -2.7084 -0.1448 -1.0239
 8666TIP3    H247490   4.131   2.905  16.675  0.6008 -0.3903  0.3669
 8667TIP3   OH247491   1.372   2.785  15.929  0.1670  0.0842  0.6225
 8667TIP3    H147492   1.344   2.799  16.019  0.0191 -2.6673  1.0800
 8667TIP3    H247493   1.360   2.692  15.914  1.5631  0.2023 -1.7872
 8668TIP3   OH247494   0.390   1.040   5.639 -1.1442  0.0010  0.1614
 8668TIP3    H147495   0.332   1.050   5.714 -0.9058 -1.8613  0.6473
 8668TIP3    H247496   0.477   1.028   5.677 -0.6215  1.4154 -0.5160
 8669TIP3   OH247497   4.998   2.379  15.293  0.0156 -0.1494 -0.1330
 8669TIP3    H147498   4.919   2.365  15.346 -0.5243  1.3985 -0.4885
 8669TIP3    H247499   4.969   2.436  15.222  1.3470 -0.0305 -0.5943
 8670TIP3   OH247500   0.167   1.795   6.377 -0.0264 -0.0804 -0.4201
 8670TIP3    H147501   0.187   1.707   6.345  1.3150 -0.3749  1.1179
 8670TIP3    H247502   0.244   1.848   6.354  0.6220 -0.1118  1.4645
 8671TIP3   OH247503   2.425   1.201  16.209 -0.0411 -0.1461  0.5361
 8671TIP3    H147504   2.367   1.247  16.149 -0.1152 -0.7734  0.1159
 8671TIP3    H247505   2.481   1.270  16.245  0.0125  0.2492 -0.2611
 8672TIP3   OH247506   6.050   3.960   5.113 -0.5566  0.3173 -0.1133
 8672TIP3    H147507   6.130   3.971   5.164  0.3412  1.7460 -1.7201
 8672TIP3    H247508   5.997   4.037   5.135 -0.3269  0.7427 -0.9868
 8673TIP3   OH247509   3.492   2.516  13.596 -0.1603 -0.4531 -0.1929
 8673TIP3    H147510   3.504   2.610  13.606 -2.3564 -0.3136  1.9659
 8673TIP3    H247511   3.428   2.507  13.526 -1.9325 -0.1153  1.3048
 8674TIP3   OH247512   3.005   4.179   1.060 -0.1330  0.3824 -0.6501
 8674TIP3    H147513   3.042   4.094   1.086 -2.7671 -0.6775 -0.0450
 8674TIP3    H247514   3.016   4.182   0.965 -0.8584 -1.1416 -0.8132
 8675TIP3   OH247515   0.149   0.964  14.151 -0.3018  0.4325 -0.0429
 8675TIP3    H147516   0.100   0.913  14.215  0.4788 -2.2385 -1.3985
 8675TIP3    H247517   0.233   0.918  14.143 -0.4640  0.4273 -3.0949
 8676TIP3   OH247518   0.225   1.690   3.253  0.0850  0.0383 -0.2019
 8676TIP3    H147519   0.317   1.673   3.231  0.3931 -1.1209  1.7420
 8676TIP3    H247520   0.177   1.618   3.213  0.4438 -1.1332  1.3814
 8677TIP3   OH247521   3.695   1.455  12.976  0.7149  0.1500  0.4613
 8677TIP3    H147522   3.772   1.505  13.002  0.4077  0.5907  0.5345
 8677TIP3    H247523   3.659   1.421  13.058 -0.5410  1.9572  0.7174
 8678TIP3   OH247524   2.683   4.990   3.827 -0.3775 -0.0424  0.0062
 8678TIP3    H147525   2.619   4.973   3.758  0.7023  0.1713 -1.0769
 8678TIP3    H247526   2.747   4.919   3.819  0.8016  1.0310 -0.5130
 8679TIP3   OH247527   4.797   0.541   2.227 -0.3765  0.2023  0.1179
 8679TIP3    H147528   4.855   0.591   2.284 -0.5475 -0.6888  1.1114
 8679TIP3    H247529   4.803   0.584   2.142  1.9367 -0.0072  0.1170
 8680TIP3   OH247530   6.208   4.242  10.889 -0.1052  0.3818 -0.0691
 8680TIP3    H147531   6.133   4.194  10.922 -0.1388  0.9597  0.7196
 8680TIP3    H247532   6.208   4.226  10.794 -1.8508  1.2257 -0.2457
 8681TIP3   OH247533   4.747   1.336  16.317  0.0064  0.0646  0.4080
 8681TIP3    H147534   4.684   1.381  16.260  0.3001  2.0396  1.5777
 8681TIP3    H247535   4.702   1.256  16.343 -1.2717  0.5303 -0.2811
 8682TIP3   OH247536   3.490   1.796   0.269  0.2083  0.0883  0.3275
 8682TIP3    H147537   3.530   1.794   0.181 -2.2096  2.2963 -0.9628
 8682TIP3    H247538   3.545   1.857   0.318  0.6464  0.1077 -0.1670
 8683TIP3   OH247539   0.954   5.821   0.075 -0.0524  0.2092  0.3860
 8683TIP3    H147540   0.918   5.844  -0.010  0.1351 -0.2185  0.1889
 8683TIP3    H247541   0.880   5.829   0.136 -0.1453  0.6725  0.2093
 8684TIP3   OH247542   4.667   1.150  16.870 -0.0178 -0.5123  0.3919
 8684TIP3    H147543   4.640   1.137  16.961 -0.2689 -0.5078  0.3194
 8684TIP3    H247544   4.594   1.116  16.818  0.6843 -1.7497  0.1717
 8685TIP3   OH247545   5.733   3.097   6.330  0.2499 -0.1828  0.1436
 8685TIP3    H147546   5.731   3.191   6.349  1.1962  0.2073 -1.5354
 8685TIP3    H247547   5.819   3.068   6.361  0.9328  0.0318 -1.4219
 8686TIP3   OH247548   5.207   2.607   2.987 -0.4299 -0.5836  0.4729
 8686TIP3    H147549   5.198   2.526   3.038  0.3950  0.1733  1.8968
 8686TIP3    H247550   5.149   2.594   2.912 -1.6228 -1.8209  1.5261
 8687TIP3   OH247551   6.446   4.667  15.819  0.0305 -0.0040 -0.0343
 8687TIP3    H147552   6.488   4.746  15.787  0.1111 -0.5060 -1.2497
 8687TIP3    H247553   6.415   4.689  15.906 -1.4826  1.9244 -0.9844
 8688TIP3   OH247554   4.368   3.464  16.913  0.2088  0.7940 -0.0426
 8688TIP3    H147555   4.403   3.541  16.957  1.1306  0.1052  0.4729
 8688TIP3    H247556   4.443   3.405  16.904 -0.6777 -0.4931  0.5784
 8689TIP3   OH247557   5.572   5.029  11.019  0.6064  0.3919 -0.0101
 8689TIP3    H147558   5.648   5.068  11.061  0.7936 -1.2513  1.2758
 8689TIP3    H247559   5.505   5.025  11.087  0.5520 -1.3372 -0.1156
 8690TIP3   OH247560   1.376   5.471  14.649  0.0037 -0.3912  0.2317
 8690TIP3    H147561   1.328   5.540  14.603 -0.1749 -1.1567 -0.7546
 8690TIP3    H247562   1.381   5.399  14.587  0.8943 -0.9833  0.9607
 8691TIP3   OH247563   3.112   1.514  13.860 -0.8330 -0.2527 -0.0732
 8691TIP3    H147564   3.106   1.576  13.788 -2.2050 -0.5951 -0.2943
 8691TIP3    H247565   3.093   1.566  13.938 -0.0721 -0.0278 -0.0315
 8692TIP3   OH247566   1.235   1.316  16.967  0.4235 -0.5765 -0.2254
 8692TIP3    H147567   1.304   1.272  17.016 -0.0650 -1.4837 -0.3293
 8692TIP3    H247568   1.158   1.259  16.976 -0.2362  0.2724 -0.3450
 8693TIP3   OH247569   4.801   0.660  12.490  0.9135 -0.5900  0.0621
 8693TIP3    H147570   4.764   0.612  12.564 -1.3866  1.4507  0.3771
 8693TIP3    H247571   4.890   0.625  12.481 -0.0389 -3.6825  1.2196
 8694TIP3   OH247572   6.563   5.480  15.036 -0.4858  0.0107  0.3044
 8694TIP3    H147573   6.477   5.518  15.014 -0.5613  1.5448  2.8423
 8694TIP3    H247574   6.554   5.453  15.127  1.3759 -0.9841  0.2326
 8695TIP3   OH247575   6.661   2.408   0.774 -0.2061  0.1511  0.3632
 8695TIP3    H147576   6.692   2.460   0.700  0.1722 -1.1302 -0.4036
 8695TIP3    H247577   6.595   2.464   0.816 -0.8269  0.7032 -1.2517
 8696TIP3   OH247578   1.263   6.381  11.660 -0.5118  0.4065  0.1961
 8696TIP3    H147579   1.230   6.296  11.631 -0.5688  0.4628  0.0948
 8696TIP3    H247580   1.319   6.411  11.588  0.8054 -0.2746  0.9133
 8697TIP3   OH247581   4.284   1.285  16.844 -0.2023 -0.1822 -0.6316
 8697TIP3    H147582   4.205   1.233  16.828 -0.7490  1.3714 -4.1247
 8697TIP3    H247583   4.355   1.233  16.808 -0.3810  0.3404 -1.7908
 8698TIP3   OH247584   2.705   1.924  15.145 -0.5380  0.0854  0.2584
 8698TIP3    H147585   2.767   1.856  15.119 -0.0268  1.0521 -1.1729
 8698TIP3    H247586   2.735   1.952  15.231  0.8604  0.3386 -0.2887
 8699TIP3   OH247587   1.010   0.338  14.854 -0.3720  0.4397  0.2794
 8699TIP3    H147588   1.051   0.344  14.767 -0.6151  1.8813  0.2290
 8699TIP3    H247589   1.024   0.248  14.881  1.4038  0.4502 -0.4353
 8700TIP3   OH247590   3.252   3.930  11.611  0.5993  0.4850 -0.2572
 8700TIP3    H147591   3.338   3.972  11.610  0.4612  0.7662 -0.4897
 8700TIP3    H247592   3.217   3.947  11.698  0.0667  1.8482 -0.7011
 8701TIP3   OH247593   6.636   5.277   1.636  0.2643  0.1496 -0.0620
 8701TIP3    H147594   6.578   5.316   1.701  0.0419  2.3744 -1.4982
 8701TIP3    H247595   6.723   5.277   1.678 -0.3052 -1.0671  1.2203
 8702TIP3   OH247596   0.792   6.469   2.842 -0.2118 -0.5002  0.2147
 8702TIP3    H147597   0.747   6.532   2.785 -1.0960 -1.2235  0.0982
 8702TIP3    H247598   0.760   6.489   2.930  2.2633  1.6026  0.7562
 8703TIP3   OH247599   5.469   5.596   1.791  0.2196  0.1294  0.1242
 8703TIP3    H147600   5.526   5.622   1.719  1.5068 -0.9584  0.6894
 8703TIP3    H247601   5.410   5.531   1.753  3.5488 -3.6934  0.6962
 8704TIP3   OH247602   4.611   2.517  12.660 -0.1304  0.0173 -0.2065
 8704TIP3    H147603   4.606   2.451  12.591  0.4335 -1.0502  0.7487
 8704TIP3    H247604   4.525   2.561  12.657 -0.5062 -0.7373 -0.8695
 8705TIP3   OH247605   3.751   4.604  11.371 -0.0197  0.1050  0.1731
 8705TIP3    H147606   3.748   4.699  11.362 -0.1058  0.0267 -0.7031
 8705TIP3    H247607   3.767   4.589  11.464 -0.1105  0.9734  0.3341
 8706TIP3   OH247608   4.074   5.422   1.131  0.2033 -0.6842  0.0988
 8706TIP3    H147609   4.073   5.397   1.224  0.4466  1.8874  0.9046
 8706TIP3    H247610   3.999   5.377   1.093 -0.2645 -1.3508  1.6997
 8707TIP3   OH247611   4.504   5.022   0.967  0.0293 -0.5685  0.2184
 8707TIP3    H147612   4.542   4.967   0.899  0.4717 -1.1565  0.9197
 8707TIP3    H247613   4.410   5.003   0.963  0.0118 -0.3672 -0.4187
 8708TIP3   OH247614   0.256   5.370  10.780  0.3383 -0.0571 -0.2552
 8708TIP3    H147615   0.269   5.455  10.823 -0.0748 -0.0624 -0.1155
 8708TIP3    H247616   0.293   5.306  10.840 -0.3700 -0.0788  0.1683
 8709TIP3   OH247617   1.909   3.398  13.248  0.0914 -0.1102  0.2173
 8709TIP3    H147618   1.883   3.395  13.156 -0.4537 -0.9648  0.3882
 8709TIP3    H247619   1.883   3.485  13.278  1.9615  0.8928 -0.9099
 8710TIP3   OH247620   2.911   3.727  11.630 -0.1865  0.3112 -0.2321
 8710TIP3    H147621   2.820   3.723  11.600 -0.1093  1.9147 -0.7897
 8710TIP3    H247622   2.922   3.649  11.684 -0.8168 -1.9473 -3.0831
 8711TIP3   OH247623   3.885   5.143   1.222  0.3482  0.0221  0.5337
 8711TIP3    H147624   3.798   5.183   1.219 -0.1114 -1.0024 -0.2869
 8711TIP3    H247625   3.890   5.102   1.308 -0.4681 -0.9525  0.1316
 8712TIP3   OH247626   3.824   5.674   2.756  0.1189  0.0550  0.0270
 8712TIP3    H147627   3.845   5.684   2.849 -0.0598 -0.2662  0.1038
 8712TIP3    H247628   3.775   5.753   2.733  2.0044  1.1817 -0.3354
 8713TIP3   OH247629   5.376   5.723   0.114 -0.1178 -0.1808 -0.5966
 8713TIP3    H147630   5.280   5.728   0.119 -0.2743 -2.5471  0.0065
 8713TIP3    H247631   5.393   5.670   0.036  0.6995  0.1725 -0.6588
 8714TIP3   OH247632   2.441   2.938   3.436 -0.0607 -0.4273  0.7060
 8714TIP3    H147633   2.371   3.002   3.425 -0.2332 -0.1788  2.8427
 8714TIP3    H247634   2.416   2.887   3.513  0.5708 -2.4512 -0.3256
 8715TIP3   OH247635   0.423   0.089  12.804  0.0819 -0.3468  0.2238
 8715TIP3    H147636   0.469   0.073  12.886  0.6102 -0.2113 -0.0350
 8715TIP3    H247637   0.338   0.047  12.814  0.1133 -0.2583  0.8683
 8716TIP3   OH247638   2.879   0.568  11.395 -0.2637 -0.1165 -0.3560
 8716TIP3    H147639   2.905   0.516  11.319 -0.1971  0.0146 -0.4249
 8716TIP3    H247640   2.863   0.504  11.464 -2.4122 -0.4051 -1.0522
 8717TIP3   OH247641   2.896   5.657  12.297  0.5679  0.7007 -0.4066
 8717TIP3    H147642   2.986   5.685  12.281  0.9927 -1.3000 -1.9215
 8717TIP3    H247643   2.843   5.720  12.248  1.4192 -0.3584 -2.8337
 8718TIP3   OH247644   0.644   0.303   1.411 -0.0857 -0.4477  0.5990
 8718TIP3    H147645   0.733   0.320   1.441 -0.8715 -0.8310  3.4558
 8718TIP3    H247646   0.623   0.376   1.353  1.7279  0.1471  0.6389
 8719TIP3   OH247647   4.877   0.163   1.507  0.2760 -1.1148  0.3523
 8719TIP3    H147648   4.906   0.249   1.536 -0.5426 -0.8488  0.4035
 8719TIP3    H247649   4.844   0.178   1.418  1.3617 -1.6347 -0.1587
 8720TIP3   OH247650   4.845   4.749  12.531  0.7500  0.0523 -0.0436
 8720TIP3    H147651   4.870   4.660  12.508 -0.1656  0.2038 -1.8398
 8720TIP3    H247652   4.812   4.743  12.621  3.0733 -0.9023  0.8007
 8721TIP3   OH247653   1.756   6.624  13.280 -0.1831  0.4030  0.1132
 8721TIP3    H147654   1.669   6.651  13.310  0.4705  0.3641  2.2446
 8721TIP3    H247655   1.810   6.703  13.291  0.0774  0.4332 -1.2146
 8722TIP3   OH247656   4.403   1.583   2.787  0.4045  0.0400 -0.3391
 8722TIP3    H147657   4.370   1.666   2.821 -1.1348 -0.7389  0.1617
 8722TIP3    H247658   4.450   1.543   2.861  1.0303  0.3903 -0.5405
 8723TIP3   OH247659   5.431   1.695  16.266 -0.2996  0.5177  0.0571
 8723TIP3    H147660   5.501   1.695  16.331  1.2860 -0.3940 -1.5649
 8723TIP3    H247661   5.466   1.745  16.193 -1.1061 -0.4342 -1.0223
 8724TIP3   OH247662   6.331   1.568   4.469 -0.1718 -0.1206 -0.5433
 8724TIP3    H147663   6.259   1.594   4.527 -0.6724  0.8345 -1.5710
 8724TIP3    H247664   6.408   1.569   4.526 -0.9085 -0.9405  0.5229
 8725TIP3   OH247665   0.024   3.300  11.222 -0.8192 -0.8999 -0.1414
 8725TIP3    H147666  -0.066   3.304  11.255 -0.7861  1.4029 -0.1731
 8725TIP3    H247667   0.065   3.381  11.254  0.6637 -0.9578 -1.7501
 8726TIP3   OH247668   6.685   0.766  14.745 -0.0029  0.0064 -0.1033
 8726TIP3    H147669   6.770   0.737  14.710 -0.0180  1.0631 -1.0564
 8726TIP3    H247670   6.642   0.809  14.671 -0.9306  0.4301  0.6641
 8727TIP3   OH247671   5.313   2.555  14.019  0.2886 -0.4283 -0.0853
 8727TIP3    H147672   5.265   2.624  13.974  1.0621 -0.8058 -1.5330
 8727TIP3    H247673   5.383   2.531  13.959  1.1348 -1.2207  1.1665
 8728TIP3   OH247674   4.295   0.990   0.381  0.0177  0.2368 -0.0326
 8728TIP3    H147675   4.279   0.903   0.344  0.7463  0.0361  0.1170
 8728TIP3    H247676   4.211   1.035   0.371 -0.1609 -0.2359 -0.7707
 8729TIP3   OH247677   1.209   2.706  16.930 -0.3634 -0.2774 -0.4387
 8729TIP3    H147678   1.294   2.745  16.909 -0.3026  0.0277  0.3264
 8729TIP3    H247679   1.222   2.611  16.919  0.3087 -0.2975  0.4085
 8730TIP3   OH247680   5.242   1.072   1.435 -0.0259  0.4732  0.0856
 8730TIP3    H147681   5.162   1.124   1.425  0.9873  1.9319 -0.8294
 8730TIP3    H247682   5.312   1.129   1.403  1.3025 -1.0307  0.1783
 8731TIP3   OH247683   0.254   3.625   3.472  0.4331  0.2902 -0.7359
 8731TIP3    H147684   0.317   3.685   3.511 -0.5288  0.3004  0.8547
 8731TIP3    H247685   0.216   3.673   3.398  0.3280  1.2889 -0.0340
 8732TIP3   OH247686   4.384   0.905   4.430 -0.6398  0.6773 -0.4563
 8732TIP3    H147687   4.298   0.944   4.414 -0.9115  0.4133  0.3026
 8732TIP3    H247688   4.391   0.834   4.366 -0.7679  1.0326 -0.8644
 8733TIP3   OH247689   4.681   4.848   3.285 -0.4993 -0.1457  0.1456
 8733TIP3    H147690   4.767   4.885   3.308 -1.2066  1.2703  0.6651
 8733TIP3    H247691   4.697   4.800   3.204  0.8404 -0.1719  0.3910
 8734TIP3   OH247692   2.527   1.164   6.267 -0.4021  0.3415 -0.5553
 8734TIP3    H147693   2.556   1.078   6.297  1.4857  0.2696 -2.3335
 8734TIP3    H247694   2.493   1.149   6.179 -0.4957  1.3351 -0.7094
 8735TIP3   OH247695   2.752   0.464  16.176 -0.1409 -0.2961 -0.4473
 8735TIP3    H147696   2.730   0.380  16.135  1.1830 -0.1886 -1.4247
 8735TIP3    H247697   2.814   0.440  16.246  0.3099 -0.1334 -0.7877
 8736TIP3   OH247698   0.152   1.681  11.926 -0.2121  0.4321  0.2698
 8736TIP3    H147699   0.189   1.648  12.008  0.3284 -0.0494 -0.1532
 8736TIP3    H247700   0.226   1.726  11.883 -0.5483  0.8720  0.1442
 8737TIP3   OH247701   5.235   2.004  17.311 -0.0651  0.8362 -0.0540
 8737TIP3    H147702   5.274   1.923  17.344 -1.1371  0.3107 -0.0172
 8737TIP3    H247703   5.240   2.065  17.384  0.0251  0.5394  0.1903
 8738TIP3   OH247704   3.693   1.321   1.545 -0.1920 -0.3249 -0.0612
 8738TIP3    H147705   3.671   1.369   1.626 -1.2872 -0.1603 -0.4406
 8738TIP3    H247706   3.610   1.314   1.498  0.4923 -0.1242 -1.3415
 8739TIP3   OH247707   2.332   5.087   2.528 -0.7490  0.1827 -0.0096
 8739TIP3    H147708   2.306   5.112   2.617  1.0519  2.3355 -0.0045
 8739TIP3    H247709   2.426   5.073   2.533 -0.3045  2.0192 -1.8686
 8740TIP3   OH247710   3.466   1.682   6.226 -0.3596  0.0235  0.4070
 8740TIP3    H147711   3.463   1.776   6.243  2.0528  0.3709 -0.6508
 8740TIP3    H247712   3.484   1.675   6.132  0.4367 -1.4605  0.6384
 8741TIP3   OH247713   2.297   0.477  16.929 -0.1685  0.0583 -0.1787
 8741TIP3    H147714   2.336   0.508  17.011  1.8702  0.7989 -1.3573
 8741TIP3    H247715   2.225   0.420  16.957  0.5872  0.1142  2.1081
 8742TIP3   OH247716   3.334   5.069  16.485  0.3065 -0.5100  0.4836
 8742TIP3    H147717   3.302   4.990  16.528  1.8381 -1.0509  0.6744
 8742TIP3    H247718   3.323   5.053  16.392 -1.7280  0.1080  0.5584
 8743TIP3   OH247719   5.366   1.609   1.379  0.1540 -0.2543 -0.2988
 8743TIP3    H147720   5.407   1.649   1.455 -0.3523 -1.5308  0.6787
 8743TIP3    H247721   5.273   1.606   1.400 -0.2392  0.9293 -1.7110
 8744TIP3   OH247722   2.928   2.290  14.165 -0.6968  0.1166 -0.2095
 8744TIP3    H147723   2.850   2.309  14.217 -2.0213  0.2655 -2.1495
 8744TIP3    H247724   2.983   2.238  14.223 -3.9118 -3.3425  0.1029
 8745TIP3   OH247725   2.078   1.000   2.880 -0.0912 -0.4009 -0.3260
 8745TIP3    H147726   2.016   1.042   2.939 -1.0216 -1.8957 -0.1940
 8745TIP3    H247727   2.163   1.009   2.924 -0.3898  0.6248  0.0588
 8746TIP3   OH247728   4.511   0.632  15.922  0.2795  0.1415  0.1326
 8746TIP3    H147729   4.600   0.645  15.953  1.0521  1.6828 -2.4362
 8746TIP3    H247730   4.475   0.565  15.980  2.6647  0.3521  2.0153
 8747TIP3   OH247731   1.892   3.272   2.717 -0.4396  0.1084 -0.3517
 8747TIP3    H147732   1.935   3.214   2.780 -2.3045  1.1549  1.9933
 8747TIP3    H247733   1.892   3.222   2.635  0.9269 -1.8147  0.7453
 8748TIP3   OH247734   0.232   0.074  17.141 -0.4803  0.1294  0.1331
 8748TIP3    H147735   0.295   0.099  17.074 -1.6811  0.9915 -0.7165
 8748TIP3    H247736   0.227   0.150  17.199 -0.8697  0.1428  0.0873
 8749TIP3   OH247737   2.032   5.491  12.093  0.7749  0.5623  0.7954
 8749TIP3    H147738   2.067   5.559  12.037 -3.3416  2.1367 -0.2600
 8749TIP3    H247739   2.009   5.536  12.174 -0.4372  0.0930  0.7351
 8750TIP3   OH247740   5.172   4.534   0.672 -0.8209 -0.3886 -0.6697
 8750TIP3    H147741   5.210   4.622   0.669 -0.1741 -0.6333  0.0035
 8750TIP3    H247742   5.078   4.548   0.666 -0.7307  0.3540 -0.4413
 8751TIP3   OH247743   3.491   2.435  11.621  0.1486  0.0123 -0.1026
 8751TIP3    H147744   3.413   2.430  11.566 -1.0827  0.0706  1.5905
 8751TIP3    H247745   3.502   2.347  11.656 -0.5933  0.5372  1.5360
 8752TIP3   OH247746   2.057   0.839  15.412 -0.0077  0.0682 -0.0977
 8752TIP3    H147747   2.068   0.804  15.323 -3.1606 -0.2417 -0.4844
 8752TIP3    H247748   2.129   0.800  15.462  0.9720 -0.9669 -2.1701
 8753TIP3   OH247749   0.759   6.070   3.439  0.2241 -0.0740  0.1934
 8753TIP3    H147750   0.688   6.029   3.390 -1.1211  1.5982  0.6324
 8753TIP3    H247751   0.764   6.158   3.404  2.3681 -0.2622 -0.0635
 8754TIP3   OH247752   4.976   6.802  15.127 -0.6321 -0.4203 -0.1038
 8754TIP3    H147753   4.911   6.733  15.123 -0.5816 -0.4346 -0.9988
 8754TIP3    H247754   4.981   6.826  15.219 -2.0280 -0.2943 -0.0404
 8755TIP3   OH247755   0.360   4.745  15.663  0.2675 -0.4402 -0.4174
 8755TIP3    H147756   0.454   4.757  15.646  0.4553  1.2039  1.4836
 8755TIP3    H247757   0.339   4.811  15.729 -2.6584  0.5395 -2.1533
 8756TIP3   OH247758   1.734   5.082   4.668 -0.0035 -0.2335 -0.2533
 8756TIP3    H147759   1.754   4.996   4.706  0.7082 -0.5209 -1.2507
 8756TIP3    H247760   1.648   5.104   4.704  0.4953 -0.6316  1.2692
 8757TIP3   OH247761   1.404   1.308  15.513 -0.5630  0.1521 -0.1719
 8757TIP3    H147762   1.363   1.335  15.431 -1.6011 -1.0909 -0.0938
 8757TIP3    H247763   1.484   1.360  15.518 -1.0885  1.1293 -1.3670
 8758TIP3   OH247764   3.817   5.081   1.956 -0.3008 -0.2663  0.0621
 8758TIP3    H147765   3.740   5.125   1.994  1.4573  1.2842  2.0931
 8758TIP3    H247766   3.830   5.005   2.012 -0.7150 -0.9351 -0.7215
 8759TIP3   OH247767   0.767   2.065  14.084  0.0574 -0.1450 -0.4809
 8759TIP3    H147768   0.787   2.138  14.143  0.0252 -0.3340 -0.2388
 8759TIP3    H247769   0.731   1.997  14.140  2.8360 -1.5195 -0.2027
 8760TIP3   OH247770   3.365   1.790  11.569 -0.0679 -0.1501 -0.3949
 8760TIP3    H147771   3.333   1.858  11.510 -0.5659  0.3872  0.4873
 8760TIP3    H247772   3.457   1.813  11.585  1.5230 -2.6195 -4.2885
 8761TIP3   OH247773   5.714   4.022  13.387  0.6520  0.2549  0.4703
 8761TIP3    H147774   5.651   4.089  13.363  0.3813  0.1346  0.8442
 8761TIP3    H247775   5.717   4.024  13.483 -1.5959 -2.2895  0.6926
 8762TIP3   OH247776   5.124   2.539   2.116  0.2330  0.4490 -0.5878
 8762TIP3    H147777   5.066   2.607   2.148 -0.2909  0.7403 -2.1011
 8762TIP3    H247778   5.150   2.568   2.028 -0.1948 -1.3898 -1.3684
 8763TIP3   OH247779   1.298   1.728  11.245 -0.6165  0.4639 -0.5170
 8763TIP3    H147780   1.386   1.693  11.231 -0.5663  0.4447 -0.1697
 8763TIP3    H247781   1.285   1.722  11.340 -1.3063 -0.2911 -0.6454
 8764TIP3   OH247782   0.228   5.003  12.080  0.4261 -0.7348 -0.2268
 8764TIP3    H147783   0.179   5.062  12.138  0.2861 -0.3397 -0.7447
 8764TIP3    H247784   0.243   4.925  12.133  0.7642 -0.1730  0.5289
 8765TIP3   OH247785   0.586   4.310   2.888 -0.3856  0.9872  0.0090
 8765TIP3    H147786   0.587   4.262   2.805  1.8389  0.0618  0.5038
 8765TIP3    H247787   0.577   4.243   2.955  1.0698  1.3883  0.6401
 8766TIP3   OH247788   5.294   6.317  11.997  0.3753  0.0774  0.2719
 8766TIP3    H147789   5.297   6.222  12.001  0.2381  0.0971  1.0590
 8766TIP3    H247790   5.219   6.337  11.941 -0.5362 -0.2790  1.3370
 8767TIP3   OH247791   6.746   5.064   6.159  0.2801  0.2865  0.1466
 8767TIP3    H147792   6.822   5.015   6.128 -0.2864 -0.4779 -0.0649
 8767TIP3    H247793   6.672   5.025   6.113 -0.3703  0.3177  1.1409
 8768TIP3   OH247794   0.705   1.418  14.976 -0.2093  0.0485 -0.1965
 8768TIP3    H147795   0.797   1.446  14.979  0.1349 -1.0545 -0.1006
 8768TIP3    H247796   0.706   1.330  15.012 -0.6486 -1.5876 -3.7292
 8769TIP3   OH247797   6.631   3.262   0.445 -0.0678 -0.2080 -0.1649
 8769TIP3    H147798   6.556   3.220   0.487 -0.3751  1.2829  0.8563
 8769TIP3    H247799   6.594   3.325   0.384  0.2663  1.6299  1.4425
 8770TIP3   OH247800   5.376   2.226  12.736 -0.3160  0.3758  0.1591
 8770TIP3    H147801   5.441   2.257  12.673 -1.2153  1.4091 -0.3120
 8770TIP3    H247802   5.350   2.140  12.704 -0.2009  0.5612 -0.4524
 8771TIP3   OH247803   0.153   2.649  12.499 -0.7199  0.4364  0.9241
 8771TIP3    H147804   0.114   2.573  12.456 -0.8784 -0.3340  2.3429
 8771TIP3    H247805   0.133   2.722  12.442  2.6461 -0.9823 -2.4823
 8772TIP3   OH247806   3.080   6.186   4.425  0.2382 -0.1802 -0.1390
 8772TIP3    H147807   3.000   6.187   4.478  1.2207 -1.2556  1.4389
 8772TIP3    H247808   3.056   6.233   4.345 -1.0834  2.2264  1.5381
 8773TIP3   OH247809   3.446   6.046  11.969 -0.6071  0.1715 -0.3090
 8773TIP3    H147810   3.533   6.013  11.994 -0.6399  0.8884  0.8298
 8773TIP3    H247811   3.462   6.098  11.890 -0.4381 -1.8204 -1.6720
 8774TIP3   OH247812   5.839   5.464   1.063  0.1572  0.1616  0.4930
 8774TIP3    H147813   5.798   5.482   1.147 -0.4444 -0.1110  0.2608
 8774TIP3    H247814   5.767   5.462   1.000  0.6143  0.5012 -0.0574
 8775TIP3   OH247815   0.683   6.124   4.926 -0.3348 -0.0362 -0.2377
 8775TIP3    H147816   0.688   6.180   5.003  1.0499  0.0742 -0.3786
 8775TIP3    H247817   0.726   6.042   4.953 -0.7756 -0.3871 -0.5762
 8776TIP3   OH247818   4.458   3.136   2.624 -0.2810  0.0643  0.4810
 8776TIP3    H147819   4.482   3.119   2.533 -1.2162  0.3802  0.1646
 8776TIP3    H247820   4.536   3.112   2.674 -0.0511 -0.9342 -0.3200
 8777TIP3   OH247821   1.776   6.490  13.653  0.1442  0.1621 -0.3396
 8777TIP3    H147822   1.769   6.582  13.678  0.4384  0.0914  0.0154
 8777TIP3    H247823   1.817   6.492  13.566  0.3992  0.3563 -0.2173
 8778TIP3   OH247824   1.415   6.089   1.413  0.0835  0.1329 -0.1792
 8778TIP3    H147825   1.444   6.089   1.505  1.1282  0.1267 -0.4996
 8778TIP3    H247826   1.483   6.039   1.367 -1.1757 -1.1253 -0.7302
 8779TIP3   OH247827   2.759   4.623  16.251  0.2107 -0.3301  0.5708
 8779TIP3    H147828   2.734   4.707  16.213  2.2899 -0.5226 -1.4736
 8779TIP3    H247829   2.688   4.601  16.310 -0.4924  2.7713  1.0503
 8780TIP3   OH247830   6.040   6.586  17.089 -0.6118  0.1452 -0.3410
 8780TIP3    H147831   6.124   6.586  17.043 -0.9715 -1.8913 -1.1174
 8780TIP3    H247832   6.057   6.539  17.171 -1.0654 -0.7591 -0.7419
 8781TIP3   OH247833   4.939   3.129   4.029  0.0441  0.2905  0.4190
 8781TIP3    H147834   4.920   3.156   3.939 -1.0826  1.1362  0.8837
 8781TIP3    H247835   5.030   3.156   4.044 -0.1653  1.3099 -0.0648
 8782TIP3   OH247836   0.153   1.506  16.987 -0.6105  0.2219 -0.1447
 8782TIP3    H147837   0.115   1.506  17.075 -2.8322  0.6313 -1.0364
 8782TIP3    H247838   0.129   1.420  16.951 -2.1655  1.0835 -1.2802
 8783TIP3   OH247839   5.310   0.846  14.088 -0.1865  0.0587 -0.7043
 8783TIP3    H147840   5.397   0.841  14.048 -0.2801  0.1262 -0.9196
 8783TIP3    H247841   5.293   0.939  14.100  0.1582  0.0164  0.2091
 8784TIP3   OH247842   4.528   1.069   5.087 -0.2409 -0.0617  0.1697
 8784TIP3    H147843   4.507   1.051   4.995  0.6889 -0.0780 -0.0466
 8784TIP3    H247844   4.623   1.058   5.092 -0.2282  0.4216  1.0310
 8785TIP3   OH247845   6.375   1.942  14.236  0.0566 -0.5830  0.3797
 8785TIP3    H147846   6.369   1.849  14.214 -1.1310 -0.4076 -0.1369
 8785TIP3    H247847   6.284   1.971  14.240  0.4271  0.8108 -0.6280
 8786TIP3   OH247848   2.948   2.448   4.871  0.0983  0.1742  0.2407
 8786TIP3    H147849   2.881   2.390   4.908 -1.5245  1.1532 -1.0557
 8786TIP3    H247850   3.029   2.422   4.915 -1.0863 -1.1734  1.7305
 8787TIP3   OH247851   1.666   0.849   4.290 -0.0418  0.4125  0.2841
 8787TIP3    H147852   1.571   0.838   4.298  0.1680 -0.4072  2.3143
 8787TIP3    H247853   1.703   0.782   4.348  1.7638  1.1046 -0.0060
 8788TIP3   OH247854   2.819   0.441  14.394 -0.2347  0.0178  0.2465
 8788TIP3    H147855   2.866   0.360  14.380 -2.4272 -1.1219 -1.1631
 8788TIP3    H247856   2.734   0.414  14.430 -0.5050  1.8150  1.1084
 8789TIP3   OH247857   3.816   1.858  15.052  0.0415 -0.0140 -0.3641
 8789TIP3    H147858   3.903   1.888  15.077  0.1865 -1.0105  0.3681
 8789TIP3    H247859   3.830   1.806  14.973  0.2799 -1.0852  0.3612
 8790TIP3   OH247860   3.133   5.134  14.726  0.7970  0.2347  0.0800
 8790TIP3    H147861   3.082   5.078  14.667  0.2001  1.4736 -0.6259
 8790TIP3    H247862   3.222   5.098  14.722  0.8063  0.3314 -1.7093
 8791TIP3   OH247863   0.401   1.911  14.060  0.8977  0.2670  0.1191
 8791TIP3    H147864   0.307   1.917  14.045  0.4301  2.4420  3.1778
 8791TIP3    H247865   0.416   1.819  14.082 -0.3474 -0.2271 -0.9607
 8792TIP3   OH247866   5.577   2.103   1.099 -0.1828 -0.3501 -0.5824
 8792TIP3    H147867   5.516   2.141   1.036  0.3062 -0.4411 -1.1162
 8792TIP3    H247868   5.631   2.177   1.128 -1.5124  0.0562  1.0639
 8793TIP3   OH247869   0.839   2.716  14.893  0.3004 -0.3087  0.1603
 8793TIP3    H147870   0.759   2.685  14.851  0.3150  0.3215 -0.3534
 8793TIP3    H247871   0.813   2.797  14.937  0.8430  0.3957 -0.7795
 8794TIP3   OH247872   1.242   5.213   4.048  0.2159  0.5949 -0.6126
 8794TIP3    H147873   1.168   5.232   3.990 -0.7052 -0.6786  0.0929
 8794TIP3    H247874   1.296   5.152   3.998 -0.1591  0.1248 -0.4527
 8795TIP3   OH247875   6.485   5.104  11.161 -0.2174  0.3637 -0.4300
 8795TIP3    H147876   6.549   5.110  11.090 -1.3173 -0.9137 -1.5955
 8795TIP3    H247877   6.524   5.042  11.223  0.1497  0.4274 -0.5918
 8796TIP3   OH247878   2.742   1.642   2.725  0.4331  0.7775  0.5977
 8796TIP3    H147879   2.698   1.727   2.729 -0.0203  0.5358  0.8532
 8796TIP3    H247880   2.834   1.662   2.740  0.4364  1.3064 -0.0690
 8797TIP3   OH247881   6.124   5.424  12.798 -0.2414  0.1999 -0.1479
 8797TIP3    H147882   6.098   5.508  12.761  0.6909  0.8364  0.5862
 8797TIP3    H247883   6.089   5.424  12.887 -0.4609 -0.3054 -0.2279
 8798TIP3   OH247884   1.710   4.251  16.687  0.1837  0.1959  0.2466
 8798TIP3    H147885   1.803   4.267  16.697  0.3219 -0.5919  0.2967
 8798TIP3    H247886   1.696   4.165  16.728 -0.2391 -0.5186 -1.3357
 8799TIP3   OH247887   4.462   2.468   5.611  0.4307 -0.3643  0.2241
 8799TIP3    H147888   4.555   2.461   5.590  0.4905  1.3812 -0.2645
 8799TIP3    H247889   4.436   2.553   5.575 -0.2224  1.4340  4.3200
 8800TIP3   OH247890   5.789   3.250   4.928  0.1964 -0.4021  0.3904
 8800TIP3    H147891   5.823   3.339   4.916  0.5441 -0.6198 -0.3003
 8800TIP3    H247892   5.835   3.198   4.862 -1.3700 -0.7362 -0.4780
 8801TIP3   OH247893   4.595   0.642   5.706 -0.5910  0.3966  0.0552
 8801TIP3    H147894   4.600   0.685   5.621  1.2908 -1.1076 -0.6742
 8801TIP3    H247895   4.612   0.549   5.687 -0.5496 -0.0378  2.0071
 8802TIP3   OH247896   0.413   1.252  17.088  0.1389  0.0154  0.0333
 8802TIP3    H147897   0.495   1.203  17.093 -0.5807 -1.1258  1.1943
 8802TIP3    H247898   0.410   1.304  17.168 -0.5848 -0.4876  0.3480
 8803TIP3   OH247899   5.254   0.325  13.047  0.1911  0.4234 -0.4210
 8803TIP3    H147900   5.300   0.398  13.089  0.1034  0.4349 -0.3450
 8803TIP3    H247901   5.310   0.301  12.974  1.1712 -0.6488  0.6366
 8804TIP3   OH247902   3.721   1.846  16.903 -0.5354  0.7132 -1.1546
 8804TIP3    H147903   3.706   1.880  16.991 -0.4186 -1.3192 -0.2802
 8804TIP3    H247904   3.635   1.850  16.861 -1.0915 -0.1770 -0.1896
 8805TIP3   OH247905   5.817   5.469   1.463  0.3203 -0.7049 -0.0371
 8805TIP3    H147906   5.782   5.433   1.545  0.6716  0.7931  0.8042
 8805TIP3    H247907   5.912   5.453   1.468  0.3540 -0.5293 -0.1180
 8806TIP3   OH247908   5.805   1.852   4.605 -0.4914  0.5350  0.1837
 8806TIP3    H147909   5.795   1.832   4.698  2.1765  1.5292  0.7694
 8806TIP3    H247910   5.881   1.909   4.601 -1.4169  1.7296 -2.4951
 8807TIP3   OH247911   3.610   1.791   2.350 -0.4583  0.0955 -0.3074
 8807TIP3    H147912   3.656   1.715   2.385 -0.0774  0.5841  0.2536
 8807TIP3    H247913   3.601   1.772   2.256  0.5374 -0.1805 -0.3602
 8808TIP3   OH247914   0.022   0.136   1.002  1.0685  0.2768  0.0277
 8808TIP3    H147915  -0.073   0.132   1.019  0.8753 -0.8775 -1.1848
 8808TIP3    H247916   0.056   0.056   1.042  1.6034  0.8342  0.7219
 8809TIP3   OH247917   3.271   1.627  11.180 -0.5681 -0.0588 -0.1402
 8809TIP3    H147918   3.206   1.659  11.117  0.4657  2.6777  0.0322
 8809TIP3    H247919   3.324   1.565  11.130 -2.4353 -1.3417 -0.6404
 8810TIP3   OH247920   3.518   5.306  16.753 -0.4504 -0.0047 -0.3162
 8810TIP3    H147921   3.538   5.223  16.796  3.2079  1.0485  0.3362
 8810TIP3    H247922   3.556   5.373  16.810 -2.4139  2.1143 -1.3185
 8811TIP3   OH247923   0.166   3.155   6.442 -0.0641 -0.1803  0.1082
 8811TIP3    H147924   0.214   3.235   6.420 -0.6103 -0.2470 -1.4303
 8811TIP3    H247925   0.099   3.184   6.505  0.4676  0.3485  0.4379
 8812TIP3   OH247926   3.742   3.554   5.250  0.1079 -0.1449  0.4234
 8812TIP3    H147927   3.649   3.553   5.227  0.1959 -0.5244  0.0595
 8812TIP3    H247928   3.744   3.544   5.345 -0.1742 -2.3384  0.2505
 8813TIP3   OH247929   3.247   3.195  11.836  0.7390  0.5994  0.4618
 8813TIP3    H147930   3.231   3.289  11.843  1.9196  0.8341  0.2266
 8813TIP3    H247931   3.239   3.176  11.742  0.9548  0.5579  0.4511
 8814TIP3   OH247932   2.666   0.791   3.379  0.1724 -0.3954  0.0491
 8814TIP3    H147933   2.636   0.774   3.468  0.6045  0.1006  0.2965
 8814TIP3    H247934   2.625   0.723   3.326 -1.4255  0.2982  0.3563
 8815TIP3   OH247935   2.924   6.011   2.492 -0.0052 -0.3927 -0.1125
 8815TIP3    H147936   2.966   5.955   2.427 -0.8448 -2.1783  0.8178
 8815TIP3    H247937   2.830   5.997   2.478 -0.2328  0.8826  0.0733
 8816TIP3   OH247938   1.499   0.332   2.173 -0.0708 -0.0869 -0.3941
 8816TIP3    H147939   1.422   0.386   2.190 -0.5427 -0.9716  0.3217
 8816TIP3    H247940   1.546   0.331   2.257 -0.2892 -1.1256 -0.2774
 8817TIP3   OH247941   5.560   5.735  10.312  0.2805 -0.1188  0.5509
 8817TIP3    H147942   5.495   5.804  10.307  0.5818  0.1033 -0.5004
 8817TIP3    H247943   5.621   5.753  10.240  0.3997 -1.4362  0.2901
 8818TIP3   OH247944   2.752   0.931  12.967  0.0933 -0.2852 -0.5619
 8818TIP3    H147945   2.795   0.864  13.021  2.4769  2.0971  0.6978
 8818TIP3    H247946   2.792   1.013  12.994 -2.6470  1.7151 -2.1033
 8819TIP3   OH247947   2.255   3.446  11.471 -0.4956 -0.8817 -0.1183
 8819TIP3    H147948   2.304   3.377  11.425 -1.5986 -0.5636 -1.8674
 8819TIP3    H247949   2.178   3.461  11.416 -0.6466  1.2497  0.5909
 8820TIP3   OH247950   2.290   5.893   2.628 -0.6506  0.5286 -0.2645
 8820TIP3    H147951   2.291   5.980   2.668 -2.8049  0.8247 -0.7800
 8820TIP3    H247952   2.286   5.832   2.703 -1.8219  0.9701  0.0398
 8821TIP3   OH247953   0.660   5.355   2.386 -0.3079 -0.1198 -0.6828
 8821TIP3    H147954   0.652   5.375   2.293 -1.2084 -1.1142 -0.8399
 8821TIP3    H247955   0.704   5.269   2.389  0.8542  0.4668 -0.1370
 8822TIP3   OH247956   4.637   1.983   4.665  0.4903 -0.2977  0.0574
 8822TIP3    H147957   4.629   1.889   4.649 -0.5781 -0.8476  3.1473
 8822TIP3    H247958   4.549   2.010   4.692  1.2586  1.1168  1.2745
 8823TIP3   OH247959   3.401   6.799   6.629 -0.6876  0.8846  0.4820
 8823TIP3    H147960   3.353   6.870   6.671 -0.2956 -0.5511  3.7241
 8823TIP3    H247961   3.483   6.839   6.601 -0.9093  1.9395  1.2534
 8824TIP3   OH247962   1.775   5.684  16.086 -0.4738 -0.2232 -0.2686
 8824TIP3    H147963   1.816   5.625  16.022 -1.1022  0.4595 -1.3191
 8824TIP3    H247964   1.842   5.748  16.106 -0.2691 -0.4489 -0.2244
 8825TIP3   OH247965   5.238   4.176  15.113  0.3859 -0.6133  0.5795
 8825TIP3    H147966   5.256   4.167  15.020  0.8620 -0.2418  0.6319
 8825TIP3    H247967   5.304   4.238  15.145 -0.2706 -0.1141  1.0043
 8826TIP3   OH247968   4.275   5.216   3.110 -0.3533 -0.1090  0.0847
 8826TIP3    H147969   4.237   5.228   3.023 -0.1899  0.6220  0.1072
 8826TIP3    H247970   4.237   5.134   3.142 -0.0806 -0.6092 -0.8443
 8827TIP3   OH247971   3.244   3.855  12.467  0.3956  0.5296 -0.4285
 8827TIP3    H147972   3.234   3.794  12.393 -0.9193 -0.7439  0.7425
 8827TIP3    H247973   3.154   3.881  12.488  0.7437  0.7871  0.7966
 8828TIP3   OH247974   1.294   3.335  12.584  0.2781  0.1660  0.0747
 8828TIP3    H147975   1.365   3.270  12.593  0.4950  0.4578  0.4594
 8828TIP3    H247976   1.338   3.419  12.594 -0.2580  0.3218  1.1343
 8829TIP3   OH247977   6.568   5.010  10.888 -0.5080  0.1261  0.0644
 8829TIP3    H147978   6.523   4.991  10.806  0.0221  0.3644 -0.2842
 8829TIP3    H247979   6.551   5.104  10.904  0.3066  0.3475 -0.3460
 8830TIP3   OH247980   4.194   1.980   0.286 -0.0800  0.1747  0.2044
 8830TIP3    H147981   4.174   2.003   0.376 -2.1661  0.0605 -0.1959
 8830TIP3    H247982   4.121   1.926   0.257  0.1785  0.7773 -1.7788
 8831TIP3   OH247983   2.883   4.985   6.287 -0.4590  0.0860  0.0064
 8831TIP3    H147984   2.955   4.987   6.350 -1.1686 -2.0720  0.9999
 8831TIP3    H247985   2.869   5.077   6.263  1.7431  0.6844  0.7463
 8832TIP3   OH247986   0.328   0.834  13.518  0.3070 -0.0418  0.0093
 8832TIP3    H147987   0.264   0.787  13.464 -1.2685 -0.2237  1.9224
 8832TIP3    H247988   0.324   0.790  13.603  1.3857  1.3459  0.8131
 8833TIP3   OH247989   0.860   3.389  14.180 -0.4349 -0.1237 -0.0008
 8833TIP3    H147990   0.920   3.426  14.116 -1.1878  0.1283 -0.5753
 8833TIP3    H247991   0.903   3.403  14.264 -0.7686  2.2505 -0.1516
 8834TIP3   OH247992   2.268   5.170   1.948  0.2581  0.1483  0.4436
 8834TIP3    H147993   2.248   5.129   2.032 -1.4254  1.0191  0.5081
 8834TIP3    H247994   2.274   5.264   1.967  0.4602  0.2935 -0.2982
 8835TIP3   OH247995   3.703   6.783  16.486 -0.1814 -0.2695  0.0280
 8835TIP3    H147996   3.695   6.707  16.544  1.1823 -0.4786 -0.0123
 8835TIP3    H247997   3.613   6.814  16.474 -0.5169 -0.1244  2.3595
 8836TIP3   OH247998   1.666   4.054  14.095  0.7145 -0.2382 -0.1795
 8836TIP3    H147999   1.645   3.975  14.145 -1.6291 -0.9724 -2.1364
 8836TIP3    H248000   1.745   4.031  14.047  0.2930 -1.2730 -0.4167
 8837TIP3   OH248001   2.512   1.309   3.309 -0.3703  0.1411 -0.5311
 8837TIP3    H148002   2.578   1.347   3.252  0.2856 -0.5548 -0.2483
 8837TIP3    H248003   2.491   1.225   3.269 -2.3598  1.0549 -1.5712
 8838TIP3   OH248004   1.459   1.054   1.625 -0.0935  0.7629  0.5223
 8838TIP3    H148005   1.505   1.082   1.704 -1.2389 -0.4247  1.6575
 8838TIP3    H248006   1.435   1.136   1.581 -1.4128  1.5828  2.5935
 8839TIP3   OH248007   3.826   6.345  15.898 -0.4110  0.4038  0.5332
 8839TIP3    H148008   3.870   6.429  15.887  0.1704  0.1722  1.0462
 8839TIP3    H248009   3.861   6.310  15.980 -1.9125  0.4381  1.2258
 8840TIP3   OH248010   4.404   2.174   1.915 -0.0339 -0.3778  0.5254
 8840TIP3    H148011   4.497   2.196   1.916  0.6548 -3.0181  0.2846
 8840TIP3    H248012   4.360   2.259   1.909  2.3227  0.9614  0.8941
 8841TIP3   OH248013   3.503   0.147  15.646  0.1392  0.4724  0.2087
 8841TIP3    H148014   3.432   0.120  15.704 -0.9756  2.4253 -0.1678
 8841TIP3    H248015   3.515   0.073  15.587 -1.6985  0.1434  0.1929
 8842TIP3   OH248016   5.701   2.362  15.778  0.3032  0.5336  0.7957
 8842TIP3    H148017   5.748   2.291  15.820  0.9890 -0.1024 -0.9420
 8842TIP3    H248018   5.676   2.327  15.693 -0.5107  1.9380  0.4246
 8843TIP3   OH248019   2.064   0.137   3.416  0.2735  0.4324 -0.0248
 8843TIP3    H148020   2.075   0.198   3.489 -0.2878  0.2896  0.1906
 8843TIP3    H248021   2.038   0.192   3.342 -0.6594  0.4281  0.2781
 8844TIP3   OH248022   2.509   4.415   2.481  0.0270 -0.1238  0.1394
 8844TIP3    H148023   2.436   4.457   2.436  0.0300  2.2460  2.1394
 8844TIP3    H248024   2.507   4.452   2.569  2.5132 -1.4335  0.8267
 8845TIP3   OH248025   1.046   4.377   6.059  0.1150 -0.2738  0.1156
 8845TIP3    H148026   1.069   4.325   6.136  0.2945 -0.2078  0.1062
 8845TIP3    H248027   1.028   4.312   5.990 -1.2324 -0.3845  0.5311
 8846TIP3   OH248028   0.488   3.455  15.683 -0.1562  0.1125  0.0025
 8846TIP3    H148029   0.484   3.545  15.650 -0.9793 -0.0508 -0.3858
 8846TIP3    H248030   0.564   3.454  15.741 -1.0034  1.4739  1.2107
 8847TIP3   OH248031   3.620   4.895  11.141 -0.0846 -0.1343  0.1265
 8847TIP3    H148032   3.529   4.883  11.168 -0.2836 -0.4802 -0.6550
 8847TIP3    H248033   3.638   4.820  11.085 -0.1121  1.1846 -1.7421
 8848TIP3   OH248034   0.359   4.024  15.156 -0.3285  0.0084  0.0573
 8848TIP3    H148035   0.359   3.972  15.236  0.0468 -1.1158 -0.6438
 8848TIP3    H248036   0.268   4.020  15.125 -0.5648  0.7880  0.6291
 8849TIP3   OH248037   5.581   4.662   3.879 -0.5083  0.3809 -0.2011
 8849TIP3    H148038   5.589   4.693   3.969 -1.5620 -2.2548  0.8907
 8849TIP3    H248039   5.671   4.642   3.853 -0.2470  0.6931  0.4384
 8850TIP3   OH248040   4.688   0.570  12.219  0.7054 -0.1558 -0.0454
 8850TIP3    H148041   4.695   0.583  12.314 -0.7566 -0.2262  0.1008
 8850TIP3    H248042   4.630   0.494  12.210  2.3842 -1.3999 -0.9946
 8851TIP3   OH248043   2.185   5.238  15.781 -0.1767  0.3089  0.7162
 8851TIP3    H148044   2.157   5.182  15.708 -3.0068  1.7803  0.5207
 8851TIP3    H248045   2.222   5.177  15.845 -2.9478 -1.8799  0.4628
 8852TIP3   OH248046   3.994   0.249  13.244  0.2838 -0.7344  0.4147
 8852TIP3    H148047   3.923   0.236  13.307  0.6963 -2.8533  0.4986
 8852TIP3    H248048   4.066   0.285  13.297 -0.3661  0.5112  0.5055
 8853TIP3   OH248049   0.769   6.370  16.846 -0.6443 -0.8994  0.5249
 8853TIP3    H148050   0.844   6.358  16.904  0.3959 -0.0411 -0.5682
 8853TIP3    H248051   0.703   6.411  16.901  0.4476  0.2365  1.0585
 8854TIP3   OH248052   5.474   1.418  13.951 -0.1433 -0.5023  0.0450
 8854TIP3    H148053   5.425   1.464  14.019  0.8170  1.2648 -0.3824
 8854TIP3    H248054   5.548   1.378  13.997  0.2423  0.2830  0.1149
 8855TIP3   OH248055   2.700   5.826  17.031 -0.4023 -0.1831  0.1380
 8855TIP3    H148056   2.762   5.897  17.020 -0.0706  0.0020  2.7127
 8855TIP3    H248057   2.614   5.867  17.025 -0.2312  0.1507 -0.0055
 8856TIP3   OH248058   6.022   5.803   2.838 -0.0673 -0.4231  0.1310
 8856TIP3    H148059   6.024   5.709   2.858  1.1377 -0.6194 -0.7916
 8856TIP3    H248060   5.949   5.837   2.890 -0.9841 -1.9871 -0.0839
 8857TIP3   OH248061   0.931   1.686   4.896 -0.2230 -0.1820  0.0119
 8857TIP3    H148062   0.992   1.631   4.946 -0.4543 -1.2028 -0.7823
 8857TIP3    H248063   0.849   1.682   4.946 -0.1400 -0.2905  0.1419
 8858TIP3   OH248064   1.306   5.752  15.574 -0.2404  0.5177 -0.4090
 8858TIP3    H148065   1.351   5.795  15.647  0.0312 -0.6876  0.1448
 8858TIP3    H248066   1.269   5.825  15.524  1.8227  1.5383 -0.5799
 8859TIP3   OH248067   0.989   3.810  17.011 -0.4535  0.0329 -0.0619
 8859TIP3    H148068   0.927   3.826  16.940  0.0514  0.9796 -0.3085
 8859TIP3    H248069   0.954   3.858  17.085 -1.1511 -1.2172  0.4511
 8860TIP3   OH248070   0.384   2.381   3.764  0.1328 -0.1146 -0.2282
 8860TIP3    H148071   0.314   2.380   3.830 -1.3397  2.2702 -1.6053
 8860TIP3    H248072   0.337   2.389   3.681  2.0448  1.2817 -1.2218
 8861TIP3   OH248073   6.725   0.600  13.217  0.1183  0.1704 -0.0619
 8861TIP3    H148074   6.653   0.609  13.279 -0.9833 -0.7474 -1.1307
 8861TIP3    H248075   6.777   0.528  13.251  0.0301  0.2675  0.2756
 8862TIP3   OH248076   4.745   2.820  13.471  0.3543  0.4317 -0.4220
 8862TIP3    H148077   4.683   2.785  13.535 -0.9487  1.8623 -0.8355
 8862TIP3    H248078   4.694   2.882  13.419  1.5959  0.0138 -2.2610
 8863TIP3   OH248079   6.124   0.438   0.265  0.3412  0.3627  0.4483
 8863TIP3    H148080   6.042   0.423   0.217 -1.2058  1.9190  2.4093
 8863TIP3    H248081   6.174   0.358   0.251 -1.5924 -0.7425 -0.6891
 8864TIP3   OH248082   5.675   4.173  12.557  0.1110  0.2387  0.8964
 8864TIP3    H148083   5.728   4.115  12.612 -1.3958 -1.0478  1.0752
 8864TIP3    H248084   5.586   4.160  12.588 -0.8545 -0.6915 -1.9528
 8865TIP3   OH248085   3.154   6.325  14.382  0.0019  0.3954 -0.0961
 8865TIP3    H148086   3.105   6.307  14.301 -0.9504 -1.7138  0.8983
 8865TIP3    H248087   3.202   6.245  14.400  0.2731  0.8604  1.3900
 8866TIP3   OH248088   3.911   4.538  17.205 -0.2169  0.5951 -0.0107
 8866TIP3    H148089   3.892   4.610  17.266 -1.2190  0.7209 -0.4490
 8866TIP3    H248090   3.829   4.525  17.158 -0.7639 -2.3446  1.5670
 8867TIP3   OH248091   5.098   5.365   2.933 -0.0079 -0.0036 -0.0653
 8867TIP3    H148092   5.092   5.275   2.900  0.9224 -0.0326 -0.1724
 8867TIP3    H248093   5.132   5.355   3.022  1.1738  0.3010 -0.4684
 8868TIP3   OH248094   2.793   2.424  15.307  0.3873 -0.3528 -0.0405
 8868TIP3    H148095   2.847   2.346  15.315  1.1792  0.1668 -0.1112
 8868TIP3    H248096   2.835   2.475  15.237  0.4466  0.5577  0.6289
 8869TIP3   OH248097   2.281   4.678   3.298  0.4238  0.1413  0.2171
 8869TIP3    H148098   2.253   4.590   3.324 -0.9136  0.5065  0.1146
 8869TIP3    H248099   2.376   4.678   3.312  0.7043 -1.7997 -1.2555
 8870TIP3   OH248100   2.131   4.383  13.995  0.2877 -0.2539  0.1431
 8870TIP3    H148101   2.121   4.467  14.039  1.6104 -0.0625  0.1017
 8870TIP3    H248102   2.050   4.373  13.945 -0.2403  0.6025  0.7942
 8871TIP3   OH248103   1.626   6.448   5.046  0.3138 -0.1235  0.4516
 8871TIP3    H148104   1.580   6.383   5.099 -1.9858 -1.3503 -2.7682
 8871TIP3    H248105   1.573   6.528   5.056  0.7206  0.0820  1.0633
 8872TIP3   OH248106   3.733   4.429  11.115  0.0623 -0.7399  0.0658
 8872TIP3    H148107   3.778   4.514  11.116 -0.6513 -0.3415  1.3813
 8872TIP3    H248108   3.794   4.369  11.158 -0.1580 -0.4643  0.7821
 8873TIP3   OH248109   2.997   2.645   3.910 -0.4334 -0.2682  0.3466
 8873TIP3    H148110   2.930   2.578   3.913  0.4994 -1.1869  1.2014
 8873TIP3    H248111   3.068   2.612   3.965 -0.5486  2.0794  2.0618
 8874TIP3   OH248112   0.631   5.110   1.732  0.7113  0.0808 -0.1490
 8874TIP3    H148113   0.601   5.108   1.642  1.9327  2.7857 -0.6982
 8874TIP3    H248114   0.691   5.184   1.737 -2.0533  2.4894  3.7165
 8875TIP3   OH248115   6.168   0.167  12.329 -0.0123 -0.1745  0.1253
 8875TIP3    H148116   6.242   0.206  12.376 -0.1328 -0.1301  0.2811
 8875TIP3    H248117   6.095   0.226  12.346 -0.1707 -0.4113  0.2759
 8876TIP3   OH248118   3.184   0.557  14.691  0.0390  0.2511  0.3274
 8876TIP3    H148119   3.103   0.587  14.650  0.4654  1.9013  0.5989
 8876TIP3    H248120   3.203   0.474  14.648  0.8072  2.1378 -3.4267
 8877TIP3   OH248121   2.079   2.346  14.495  0.1900 -0.1247  0.7119
 8877TIP3    H148122   1.988   2.346  14.524  0.2959  1.0202  1.0798
 8877TIP3    H248123   2.127   2.305  14.567 -0.2324 -2.5286 -0.2784
 8878TIP3   OH248124   5.124   5.683  16.025  0.3052  0.1792  0.1378
 8878TIP3    H148125   5.093   5.668  16.114  0.1782 -1.6922 -0.1830
 8878TIP3    H248126   5.058   5.740  15.985 -1.2177 -1.3384  0.3710
 8879TIP3   OH248127   1.217   0.949  16.537  0.5074 -0.1653 -0.4386
 8879TIP3    H148128   1.220   0.903  16.453  2.4507 -0.7480 -0.1007
 8879TIP3    H248129   1.273   1.026  16.524  1.4687 -0.6722  0.5199
 8880TIP3   OH248130   1.010   6.780  12.617 -0.1079  0.1957 -0.3579
 8880TIP3    H148131   0.957   6.812  12.544 -0.9287  1.7775  0.8660
 8880TIP3    H248132   1.074   6.849  12.632 -2.2656  1.7791  2.7139
 8881TIP3   OH248133   6.768   5.921   1.913  0.7178 -0.2339 -0.2921
 8881TIP3    H148134   6.797   5.998   1.961  0.7735 -1.4504  1.7642
 8881TIP3    H248135   6.721   5.868   1.979  1.0500 -2.1277 -1.5003
 8882TIP3   OH248136   4.223   3.596   6.191  0.1138 -0.0304  0.0101
 8882TIP3    H148137   4.221   3.546   6.272  1.3531  0.5114  0.4011
 8882TIP3    H248138   4.149   3.563   6.140 -0.5998 -0.4783  1.2949
 8883TIP3   OH248139   0.263   0.825  11.643  0.2287  0.2880 -0.0258
 8883TIP3    H148140   0.357   0.806  11.636  0.5573  0.4098  2.7043
 8883TIP3    H248141   0.260   0.916  11.672 -0.6081 -0.1754  1.4575
 8884TIP3   OH248142   5.547   2.359   1.272  1.3749 -0.1642  0.1792
 8884TIP3    H148143   5.570   2.336   1.362 -0.6678 -1.4023  0.4628
 8884TIP3    H248144   5.556   2.454   1.268  4.4140 -0.3235  0.7425
 8885TIP3   OH248145   2.128   5.867   0.917  0.3191 -0.1395  0.3213
 8885TIP3    H148146   2.202   5.808   0.928  0.7561  0.0391 -1.3779
 8885TIP3    H248147   2.076   5.828   0.846  0.1541  1.0445 -0.2385
 8886TIP3   OH248148   1.451   4.017  16.765  0.4566 -0.1231  0.0008
 8886TIP3    H148149   1.421   3.981  16.848  1.9824  0.0826  0.6699
 8886TIP3    H248150   1.454   4.112  16.780 -2.5745  0.3241 -1.4244
 8887TIP3   OH248151   6.004   6.717  12.766  0.2013 -0.0387  0.5087
 8887TIP3    H148152   5.910   6.733  12.774  0.3928  1.6169 -0.2795
 8887TIP3    H248153   6.011   6.645  12.704 -0.5601 -0.8343  1.3063
 8888TIP3   OH248154   0.086   3.118  15.620  0.3697  0.9520  0.2859
 8888TIP3    H148155   0.167   3.071  15.640  0.1906  0.6149  0.2216
 8888TIP3    H248156   0.029   3.101  15.696 -0.0536  0.2579 -0.1790
 8889TIP3   OH248157   2.009   0.862  14.205  0.3503  0.8527 -0.5959
 8889TIP3    H148158   2.068   0.790  14.180 -0.1152  1.1067 -2.5984
 8889TIP3    H248159   1.953   0.823  14.272  2.1252  0.3253  0.6734
 8890TIP3   OH248160   2.702   0.825   2.737  0.1896 -0.2555  0.3744
 8890TIP3    H148161   2.610   0.836   2.759  0.1158  0.6506 -0.3338
 8890TIP3    H248162   2.718   0.731   2.744 -0.7431 -0.3995  0.6501
 8891TIP3   OH248163   4.213   3.257  16.357 -0.1228  0.1499 -0.4954
 8891TIP3    H148164   4.277   3.206  16.308  0.1593  0.2112 -0.1984
 8891TIP3    H248165   4.258   3.339  16.377 -0.1628  0.0472  0.0336
 8892TIP3   OH248166   5.585   2.283  12.538 -0.6981  0.4021 -0.4908
 8892TIP3    H148167   5.648   2.211  12.527 -0.4079  0.2266  1.8994
 8892TIP3    H248168   5.539   2.287  12.454  0.4292 -1.4601 -1.2616
 8893TIP3   OH248169   1.545   0.006  14.070 -0.5730  0.3403  0.5867
 8893TIP3    H148170   1.457  -0.022  14.095 -2.0562  1.1585 -3.0256
 8893TIP3    H248171   1.534   0.097  14.043  1.6525  0.7991  1.0439
 8894TIP3   OH248172   1.544   3.582   2.516 -0.3240  0.0849 -0.1032
 8894TIP3    H148173   1.502   3.497   2.518 -1.4028  0.4703  4.5020
 8894TIP3    H248174   1.472   3.645   2.514  0.2575  0.8139  1.0941
 8895TIP3   OH248175   6.745   1.503  14.406 -0.0549  0.0040  0.1583
 8895TIP3    H148176   6.681   1.432  14.398  0.2883 -0.2504 -0.3765
 8895TIP3    H248177   6.745   1.524  14.499  1.2455 -2.0143  0.6662
 8896TIP3   OH248178   4.885   2.524   0.713  0.6389 -0.6130 -0.2635
 8896TIP3    H148179   4.802   2.477   0.718  0.2812 -0.0924 -1.1854
 8896TIP3    H248180   4.952   2.455   0.717  0.1526 -1.0888 -0.2500
 8897TIP3   OH248181   1.531   4.235   4.328 -0.1832  0.1327  0.0717
 8897TIP3    H148182   1.446   4.204   4.297 -1.2506  2.2199  0.6856
 8897TIP3    H248183   1.513   4.321   4.365  1.9867  0.0643  1.4819
 8898TIP3   OH248184   2.881   1.206   3.932 -0.0657 -0.1647  0.1245
 8898TIP3    H148185   2.884   1.255   3.850  0.7040  0.5228  0.5391
 8898TIP3    H248186   2.795   1.165   3.934 -0.9632  1.6429  0.0153
 8899TIP3   OH248187   2.807   1.341   0.080  0.3190 -0.2288  0.4419
 8899TIP3    H148188   2.844   1.422   0.113 -0.1753  1.0988 -1.9983
 8899TIP3    H248189   2.740   1.317   0.144  0.0312  1.6772  0.9137
 8900TIP3   OH248190   3.654   1.117  16.419 -0.1606  0.6136  0.6787
 8900TIP3    H148191   3.748   1.107  16.401  0.0838 -1.1111  2.5285
 8900TIP3    H248192   3.650   1.192  16.479 -0.0759  1.2018 -0.0394
 8901TIP3   OH248193   5.278   0.870  10.573  0.0579 -0.6115  0.0718
 8901TIP3    H148194   5.255   0.902  10.660 -0.7383  0.7008 -0.5896
 8901TIP3    H248195   5.203   0.894  10.518  1.1605 -0.0841 -1.2632
 8902TIP3   OH248196   2.164   5.099  14.763  0.0160 -0.1700 -0.1801
 8902TIP3    H148197   2.243   5.073  14.716 -0.3878 -1.0808 -0.3686
 8902TIP3    H248198   2.125   5.167  14.709 -0.2049 -0.8918 -0.9510
 8903TIP3   OH248199   6.046   2.613  15.819 -0.6314 -0.8702 -0.2119
 8903TIP3    H148200   6.054   2.698  15.862 -3.0737 -0.9497  0.5563
 8903TIP3    H248201   6.010   2.555  15.887  0.6033 -2.4453 -0.8271
 8904TIP3   OH248202   0.617   4.315  14.766 -0.1837  0.1227  0.1780
 8904TIP3    H148203   0.548   4.377  14.743 -1.2706 -0.2974  2.1644
 8904TIP3    H248204   0.578   4.258  14.832  2.3924  0.6313  2.3194
 8905TIP3   OH248205   3.451   0.890   0.887  0.6279  0.1882  0.7115
 8905TIP3    H148206   3.515   0.939   0.836 -0.0507  0.4899  0.1281
 8905TIP3    H248207   3.386   0.955   0.914 -0.5355 -0.4249 -0.4677
 8906TIP3   OH248208   2.483   5.008  11.101  0.0410  0.0433 -0.0522
 8906TIP3    H148209   2.467   5.081  11.160  1.8862  0.2301  0.2583
 8906TIP3    H248210   2.461   5.043  11.014  1.4020  1.1630  0.0246
 8907TIP3   OH248211   6.500   2.943  11.394  0.3162 -0.5765  0.2507
 8907TIP3    H148212   6.470   3.018  11.445 -0.6962  0.3979 -1.6527
 8907TIP3    H248213   6.544   2.982  11.318 -0.0484 -1.9018 -0.6680
 8908TIP3   OH248214   0.550   5.744   2.044 -0.0514  0.3590  0.3916
 8908TIP3    H148215   0.560   5.793   1.963 -0.1066  1.0905  0.8190
 8908TIP3    H248216   0.564   5.809   2.113  0.4799 -0.3562  0.9664
 8909TIP3   OH248217   6.810   5.342   1.834 -0.3144  0.6410 -0.3378
 8909TIP3    H148218   6.750   5.311   1.902 -0.4619 -0.3612 -0.9040
 8909TIP3    H248219   6.871   5.269   1.821  1.2273  1.7233  0.4172
 8910TIP3   OH248220   5.373   6.291   0.116 -0.0285 -0.5055  0.4894
 8910TIP3    H148221   5.416   6.206   0.127  0.7959 -0.0297  1.1363
 8910TIP3    H248222   5.418   6.348   0.179  0.0402  0.6302 -0.5631
 8911TIP3   OH248223   0.382   2.398  13.832  0.1026 -0.6659 -0.1167
 8911TIP3    H148224   0.465   2.357  13.856  0.7171  0.6230  0.0339
 8911TIP3    H248225   0.338   2.414  13.916  0.9545  1.1535  0.0449
 8912TIP3   OH248226   0.812   4.329   3.918  0.3167 -0.0530 -0.2810
 8912TIP3    H148227   0.837   4.367   3.834 -1.3454  0.5867 -0.5163
 8912TIP3    H248228   0.736   4.274   3.898 -2.5577  3.0119  1.2515
 8913TIP3   OH248229   0.792   5.358  16.429  0.3269  0.0815 -0.0541
 8913TIP3    H148230   0.869   5.315  16.467  1.0190  0.5453 -0.9045
 8913TIP3    H248231   0.758   5.295  16.366 -0.1368 -0.2159  0.4834
 8914TIP3   OH248232   4.273   1.512   2.208 -0.2556  1.2145  0.4044
 8914TIP3    H148233   4.292   1.420   2.227  0.1577  1.5749  1.8433
 8914TIP3    H248234   4.188   1.528   2.249 -0.4567  1.4041 -0.0842
 8915TIP3   OH248235   4.110   3.948   4.963 -0.0722 -0.2327 -0.6927
 8915TIP3    H148236   4.147   3.995   5.038  2.2949  0.5318 -2.2447
 8915TIP3    H248237   4.030   3.908   4.998  1.6393 -1.1712  2.6532
 8916TIP3   OH248238   1.907   3.894  17.172  0.3617  0.3842 -1.3132
 8916TIP3    H148239   1.847   3.821  17.156 -1.0648  1.5739 -1.6670
 8916TIP3    H248240   1.860   3.951  17.232  1.3150  1.1673 -1.2846
 8917TIP3   OH248241   2.021   6.106   2.634  0.3389 -0.2115  0.3954
 8917TIP3    H148242   1.982   6.107   2.721  0.1817  0.5476  0.3197
 8917TIP3    H248243   1.947   6.114   2.574  0.3903 -1.3295  0.1643
 8918TIP3   OH248244   2.590   4.424  14.558  0.1724  0.4241  0.1598
 8918TIP3    H148245   2.549   4.475  14.488  0.3106  1.3160  0.7118
 8918TIP3    H248246   2.527   4.426  14.629 -0.3155 -1.1572 -0.1930
 8919TIP3   OH248247   6.448   6.409  12.233 -0.1938 -0.1383 -0.1883
 8919TIP3    H148248   6.446   6.324  12.191  1.5900 -0.4465  0.2588
 8919TIP3    H248249   6.465   6.471  12.162  1.6418 -0.5305 -0.1407
 8920TIP3   OH248250   5.375   0.873  11.538 -0.2760  0.2304 -0.3301
 8920TIP3    H148251   5.411   0.890  11.451 -0.2955  0.8654 -0.2195
 8920TIP3    H248252   5.362   0.960  11.576 -0.7956 -0.0241  0.0930
 8921TIP3   OH248253   4.707   6.645   0.481  0.8131 -0.1273  0.2569
 8921TIP3    H148254   4.617   6.612   0.476  0.3363  1.2458 -1.0051
 8921TIP3    H248255   4.750   6.610   0.403  0.5441  1.4270 -0.6307
 8922TIP3   OH248256   2.913   5.527  16.776 -0.0359  0.5121 -0.8880
 8922TIP3    H148257   2.862   5.493  16.702 -1.2899  0.9794 -0.2680
 8922TIP3    H248258   2.920   5.621  16.760  0.9166  0.4122 -1.1166
 8923TIP3   OH248259   1.683   4.938  11.975  0.4617 -0.2311 -0.1923
 8923TIP3    H148260   1.617   4.878  11.940 -0.0919  0.8876 -1.1804
 8923TIP3    H248261   1.763   4.918  11.925  0.5665 -0.8231  0.2050
 8924TIP3   OH248262   6.634   3.726  11.328 -0.2769 -0.1834  0.0694
 8924TIP3    H148263   6.694   3.716  11.254 -1.1822 -3.4218 -0.3827
 8924TIP3    H248264   6.677   3.678  11.399 -0.9470  0.0397  0.6313
 8925TIP3   OH248265   3.412   5.124  15.778  0.0637  0.2248  0.0485
 8925TIP3    H148266   3.445   5.083  15.858  1.2806  0.3679 -0.3659
 8925TIP3    H248267   3.316   5.115  15.784  0.2492 -3.2764 -0.3444
 8926TIP3   OH248268   5.899   3.480  15.596 -0.3282  0.0639  0.2246
 8926TIP3    H148269   5.894   3.405  15.537 -0.3858 -0.3623  0.7637
 8926TIP3    H248270   5.985   3.473  15.637  0.5545  1.4660 -1.2345
 8927TIP3   OH248271   5.850   0.126   5.274 -0.6152 -0.6522  0.1424
 8927TIP3    H148272   5.854   0.171   5.190 -0.0498 -0.1427  0.4326
 8927TIP3    H248273   5.907   0.177   5.332  1.6136 -2.8056  0.0032
 8928TIP3   OH248274   6.071   5.392   4.051 -0.0857 -0.3754 -0.4469
 8928TIP3    H148275   6.129   5.319   4.028 -0.0772 -0.6128  0.2963
 8928TIP3    H248276   6.023   5.361   4.127 -1.1002 -0.1238 -0.9688
 8929TIP3   OH248277   0.804   3.911  16.804  0.1729 -0.6766 -0.0002
 8929TIP3    H148278   0.868   3.900  16.734  0.9631 -1.4463  0.7968
 8929TIP3    H248279   0.786   4.005  16.806  2.2811 -0.2229  0.5677
 8930TIP3   OH248280   0.815   4.443  14.332 -0.1424 -0.3151 -0.2630
 8930TIP3    H148281   0.852   4.380  14.271  0.0968 -0.3961 -0.0380
 8930TIP3    H248282   0.832   4.528  14.292 -1.6420 -0.4175 -1.2261
 8931TIP3   OH248283   4.872   1.509   1.888  0.4426  0.2853 -0.4732
 8931TIP3    H148284   4.814   1.436   1.906  0.8418 -0.1201 -0.7948
 8931TIP3    H248285   4.876   1.513   1.792 -1.1739  2.0149 -0.5391
 8932TIP3   OH248286   4.684   3.399   5.724 -0.1419 -0.1301 -0.1264
 8932TIP3    H148287   4.659   3.382   5.815 -0.3534  1.2637  0.0927
 8932TIP3    H248288   4.727   3.318   5.696  0.0995 -0.5164  1.2693
 8933TIP3   OH248289   6.820   0.187   4.312  0.8115 -0.2074  0.1768
 8933TIP3    H148290   6.763   0.201   4.387 -0.9316 -1.1584 -0.8988
 8933TIP3    H248291   6.761   0.158   4.242  2.4091  0.2675 -1.4558
 8934TIP3   OH248292   4.470   0.592   0.107 -0.3025  0.2347  0.3000
 8934TIP3    H148293   4.374   0.590   0.098 -0.3816  1.1965  0.7918
 8934TIP3    H248294   4.486   0.553   0.193 -0.2527  0.0845  0.2223
 8935TIP3   OH248295   6.652   4.783  10.123 -0.1671  0.2405 -0.4251
 8935TIP3    H148296   6.706   4.852  10.087  0.4330  0.1642  0.3120
 8935TIP3    H248297   6.591   4.827  10.183  0.0621  0.1634 -0.1314
 8936TIP3   OH248298   2.602   1.168   5.140 -0.5084  0.3877 -0.1397
 8936TIP3    H148299   2.688   1.199   5.170 -1.4234  2.7305  0.3391
 8936TIP3    H248300   2.592   1.082   5.179  1.1853  0.5177  0.6654
 8937TIP3   OH248301   4.527   0.899  15.334  0.3690  0.8193  0.4967
 8937TIP3    H148302   4.492   0.860  15.414  0.7450  0.0266  0.2922
 8937TIP3    H248303   4.465   0.968  15.311  0.1211  0.8859  1.3268
 8938TIP3   OH248304   0.123   3.830   3.853 -0.2740  0.4041  0.1507
 8938TIP3    H148305   0.099   3.738   3.861 -0.3521  0.3181 -0.8789
 8938TIP3    H248306   0.051   3.878   3.895 -1.3090  0.0725 -1.1883
 8939TIP3   OH248307   6.559   3.282  11.044 -0.0835 -0.2866 -0.6033
 8939TIP3    H148308   6.497   3.303  10.974 -1.6181 -0.3697  0.6922
 8939TIP3    H248309   6.553   3.355  11.105  1.6967  0.0829 -0.7907
 8940TIP3   OH248310   2.355   2.186  14.107  0.2284  0.8057 -0.1711
 8940TIP3    H148311   2.304   2.261  14.136 -0.5317  0.5472 -0.8216
 8940TIP3    H248312   2.344   2.183  14.012 -0.4582 -0.6143 -0.0767
 8941TIP3   OH248313   3.061   1.230  17.201  0.8524 -0.5235 -0.2222
 8941TIP3    H148314   3.152   1.229  17.168  0.7552 -0.5200 -0.4951
 8941TIP3    H248315   3.061   1.299  17.267  0.7846  0.2335 -0.9948
 8942TIP3   OH248316   2.037   1.670  11.679 -0.1711 -0.5301 -0.1308
 8942TIP3    H148317   2.015   1.760  11.701 -2.9455 -1.2835  0.6247
 8942TIP3    H248318   2.021   1.621  11.760 -0.0766 -1.8708 -0.8957
 8943TIP3   OH248319   5.368   6.715  15.802  0.1105  0.1543  0.0184
 8943TIP3    H148320   5.443   6.670  15.842 -0.3261  0.1213  0.8399
 8943TIP3    H248321   5.397   6.805  15.790  0.8109 -0.2141 -1.1383
 8944TIP3   OH248322   0.500   4.481  16.524 -0.3710  0.4320  0.0048
 8944TIP3    H148323   0.482   4.397  16.480  0.8423 -0.2978  0.8294
 8944TIP3    H248324   0.422   4.534  16.508 -0.3393 -0.0989 -2.2915
 8945TIP3   OH248325   2.627   4.160  15.420 -0.4090 -0.0520 -0.4839
 8945TIP3    H148326   2.720   4.183  15.430 -0.4379  0.0619 -0.4825
 8945TIP3    H248327   2.582   4.213  15.485 -0.2507 -1.6122  0.9602
 8946TIP3   OH248328   5.009   0.840   2.030 -0.3273  0.2409  0.2343
 8946TIP3    H148329   5.100   0.813   2.017 -0.7634 -1.2791  0.2349
 8946TIP3    H248330   5.004   0.927   1.989  1.2728  0.6398  0.8185
 8947TIP3   OH248331   3.742   5.314  15.382  0.1700 -0.0597  0.4692
 8947TIP3    H148332   3.835   5.300  15.400  0.8201  1.5846 -1.2576
 8947TIP3    H248333   3.700   5.233  15.411  1.9642 -0.4290  2.3002
 8948TIP3   OH248334   1.095   2.901   4.632  0.2923  0.6801 -0.5126
 8948TIP3    H148335   1.130   2.958   4.702 -1.0994  1.8912 -0.7674
 8948TIP3    H248336   1.001   2.897   4.649  0.2349 -0.8060 -1.0670
 8949TIP3   OH248337   6.522   3.300   3.902 -0.4324 -0.0467  0.6668
 8949TIP3    H148338   6.544   3.390   3.926  3.5007 -1.0340  1.5221
 8949TIP3    H248339   6.470   3.268   3.975 -0.2782  1.0182  1.2712
 8950TIP3   OH248340   2.984   4.373   2.202 -0.4096 -0.1014  0.3173
 8950TIP3    H148341   2.975   4.340   2.291 -1.2714 -1.5482 -0.2691
 8950TIP3    H248342   2.894   4.389   2.173 -0.0838  1.5163  0.1011
 8951TIP3   OH248343   3.109   2.012  16.992 -0.1173 -0.2113 -0.6320
 8951TIP3    H148344   3.148   2.079  17.049 -3.1825  0.3537  1.0233
 8951TIP3    H248345   3.140   1.929  17.027  1.0739  0.2258 -0.6019
 8952TIP3   OH248346   6.048   4.482   0.574 -0.4566 -0.5125 -0.5882
 8952TIP3    H148347   6.004   4.450   0.495 -1.5444 -0.3649 -0.0622
 8952TIP3    H248348   6.121   4.534   0.541 -0.8414 -0.5301 -1.5098
 8953TIP3   OH248349   4.610   6.173  15.967 -0.2672  0.1480  0.3456
 8953TIP3    H148350   4.703   6.156  15.985  0.3343  3.2391  0.6914
 8953TIP3    H248351   4.564   6.137  16.043  1.0190  1.5656  1.8751
 8954TIP3   OH248352   1.963   3.605   3.942  0.0943 -0.0052 -0.5964
 8954TIP3    H148353   2.005   3.691   3.930 -2.3834  1.1988 -1.3694
 8954TIP3    H248354   1.975   3.586   4.035  1.2100  0.8762 -0.5335
 8955TIP3   OH248355   1.451   3.030   5.905 -0.1625  0.2180  0.3585
 8955TIP3    H148356   1.424   3.039   5.997  0.7665  0.4567  0.6231
 8955TIP3    H248357   1.544   3.053   5.905 -0.2149  0.4954 -0.6939
 8956TIP3   OH248358   2.696   0.305   2.585 -0.0221 -0.5299 -0.3578
 8956TIP3    H148359   2.620   0.257   2.552 -0.4133  0.3542 -0.7716
 8956TIP3    H248360   2.692   0.390   2.541  0.1443  0.2326  1.0488
 8957TIP3   OH248361   1.649   1.982  14.988  0.1897  0.3021  0.0004
 8957TIP3    H148362   1.658   1.975  15.083 -0.9053 -0.9170  0.0307
 8957TIP3    H248363   1.707   1.914  14.953 -0.3376 -0.0707 -0.1584
 8958TIP3   OH248364   4.945   1.969  13.702  1.0069 -0.3931  0.0062
 8958TIP3    H148365   4.990   2.052  13.684  1.5229 -0.3462  1.4150
 8958TIP3    H248366   4.899   1.984  13.785 -1.0766 -0.6755 -1.0098
 8959TIP3   OH248367   4.062   1.606   0.815  0.0102  0.2908  0.2932
 8959TIP3    H148368   4.045   1.665   0.741  1.7450  0.3698 -0.0842
 8959TIP3    H248369   3.981   1.555   0.823 -0.3609  0.5231 -1.4376
 8960TIP3   OH248370   2.123   2.088   1.670 -0.0123  0.0027  0.4640
 8960TIP3    H148371   2.135   2.094   1.575 -0.8360 -2.2301  0.1625
 8960TIP3    H248372   2.039   2.043   1.681 -0.0209  0.3683  2.2790
 8961TIP3   OH248373   4.522   3.441   0.340  0.4026 -0.4782 -0.0868
 8961TIP3    H148374   4.562   3.400   0.263 -0.6347 -3.0405  0.6421
 8961TIP3    H248375   4.449   3.492   0.306  0.4792 -0.8884 -0.8741
 8962TIP3   OH248376   1.101   2.380   1.286 -0.2419 -0.1416  0.4612
 8962TIP3    H148377   1.064   2.342   1.206 -1.4908  0.5904  0.6625
 8962TIP3    H248378   1.036   2.362   1.353  0.7735 -0.7003  1.3217
 8963TIP3   OH248379   4.458   2.343   4.287 -0.3409  0.3208 -0.6522
 8963TIP3    H148380   4.494   2.261   4.255 -1.5553  0.1532 -1.6425
 8963TIP3    H248381   4.531   2.405   4.283  1.1479 -1.0783  1.9157
 8964TIP3   OH248382   3.265   5.374   1.601 -0.2473  0.2172 -0.1847
 8964TIP3    H148383   3.235   5.460   1.573 -1.3255 -0.2906 -0.6515
 8964TIP3    H248384   3.216   5.356   1.682  0.5994  0.3857  0.3839
 8965TIP3   OH248385   0.518   5.059   2.813  0.4954 -0.2962 -0.2253
 8965TIP3    H148386   0.503   5.111   2.734 -2.3424 -1.2520 -0.4391
 8965TIP3    H248387   0.539   4.971   2.780 -0.1929 -0.5743  0.0631
 8966TIP3   OH248388   1.634   0.774  17.007  0.0482  0.0068 -0.1970
 8966TIP3    H148389   1.611   0.857  16.966  2.1713  1.4236  1.3057
 8966TIP3    H248390   1.715   0.747  16.962 -0.8632 -1.5634 -1.0060
 8967TIP3   OH248391   1.700   4.762   1.610 -0.7172  0.3519  0.5345
 8967TIP3    H148392   1.685   4.826   1.680  1.3492  0.4617  0.9435
 8967TIP3    H248393   1.707   4.678   1.655 -1.9276  0.0398  0.1610
 8968TIP3   OH248394   2.224   5.243  15.420 -0.0012  0.3826 -0.0022
 8968TIP3    H148395   2.235   5.241  15.325 -1.0062  0.2668 -0.1199
 8968TIP3    H248396   2.285   5.177  15.453  1.0555  1.0911 -0.4844
 8969TIP3   OH248397   2.791   5.242   4.854  0.2931  0.2369 -0.2402
 8969TIP3    H148398   2.837   5.208   4.778  0.3787  0.6404 -0.3717
 8969TIP3    H248399   2.757   5.327   4.826 -0.2525  0.0898 -0.0429
 8970TIP3   OH248400   1.524   6.803  13.177 -0.0637 -0.0845 -0.1659
 8970TIP3    H148401   1.490   6.822  13.265  0.8927 -0.2359  0.2498
 8970TIP3    H248402   1.503   6.711  13.163  1.9727 -0.7865  0.9705
 8971TIP3   OH248403   2.747   5.186  11.273  0.2372 -0.3102 -0.2101
 8971TIP3    H148404   2.804   5.209  11.346  0.8080 -1.1687 -0.3586
 8971TIP3    H248405   2.681   5.254  11.271 -0.9164 -1.2456  2.2916
 8972TIP3   OH248406   6.118   0.532   1.955  0.0323 -0.5238  0.1265
 8972TIP3    H148407   6.182   0.463   1.938  0.5451 -0.3837  1.4206
 8972TIP3    H248408   6.034   0.486   1.961  0.1282 -0.8170 -0.6670
 8973TIP3   OH248409   4.143   0.453   3.301  0.5056 -0.2596  0.5296
 8973TIP3    H148410   4.126   0.470   3.394  0.7755  0.4150  0.4572
 8973TIP3    H248411   4.182   0.534   3.268 -1.0525  0.0917 -0.5532
 8974TIP3   OH248412   0.885   2.855   5.389 -0.0540  0.0892 -0.4921
 8974TIP3    H148413   0.856   2.793   5.323 -0.3558  0.3670 -0.6216
 8974TIP3    H248414   0.895   2.803   5.469 -1.9214  0.1577 -0.1687
 8975TIP3   OH248415   0.213   6.331  12.086  0.1190 -0.2012 -0.2633
 8975TIP3    H148416   0.197   6.379  12.167  0.6706  1.7604 -1.2605
 8975TIP3    H248417   0.308   6.319  12.083 -0.0414 -2.0747  0.3003
 8976TIP3   OH248418   4.272   4.171  14.759 -0.5817  0.2350  0.3963
 8976TIP3    H148419   4.296   4.124  14.679 -0.3907 -0.8201  1.0579
 8976TIP3    H248420   4.355   4.181  14.806 -0.5614  1.5627  0.1068
 8977TIP3   OH248421   3.491   0.650   0.559 -0.0892  0.0050  0.6360
 8977TIP3    H148422   3.581   0.629   0.537  0.1288 -0.9316  2.2644
 8977TIP3    H248423   3.441   0.574   0.529  0.0493 -0.7182  2.1745
 8978TIP3   OH248424   5.167   0.610  11.038  0.2321  0.0626 -0.1099
 8978TIP3    H148425   5.249   0.616  11.086  0.0939 -0.3417  0.1810
 8978TIP3    H248426   5.116   0.687  11.065  0.0483 -0.3002  0.5930
 8979TIP3   OH248427   1.477   6.597  10.556 -0.2127 -0.8184  0.3134
 8979TIP3    H148428   1.566   6.616  10.586 -0.2279  0.0041 -0.1259
 8979TIP3    H248429   1.433   6.681  10.557 -1.0895 -1.2668  0.8134
 8980TIP3   OH248430   1.599   4.504   0.762 -0.0351 -0.7319  0.0474
 8980TIP3    H148431   1.520   4.480   0.810  0.8544 -1.5227  1.1825
 8980TIP3    H248432   1.670   4.458   0.807  1.3843  1.6258  0.3977
 8981TIP3   OH248433   3.198   4.040  10.358 -0.5114  0.0592 -0.5630
 8981TIP3    H148434   3.265   4.037  10.426 -0.4826  1.6660 -0.4764
 8981TIP3    H248435   3.236   3.994  10.283  0.7687  1.0757 -0.5648
 8982TIP3   OH248436   0.892   5.231  17.097  0.4642 -0.2796  0.2975
 8982TIP3    H148437   0.941   5.158  17.059 -0.9298 -1.7310  1.1937
 8982TIP3    H248438   0.873   5.204  17.187  0.9569  1.7275  1.0667
 8983TIP3   OH248439   6.746   1.956  12.846  0.9616 -0.2646 -0.0572
 8983TIP3    H148440   6.819   1.978  12.788 -0.2576 -1.2060 -2.0413
 8983TIP3    H248441   6.692   2.035  12.848  0.7647 -0.3833 -0.5998
 8984TIP3   OH248442   1.784   3.092   4.491 -0.2009  0.2255 -0.0110
 8984TIP3    H148443   1.757   3.179   4.460 -2.3652 -0.9930 -1.8016
 8984TIP3    H248444   1.862   3.072   4.440 -0.9061  0.2887 -1.1525
 8985TIP3   OH248445   3.677   4.549   3.418  0.3321  0.5016 -0.0540
 8985TIP3    H148446   3.716   4.625   3.462  0.8394  0.0354  0.3111
 8985TIP3    H248447   3.602   4.585   3.370 -0.0202  1.0721  0.9027
 8986TIP3   OH248448   2.047   5.926   3.668  0.1590 -0.1778 -0.1009
 8986TIP3    H148449   1.956   5.950   3.687 -0.3625 -0.9060 -1.5771
 8986TIP3    H248450   2.045   5.831   3.657  0.3977  0.1026 -3.5122
 8987TIP3   OH248451   5.295   1.250  12.338  0.4038  0.0271  0.2773
 8987TIP3    H148452   5.365   1.233  12.401  1.1791  1.1036 -0.2505
 8987TIP3    H248453   5.238   1.174  12.344  1.2874 -0.5902  1.1765
 8988TIP3   OH248454   6.197   6.756   2.948  0.0052 -0.6453 -0.2406
 8988TIP3    H148455   6.199   6.823   2.879  3.8115  0.3338  0.5520
 8988TIP3    H248456   6.141   6.793   3.016 -0.6412  0.2027 -1.2087
 8989TIP3   OH248457   6.800   1.525  16.432  0.2155 -0.1166  0.3814
 8989TIP3    H148458   6.876   1.561  16.478 -0.0229 -0.3928  1.0002
 8989TIP3    H248459   6.800   1.433  16.456  0.2024 -0.3110 -0.3428
 8990TIP3   OH248460   3.808   6.314   1.176 -0.0524  0.2888  0.4038
 8990TIP3    H148461   3.823   6.245   1.111 -0.7423  0.3711  0.1462
 8990TIP3    H248462   3.822   6.395   1.127  0.4499  0.3389  0.6268
 8991TIP3   OH248463   2.522   6.090  16.315  0.5917  0.6983 -0.1158
 8991TIP3    H148464   2.617   6.096  16.304  0.7153 -0.4417  0.1888
 8991TIP3    H248465   2.489   6.078  16.226  0.7990  0.3885 -0.1528
 8992TIP3   OH248466   3.651   3.076  16.254 -0.2013  0.6361  0.0405
 8992TIP3    H148467   3.640   2.984  16.227 -1.0920  0.9939 -0.8926
 8992TIP3    H248468   3.745   3.091  16.247  0.2331 -0.7612  2.1706
 8993TIP3   OH248469   3.616   2.863  12.238  0.0218  0.3566  0.1559
 8993TIP3    H148470   3.615   2.953  12.204  1.1738  0.4863  0.4164
 8993TIP3    H248471   3.671   2.815  12.176  1.5977  0.4422  1.4107
 8994TIP3   OH248472   3.893   3.974  12.698  0.3252  0.1422  0.1588
 8994TIP3    H148473   3.846   3.984  12.615  1.9567 -0.1177 -0.8316
 8994TIP3    H248474   3.851   4.038  12.756 -0.6088  0.5884 -0.9574
 8995TIP3   OH248475   1.377   2.875   5.404  0.2151 -0.0508 -0.1179
 8995TIP3    H148476   1.295   2.864   5.451 -0.2300  0.5522 -0.7274
 8995TIP3    H248477   1.418   2.951   5.446  1.5273 -1.6405  1.6361
 8996TIP3   OH248478   3.766   0.029  11.631 -0.2596  0.2136 -0.4586
 8996TIP3    H148479   3.836   0.003  11.572  0.0433  1.4552 -0.6755
 8996TIP3    H248480   3.801   0.104  11.679 -1.4051  0.8443 -0.5526
 8997TIP3   OH248481   0.062   1.135  11.683 -0.4198  0.1783  0.4010
 8997TIP3    H148482   0.061   1.158  11.776 -0.8221 -0.8416  0.6664
 8997TIP3    H248483  -0.002   1.065  11.675 -1.7596  1.4983 -1.0082
 8998TIP3   OH248484   0.595   2.310  15.366 -0.3421  0.2503  0.0971
 8998TIP3    H148485   0.587   2.392  15.415 -1.1820 -1.0338  2.2305
 8998TIP3    H248486   0.549   2.327  15.284  1.7162  2.6949 -0.6704
 8999TIP3   OH248487   3.630   5.154   0.333 -0.1893 -0.1741 -0.1348
 8999TIP3    H148488   3.542   5.188   0.349 -0.5826 -1.3576  0.3813
 8999TIP3    H248489   3.670   5.216   0.271 -0.5236  1.6726  1.4275
 9000TIP3   OH248490   4.982   5.878   1.623  0.1813  0.0061  0.5559
 9000TIP3    H148491   4.968   5.958   1.673  1.3914  1.1760 -0.8559
 9000TIP3    H248492   5.027   5.819   1.684  1.5559  1.3640  0.9277
 9001TIP3   OH248493   2.593   1.526  14.678  0.4263  0.3199 -0.6317
 9001TIP3    H148494   2.599   1.570  14.593  0.6857 -0.5856 -1.0923
 9001TIP3    H248495   2.638   1.442  14.665 -2.4122 -1.3109 -0.5579
 9002TIP3   OH248496   2.173   0.382   1.811  0.1886  1.1228 -0.4296
 9002TIP3    H148497   2.137   0.294   1.801 -0.7003  1.2307  1.4753
 9002TIP3    H248498   2.119   0.437   1.754  0.5246  0.5274 -1.3524
 9003TIP3   OH248499   5.586   5.993  11.059 -0.0242 -0.5041  0.2801
 9003TIP3    H148500   5.626   5.965  11.141  0.3672 -0.4776  0.1019
 9003TIP3    H248501   5.508   6.042  11.085  1.0605  1.0459  0.7017
 9004TIP3   OH248502   4.646   3.433  12.492 -0.0467 -0.1118 -0.5327
 9004TIP3    H148503   4.587   3.508  12.495 -4.8111 -3.3733  0.2984
 9004TIP3    H248504   4.705   3.445  12.567 -0.6026  2.6807 -0.4364
 9005TIP3   OH248505   0.162   3.523  13.969 -0.2410  0.1706  0.2229
 9005TIP3    H148506   0.133   3.508  13.879  0.1776  0.7971 -0.0201
 9005TIP3    H248507   0.238   3.465  13.980  0.2451  0.7303 -0.1181
 9006TIP3   OH248508   6.805   2.516  13.710  0.0072 -0.2390  0.4625
 9006TIP3    H148509   6.851   2.433  13.707  1.3063  0.4337  0.7648
 9006TIP3    H248510   6.868   2.577  13.749 -1.1592  0.7239  0.9258
 9007TIP3   OH248511   1.723   4.631  12.112  0.5502 -0.2032 -0.0151
 9007TIP3    H148512   1.648   4.691  12.110  0.6602 -0.0193  0.8431
 9007TIP3    H248513   1.799   4.689  12.118  0.7528 -0.3960 -0.6479
 9008TIP3   OH248514   0.175   5.678   2.727  0.1477 -0.0721  0.4085
 9008TIP3    H148515   0.252   5.734   2.733 -0.9132  1.8948 -2.2197
 9008TIP3    H248516   0.102   5.739   2.718 -1.9059 -1.8544  3.4032
 9009TIP3   OH248517   1.126   6.175   3.762 -0.2811  0.0893 -0.0438
 9009TIP3    H148518   1.113   6.260   3.720  1.6287 -0.4395 -1.8785
 9009TIP3    H248519   1.050   6.123   3.734  0.0016  0.3418 -1.3492
 9010TIP3   OH248520   2.434   2.343  12.162  0.1131 -0.4436 -0.5059
 9010TIP3    H148521   2.440   2.336  12.257  2.4845  1.8494 -0.3780
 9010TIP3    H248522   2.342   2.324  12.142 -0.8519  0.6815  2.4141
 9011TIP3   OH248523   2.372   1.152   0.721 -0.1144  0.0493  0.3765
 9011TIP3    H148524   2.277   1.163   0.714 -0.4043 -0.8707  2.2081
 9011TIP3    H248525   2.392   1.077   0.665 -0.4212  0.4281 -0.2442
 9012TIP3   OH248526   4.913   4.614   0.633  0.1576 -0.5085  0.0560
 9012TIP3    H148527   4.926   4.709   0.629  1.3126 -0.6618 -0.5142
 9012TIP3    H248528   4.820   4.601   0.615  0.1505  0.4799 -0.7064
 9013TIP3   OH248529   6.368   6.168   5.147 -0.4018 -0.4424  0.3149
 9013TIP3    H148530   6.321   6.162   5.230  0.7220 -1.0497  0.9394
 9013TIP3    H248531   6.427   6.243   5.158  0.3710 -1.0492  0.4137
 9014TIP3   OH248532   2.101   1.578   4.420  0.0735 -0.2828  0.4139
 9014TIP3    H148533   2.143   1.628   4.490  0.0111 -0.5572  0.6495
 9014TIP3    H248534   2.125   1.487   4.438  0.1937 -0.3415 -0.0150
 9015TIP3   OH248535   5.830   2.919   5.330  0.3561 -0.0709 -0.0730
 9015TIP3    H148536   5.825   2.869   5.412  0.5326 -0.5544 -0.3522
 9015TIP3    H248537   5.903   2.979   5.343  1.3240 -1.1432 -0.4046
 9016TIP3   OH248538   1.523   0.981   5.307  0.2286  0.1592  0.0717
 9016TIP3    H148539   1.572   0.923   5.364  2.1589  0.9628 -0.6936
 9016TIP3    H248540   1.543   0.951   5.218 -0.5484  0.6142 -0.2737
 9017TIP3   OH248541   4.170   4.761   3.799  0.2023  0.0594  0.2326
 9017TIP3    H148542   4.196   4.787   3.887  0.2383 -1.0695  0.5714
 9017TIP3    H248543   4.092   4.706   3.812 -1.1865  1.7580 -0.6208
 9018TIP3   OH248544   2.766   4.222   5.337 -0.3013 -0.4599  0.3412
 9018TIP3    H148545   2.755   4.317   5.329 -0.5433 -0.5229 -0.0463
 9018TIP3    H248546   2.813   4.211   5.420  0.0524  0.0198  0.2120
 9019TIP3   OH248547   0.959   0.626  15.525  0.2432  0.6456 -0.8653
 9019TIP3    H148548   0.880   0.679  15.517 -0.2624  0.1976  0.8361
 9019TIP3    H248549   0.946   0.574  15.604  1.5571 -0.6171 -1.4183
 9020TIP3   OH248550   6.111   0.475   1.529 -0.0082  0.2665 -0.2795
 9020TIP3    H148551   6.125   0.555   1.580 -0.9091 -0.3266  0.9653
 9020TIP3    H248552   6.159   0.407   1.577  0.0485 -0.1007 -0.8455
 9021TIP3   OH248553   5.885   4.858   0.768 -0.0832  0.0200 -0.1816
 9021TIP3    H148554   5.855   4.781   0.815 -0.3436  0.0236 -0.3405
 9021TIP3    H248555   5.828   4.864   0.691 -0.1209  0.4168 -0.1271
 9022TIP3   OH248556   1.839   6.076  14.669 -0.3534 -0.2017 -0.7819
 9022TIP3    H148557   1.777   6.113  14.732  0.7764 -1.3357  1.0919
 9022TIP3    H248558   1.823   5.982  14.672 -0.1201 -0.2910 -2.0321
 9023TIP3   OH248559   1.273   0.553   4.455 -0.1672 -0.5990  0.0916
 9023TIP3    H148560   1.308   0.584   4.371 -0.8460  1.0523  0.3764
 9023TIP3    H248561   1.190   0.511   4.432  0.4533 -1.6879 -0.2299
 9024TIP3   OH248562   5.529   0.134  13.140  0.0282  0.3489  0.1868
 9024TIP3    H148563   5.553   0.049  13.177 -0.6351 -0.1564 -0.5005
 9024TIP3    H248564   5.477   0.176  13.209 -0.4707 -0.2194  0.1674
 9025TIP3   OH248565   4.617   1.396   2.066  0.2169  0.2296  0.0251
 9025TIP3    H148566   4.650   1.333   2.002  0.2591 -0.0541  0.3236
 9025TIP3    H248567   4.540   1.354   2.105  1.2955 -0.4524  1.5424
 9026TIP3   OH248568   2.000   6.681  10.879 -0.4672 -0.5655  0.3985
 9026TIP3    H148569   1.970   6.680  10.789 -2.2488 -1.8129  0.9622
 9026TIP3    H248570   2.096   6.680  10.873 -0.5554 -0.3340 -1.4390
 9027TIP3   OH248571   0.697   5.860  11.111 -0.1565 -0.3472  0.2022
 9027TIP3    H148572   0.625   5.834  11.054  0.2251 -0.5634 -0.1868
 9027TIP3    H248573   0.665   5.845  11.199 -1.1737  1.0434  0.1084
 9028TIP3   OH248574   4.374   3.063  16.225 -0.2717  0.1831  0.3909
 9028TIP3    H148575   4.308   2.996  16.207  0.6596 -0.9901  1.2601
 9028TIP3    H248576   4.404   3.045  16.314  0.2595  1.5413  0.5151
 9029TIP3   OH248577   0.491   0.682   0.092 -0.1145 -0.2937 -0.4148
 9029TIP3    H148578   0.575   0.642   0.071  0.7660  1.1935  0.1473
 9029TIP3    H248579   0.486   0.679   0.187 -0.2167  0.5441 -0.3851
 9030TIP3   OH248580   4.414   4.435  14.918  0.0597  0.3634 -0.8164
 9030TIP3    H148581   4.484   4.484  14.961  0.2440  0.2674 -1.0102
 9030TIP3    H248582   4.458   4.376  14.858 -0.1418 -0.3669 -0.2554
 9031TIP3   OH248583   4.948   5.048  15.473 -0.4384 -0.1480  0.5323
 9031TIP3    H148584   4.964   5.004  15.390  0.0837  2.2746 -0.7323
 9031TIP3    H248585   4.983   4.988  15.539 -0.1176 -1.7688 -1.0510
 9032TIP3   OH248586   0.867   4.552  12.491 -0.0019 -0.3850  0.3848
 9032TIP3    H148587   0.843   4.477  12.545  0.6056 -0.4814  0.5294
 9032TIP3    H248588   0.834   4.530  12.404 -0.0827 -0.6915  0.4900
 9033TIP3   OH248589   6.673   5.119  12.821 -0.3948 -0.1141  0.0070
 9033TIP3    H148590   6.697   5.212  12.818  3.0969 -0.7414  2.2776
 9033TIP3    H248591   6.599   5.115  12.881 -2.0731  1.3083 -1.8340
 9034TIP3   OH248592   2.789   6.239  14.644 -0.2311 -0.2236 -0.3230
 9034TIP3    H148593   2.866   6.199  14.605 -0.7773 -1.3506 -0.3015
 9034TIP3    H248594   2.749   6.289  14.572  0.7086  0.6773 -0.2302
 9035TIP3   OH248595   5.471   4.530   1.511 -1.1779  0.3173 -0.6136
 9035TIP3    H148596   5.541   4.591   1.490 -0.2079 -0.4060  0.4108
 9035TIP3    H248597   5.419   4.525   1.431  1.2010 -0.8081 -2.1929
 9036TIP3   OH248598   1.297   3.222   1.007  0.2818 -0.2779  0.3521
 9036TIP3    H148599   1.329   3.299   1.054  1.9048 -0.4108 -0.4613
 9036TIP3    H248600   1.328   3.148   1.059 -0.4369 -0.4160  0.6043
 9037TIP3   OH248601   1.859   1.331  16.094 -0.3330  0.5978 -0.3448
 9037TIP3    H148602   1.845   1.242  16.060  1.5734  0.7439 -1.6586
 9037TIP3    H248603   1.800   1.385  16.042 -1.1711  0.1772  0.1465
 9038TIP3   OH248604   4.999   4.430  14.975  0.5651 -0.3846 -0.5992
 9038TIP3    H148605   5.049   4.397  15.049  0.6875  0.3924 -0.3295
 9038TIP3    H248606   4.951   4.353  14.942  0.6409 -0.7654  0.1708
 9039TIP3   OH248607   3.587   0.522  11.692 -0.2628 -0.3050  0.1169
 9039TIP3    H148608   3.643   0.497  11.619 -0.9730  1.5252 -1.1534
 9039TIP3    H248609   3.644   0.573  11.750 -0.2097  0.1743 -0.3457
 9040TIP3   OH248610   6.484   3.152  15.863 -0.1198 -0.3595  0.1338
 9040TIP3    H148611   6.424   3.225  15.852  0.1712  0.0935  1.4218
 9040TIP3    H248612   6.486   3.136  15.957  0.6841 -1.3000 -0.0218
 9041TIP3   OH248613   0.629   3.689  11.745 -0.4241  0.6189  0.0585
 9041TIP3    H148614   0.681   3.621  11.702  0.7440  1.2067  0.4951
 9041TIP3    H248615   0.643   3.675  11.839  0.2636  1.7570  0.1502
 9042TIP3   OH248616   3.860   6.312   3.767 -0.3709 -0.0574 -0.1342
 9042TIP3    H148617   3.838   6.403   3.747 -1.1374  0.0451  1.1158
 9042TIP3    H248618   3.848   6.267   3.683 -1.4353  0.7260 -0.4347
 9043TIP3   OH248619   6.410   6.358  16.070 -0.3192  0.3650 -0.3790
 9043TIP3    H148620   6.361   6.434  16.038  0.0989  1.4493  1.4135
 9043TIP3    H248621   6.360   6.283  16.039 -2.5793  1.4066  0.5197
 9044TIP3   OH248622   3.096   2.391   2.433 -0.2272 -0.0717  0.5097
 9044TIP3    H148623   3.107   2.483   2.458  1.1785  0.2540 -1.1219
 9044TIP3    H248624   3.105   2.343   2.515  1.7438  1.0965  1.0546
 9045TIP3   OH248625   4.308   5.576   2.838  0.4528  0.0102  0.4431
 9045TIP3    H148626   4.312   5.670   2.856 -0.9421 -0.3500  3.2423
 9045TIP3    H248627   4.268   5.570   2.751  0.8183  1.9892  0.0906
 9046TIP3   OH248628   0.640   6.701   3.826  0.4328 -0.0704 -0.3557
 9046TIP3    H148629   0.655   6.765   3.757  1.9484  1.2273  1.0991
 9046TIP3    H248630   0.654   6.616   3.784 -1.0029  0.5329 -2.1698
 9047TIP3   OH248631   6.566   3.025  11.137  0.1671  0.6844 -0.5074
 9047TIP3    H148632   6.596   3.112  11.110  1.2299 -0.2965 -2.7749
 9047TIP3    H248633   6.489   3.008  11.082  0.9553 -0.4362 -1.3094
 9048TIP3   OH248634   0.310   4.666   0.278  0.1064  0.1216 -0.5685
 9048TIP3    H148635   0.341   4.603   0.213 -0.2424  1.8339 -2.4707
 9048TIP3    H248636   0.216   4.649   0.285 -0.1437  0.9404 -1.7142
 9049TIP3   OH248637   1.278   0.260  15.445  0.0332  0.2316  0.3413
 9049TIP3    H148638   1.212   0.314  15.489  1.4464  1.9193  0.4767
 9049TIP3    H248639   1.227   0.204  15.386 -1.4893  1.9289 -0.0326
 9050TIP3   OH248640   5.725   3.993   4.427  0.3976 -0.1512  0.3109
 9050TIP3    H148641   5.772   4.009   4.508  1.6183  0.8645 -0.5489
 9050TIP3    H248642   5.756   3.908   4.397  0.7662 -0.0360  0.3630
 9051TIP3   OH248643   5.291   4.305  16.309 -0.0643 -0.1408  0.0677
 9051TIP3    H148644   5.241   4.362  16.251 -1.9587 -2.6239 -0.9488
 9051TIP3    H248645   5.225   4.250  16.351  1.6460 -2.0730  0.4226
 9052TIP3   OH248646   5.056   3.772   1.453 -0.0033 -0.5567 -0.5592
 9052TIP3    H148647   5.111   3.694   1.441  0.1950 -0.5411  0.2315
 9052TIP3    H248648   5.100   3.840   1.402  1.3012 -0.2710  0.8744
 9053TIP3   OH248649   5.883   4.386  11.818 -0.0018 -0.0535  0.2407
 9053TIP3    H148650   5.962   4.392  11.764 -1.2994  0.4346 -1.7159
 9053TIP3    H248651   5.888   4.299  11.858  1.8768  0.2635  0.7871
 9054TIP3   OH248652   3.398   6.158  17.144 -0.5153  0.0255  0.0259
 9054TIP3    H148653   3.426   6.242  17.182  1.5358 -0.6456  0.1021
 9054TIP3    H248654   3.443   6.092  17.195 -0.1569 -1.0376 -1.5802
 9055TIP3   OH248655   3.938   2.195  16.239 -0.3431  0.8493 -0.0641
 9055TIP3    H148656   3.912   2.108  16.270 -0.5576  1.2891  1.0458
 9055TIP3    H248657   3.917   2.194  16.145  0.0090 -0.4148 -0.1494
 9056TIP3   OH248658   1.218   1.881  15.123  0.3876 -0.3548  0.2882
 9056TIP3    H148659   1.279   1.811  15.102  0.3426 -0.4596  0.4971
 9056TIP3    H248660   1.142   1.836  15.160  0.9189 -0.1157  1.7326
 9057TIP3   OH248661   2.862   4.977  15.385 -0.6325  0.2030 -0.1811
 9057TIP3    H148662   2.910   4.903  15.348 -0.4427  0.4540 -0.4403
 9057TIP3    H248663   2.770   4.952  15.378 -0.6597  0.6249 -1.6797
 9058TIP3   OH248664   1.302   6.020  15.441  0.2879 -0.0389 -0.3784
 9058TIP3    H148665   1.394   5.997  15.428  0.2270 -0.5961  0.1346
 9058TIP3    H248666   1.305   6.110  15.476  0.7438 -0.6505  1.2507
 9059TIP3   OH248667   6.528   6.628  13.645 -0.2937  0.1625  0.1579
 9059TIP3    H148668   6.435   6.616  13.626  0.0075  0.5173 -1.7733
 9059TIP3    H248669   6.572   6.569  13.585  0.7527  0.9241  0.1536
 9060TIP3   OH248670   5.843   4.581  13.865  0.0816 -0.4596  0.3783
 9060TIP3    H148671   5.871   4.571  13.774  2.4122 -1.2279  1.0985
 9060TIP3    H248672   5.784   4.507  13.881  0.9409 -1.2662 -0.0792
 9061TIP3   OH248673   3.439   3.008  15.431 -0.2454  0.6715 -0.2833
 9061TIP3    H148674   3.470   2.931  15.384 -1.4008  0.4914 -0.7893
 9061TIP3    H248675   3.484   3.082  15.389  0.6180  0.3155 -0.0111
 9062TIP3   OH248676   1.091   2.211  13.619  0.0119 -0.3744  0.3688
 9062TIP3    H148677   1.044   2.273  13.675 -2.2325 -2.2870  0.7632
 9062TIP3    H248678   1.158   2.173  13.675  1.3788  1.5426  0.1372
 9063TIP3   OH248679   4.077   3.122  15.966 -0.3018 -0.5411  0.1295
 9063TIP3    H148680   4.042   3.184  15.902 -1.4695 -0.4385  0.8458
 9063TIP3    H248681   4.171   3.140  15.968 -0.4476  0.3405 -0.6020
 9064TIP3   OH248682   4.717   6.211  11.886  0.1309 -0.1171  0.1183
 9064TIP3    H148683   4.800   6.225  11.931 -0.0088  1.0575  0.0308
 9064TIP3    H248684   4.740   6.160  11.808  0.8497  0.6039 -0.1582
 9065TIP3   OH248685   4.047   4.599  15.668  0.1557 -0.3361  0.5543
 9065TIP3    H148686   4.086   4.672  15.620  0.7081 -1.0778 -0.1715
 9065TIP3    H248687   3.987   4.559  15.606  0.0608 -0.6542  0.8498
 9066TIP3   OH248688   5.807   0.538   3.364  0.2405  0.0550 -0.3316
 9066TIP3    H148689   5.810   0.541   3.268  1.3660  1.8016 -0.2953
 9066TIP3    H248690   5.851   0.619   3.392  0.7941 -0.8645  1.6722
 9067TIP3   OH248691   3.404   1.672   2.164 -0.4421  0.4822 -0.3846
 9067TIP3    H148692   3.367   1.605   2.222  0.5867  0.3924  0.1864
 9067TIP3    H248693   3.395   1.635   2.076 -1.0006  0.1295 -0.1839
 9068TIP3   OH248694   2.070   1.262   4.323 -0.1902 -0.4077  0.6869
 9068TIP3    H148695   2.095   1.297   4.408 -3.3793  0.2123  1.4827
 9068TIP3    H248696   2.034   1.175   4.342 -1.4823 -0.0299  0.1081
 9069TIP3   OH248697   4.204   5.823   0.607  0.5241 -0.0871 -0.2734
 9069TIP3    H148698   4.235   5.772   0.682  1.7588  2.7240  1.2408
 9069TIP3    H248699   4.284   5.845   0.559 -0.0139  0.2778 -1.0132
 9070TIP3   OH248700   6.806   4.992   4.779 -0.2719 -0.0820  0.3931
 9070TIP3    H148701   6.734   4.971   4.837 -0.2698  1.4150  0.9790
 9070TIP3    H248702   6.765   5.035   4.704 -0.1360 -0.7489 -0.0753
 9071TIP3   OH248703   0.987   5.828   3.510  0.0055  0.4137  0.3814
 9071TIP3    H148704   0.922   5.883   3.553  0.9237  0.6490  1.5210
 9071TIP3    H248705   1.039   5.889   3.457 -0.6447  0.2315 -0.4978
 9072TIP3   OH248706   4.255   5.509  15.647  0.4836  0.0943  0.1937
 9072TIP3    H148707   4.248   5.569  15.721 -0.0489 -0.4806  0.6328
 9072TIP3    H248708   4.339   5.528  15.608 -0.2460  2.0868 -0.5340
 9073TIP3   OH248709   4.379   3.317  12.473  0.2198  0.2638 -1.0531
 9073TIP3    H148710   4.367   3.323  12.568 -0.7013 -2.3217 -0.9238
 9073TIP3    H248711   4.471   3.339  12.459  0.1154  1.7328  0.2821
 9074TIP3   OH248712   2.892   4.558  16.020  0.1543 -0.4504  0.1572
 9074TIP3    H148713   2.945   4.622  16.068 -0.1189  0.3872 -0.6205
 9074TIP3    H248714   2.820   4.536  16.079 -0.3438  0.7912  0.0417
 9075TIP3   OH248715   4.396   6.178   3.050 -0.2191 -0.2398 -0.5572
 9075TIP3    H148716   4.426   6.236   3.120 -0.1998 -0.4155 -0.4200
 9075TIP3    H248717   4.301   6.192   3.046 -0.6166 -2.0034  1.1455
 9076TIP3   OH248718   1.862   4.447  11.976 -0.4379 -0.2752 -0.2670
 9076TIP3    H148719   1.786   4.423  11.922 -0.6176  0.4066 -0.3210
 9076TIP3    H248720   1.828   4.513  12.036  0.0543 -0.1527 -0.1235
 9077TIP3   OH248721   6.065   0.311  11.710  0.1194  0.5646  0.1089
 9077TIP3    H148722   5.972   0.316  11.728 -0.2893 -1.0512 -1.3078
 9077TIP3    H248723   6.085   0.391  11.662 -0.6635  0.6709 -0.0459
 9078TIP3   OH248724   3.192   0.792  11.862 -0.2745  0.1472  0.2278
 9078TIP3    H148725   3.262   0.727  11.863 -0.5905 -0.1884  0.5002
 9078TIP3    H248726   3.174   0.807  11.769  0.2099  0.2925  0.1560
 9079TIP3   OH248727   1.148   1.233  12.282  0.2083  0.4544 -1.0753
 9079TIP3    H148728   1.137   1.215  12.188  0.3075 -2.3886 -0.6329
 9079TIP3    H248729   1.178   1.150  12.319 -0.3244  1.3450  1.5829
 9080TIP3   OH248730   2.123   1.557  13.606  0.5287  0.2018  0.3974
 9080TIP3    H148731   2.046   1.516  13.646 -0.2858  0.3000 -0.9944
 9080TIP3    H248732   2.153   1.494  13.540  1.1808  0.4964  0.4014
 9081TIP3   OH248733   2.785   4.097   3.752 -0.6526 -0.5315  0.6746
 9081TIP3    H148734   2.830   4.147   3.820 -0.0976  0.7286 -0.5597
 9081TIP3    H248735   2.848   4.093   3.680 -2.3587  1.0695 -1.0129
 9082TIP3   OH248736   3.761   2.645   0.440  0.4488  0.1506  0.1092
 9082TIP3    H148737   3.669   2.649   0.467  0.0464 -0.9231 -1.0166
 9082TIP3    H248738   3.809   2.633   0.522 -0.6233 -1.7203  0.5259
 9083TIP3   OH248739   2.582   5.832  14.682  0.2432 -0.2809  0.7487
 9083TIP3    H148740   2.627   5.861  14.602  0.1342 -0.3275  0.6700
 9083TIP3    H248741   2.631   5.755  14.711  0.4579 -0.0921  0.8882
 9084TIP3   OH248742   5.878   6.757   2.327 -0.4055  0.3611 -0.0400
 9084TIP3    H148743   5.906   6.759   2.235  0.6151  0.7407  0.2620
 9084TIP3    H248744   5.881   6.665   2.351 -2.3005  0.0486 -0.8428
 9085TIP3   OH248745   5.925   2.428   1.207  0.2269 -0.3360 -0.0546
 9085TIP3    H148746   6.006   2.471   1.179 -0.8364  2.2929  0.5672
 9085TIP3    H248747   5.884   2.491   1.267 -0.8564 -2.8562  2.0421
 9086TIP3   OH248748   5.781   6.664  12.169 -0.3560 -0.2177 -0.1524
 9086TIP3    H148749   5.870   6.671  12.203 -0.6675 -0.7549  0.8291
 9086TIP3    H248750   5.745   6.586  12.212 -0.3414 -1.8197 -2.8325
 9087TIP3   OH248751   4.852   3.790   4.540  0.3886  0.0549  0.1435
 9087TIP3    H148752   4.813   3.714   4.497  2.1257 -0.4552 -0.6355
 9087TIP3    H248753   4.877   3.758   4.627  0.7015 -0.1544 -0.0188
 9088TIP3   OH248754   0.192   2.678   2.886 -0.1620  0.5216 -0.3640
 9088TIP3    H148755   0.189   2.714   2.797  1.1049  0.8974 -0.2682
 9088TIP3    H248756   0.283   2.649   2.897 -0.4881 -0.1942  0.5542
 9089TIP3   OH248757   6.551   3.679   5.256 -0.1127  0.0220 -0.1055
 9089TIP3    H148758   6.492   3.656   5.328  2.7678 -0.0269  2.4475
 9089TIP3    H248759   6.518   3.629   5.181 -3.8232  0.8068  0.8372
 9090TIP3   OH248760   0.504   0.863  15.287 -0.6206  0.1995 -0.1496
 9090TIP3    H148761   0.445   0.938  15.275  0.3997  0.8930 -1.0876
 9090TIP3    H248762   0.534   0.870  15.377 -0.1941  1.2046 -0.3550
 9091TIP3   OH248763   6.263   1.192   2.154 -0.0401 -0.4572  0.3178
 9091TIP3    H148764   6.358   1.181   2.152  0.0332  0.2432 -0.1752
 9091TIP3    H248765   6.249   1.271   2.206 -0.3566 -0.5780  0.4187
 9092TIP3   OH248766   5.150   5.422  12.664  0.0580  0.3522 -0.1202
 9092TIP3    H148767   5.058   5.399  12.652  0.2247 -1.2625  1.2929
 9092TIP3    H248768   5.172   5.476  12.587 -1.9700  0.5512 -0.6083
 9093TIP3   OH248769   2.716   6.262  15.547  0.1424  0.2189 -0.4292
 9093TIP3    H148770   2.687   6.333  15.603  1.8831  1.3195 -0.8346
 9093TIP3    H248771   2.798   6.231  15.587  0.3009 -0.3913 -1.1949
 9094TIP3   OH248772   6.656   5.948  14.787  0.6126 -0.5381 -0.0791
 9094TIP3    H148773   6.618   6.024  14.830  0.2497 -0.3446 -0.7318
 9094TIP3    H248774   6.725   5.983  14.732  0.0762 -0.6043 -0.8145
 9095TIP3   OH248775   6.762   6.767  13.737 -0.4344  0.2528  0.5699
 9095TIP3    H148776   6.688   6.710  13.719 -1.1215  0.6052  2.1172
 9095TIP3    H248777   6.820   6.756  13.661 -2.4885  0.7040 -1.1485
 9096TIP3   OH248778   3.575   1.859  11.325  0.8767 -0.1699  1.2614
 9096TIP3    H148779   3.630   1.841  11.249 -0.4610 -0.1203  0.2419
 9096TIP3    H248780   3.630   1.839  11.401  2.2145 -0.2842  0.2833
 9097TIP3   OH248781   5.779   5.291   4.058 -0.3740 -0.0427 -0.5671
 9097TIP3    H148782   5.703   5.341   4.029 -0.5354  0.4913  0.7198
 9097TIP3    H248783   5.813   5.340   4.133  0.9844 -0.5031 -0.8475
 9098TIP3   OH248784   1.269   4.113  13.453  0.0116  0.3750 -0.2636
 9098TIP3    H148785   1.304   4.189  13.501 -0.0153 -0.6122  1.3996
 9098TIP3    H248786   1.302   4.037  13.501 -1.5997 -0.6328 -0.6809
 9099TIP3   OH248787   4.247   2.200   2.686 -0.9606 -1.0041  0.7872
 9099TIP3    H148788   4.205   2.177   2.769  0.0815  3.3123  2.8049
 9099TIP3    H248789   4.297   2.279   2.706  1.6440 -1.3018 -3.3762
 9100TIP3   OH248790   5.673   5.224   5.391 -0.1780 -0.1723 -0.1446
 9100TIP3    H148791   5.761   5.189   5.401  0.5643  1.5101 -0.5727
 9100TIP3    H248792   5.682   5.318   5.405 -1.5401  0.3201 -2.1618
 9101TIP3   OH248793   0.192   5.418  12.958 -0.4102  0.2747 -0.5508
 9101TIP3    H148794   0.269   5.362  12.954 -0.3932  0.0869  1.4337
 9101TIP3    H248795   0.125   5.371  12.910  0.5982  0.2893 -2.0210
 9102TIP3   OH248796   2.563   3.812  14.784 -0.1658 -0.1984 -0.0703
 9102TIP3    H148797   2.549   3.906  14.798  0.8858  0.1813 -1.3376
 9102TIP3    H248798   2.520   3.794  14.700  1.7410 -0.2642 -1.0876
 9103TIP3   OH248799   2.565   1.022   1.343  0.8427  0.4903  1.2385
 9103TIP3    H148800   2.615   1.073   1.406  1.5169  0.7492  0.5007
 9103TIP3    H248801   2.614   0.940   1.334 -0.3352 -0.4173  2.5698
 9104TIP3   OH248802   1.047   1.889  11.541  0.0723  0.0362  0.1950
 9104TIP3    H148803   1.020   1.920  11.454 -1.1222 -2.7367 -0.5459
 9104TIP3    H248804   1.131   1.847  11.526  0.2918  0.3423  0.5652
 9105TIP3   OH248805   5.601   5.729  15.935  0.1509 -0.1713 -0.2889
 9105TIP3    H148806   5.617   5.636  15.949  1.1404 -0.0939 -0.8148
 9105TIP3    H248807   5.651   5.751  15.857 -2.3971  0.1973 -1.9301
 9106TIP3   OH248808   1.022   3.925  14.084  0.5835  0.3250 -0.0180
 9106TIP3    H148809   1.094   3.898  14.027 -0.2424  1.0324 -1.4694
 9106TIP3    H248810   0.945   3.927  14.027 -0.3118  0.9731  1.1501
 9107TIP3   OH248811   0.191   5.278   2.170  0.3511 -0.2315 -0.1495
 9107TIP3    H148812   0.255   5.208   2.159  0.3479 -0.0593 -1.3773
 9107TIP3    H248813   0.123   5.240   2.225  0.5439 -1.0681 -0.4758
 9108TIP3   OH248814   6.793   2.124   2.933  0.7687  0.0883 -0.4469
 9108TIP3    H148815   6.764   2.214   2.921 -0.7395 -0.3466 -0.2366
 9108TIP3    H248816   6.840   2.125   3.017 -0.1221  0.4849  0.0583
 9109TIP3   OH248817   4.855   5.199  12.393  0.2278 -0.2586 -0.2700
 9109TIP3    H148818   4.777   5.163  12.351 -0.7243 -0.4128  1.5508
 9109TIP3    H248819   4.923   5.134  12.376 -0.1381 -0.3717 -1.4334
 9110TIP3   OH248820   3.875   5.933   3.780  0.2898 -0.2749 -0.6220
 9110TIP3    H148821   3.900   5.981   3.701  2.7277  0.8220  0.6948
 9110TIP3    H248822   3.959   5.910   3.821 -0.8731  0.2013  2.2272
 9111TIP3   OH248823   3.677   6.565  16.691  0.2589 -0.1054 -0.8225
 9111TIP3    H148824   3.735   6.593  16.762  0.1420  0.2741 -0.8774
 9111TIP3    H248825   3.670   6.470  16.703 -0.0210 -0.0034 -0.1272
 9112TIP3   OH248826   1.264   1.869  14.394 -0.4329  0.2190  0.6555
 9112TIP3    H148827   1.358   1.855  14.381 -0.5699  0.9481 -1.5120
 9112TIP3    H248828   1.255   1.964  14.404 -0.8890  0.0971  1.4985
 9113TIP3   OH248829   3.931   5.746   4.789 -0.1715 -0.2652  0.7354
 9113TIP3    H148830   3.869   5.798   4.840  0.3463  1.6643 -0.5234
 9113TIP3    H248831   3.879   5.713   4.715  0.1354  0.8756 -0.0090
 9114TIP3   OH248832   1.794   3.666  13.834 -0.0406 -0.2554 -0.0562
 9114TIP3    H148833   1.780   3.587  13.888 -1.1710 -0.2567 -0.3270
 9114TIP3    H248834   1.735   3.655  13.760 -0.9620  1.3028  0.3979
 9115TIP3   OH248835   6.478   4.725   2.464 -0.2951  0.1077 -0.0642
 9115TIP3    H148836   6.462   4.789   2.533 -0.0411 -0.5039  0.5776
 9115TIP3    H248837   6.392   4.707   2.427 -0.7588 -1.1578  1.5472
 9116TIP3   OH248838   3.499   6.612   3.575  0.3127 -0.3624 -0.1791
 9116TIP3    H148839   3.485   6.697   3.617  2.8006  0.7682 -1.4358
 9116TIP3    H248840   3.427   6.557   3.608 -1.3734  2.1733  0.7067
 9117TIP3   OH248841   6.178   2.229  14.076 -0.4325 -0.5100 -0.2039
 9117TIP3    H148842   6.260   2.183  14.054 -1.1312 -2.1615  0.4704
 9117TIP3    H248843   6.170   2.297  14.009  0.3244 -1.8033 -1.6811
 9118TIP3   OH248844   0.049   1.624  16.736 -0.7826  0.4082  0.5059
 9118TIP3    H148845   0.087   1.608  16.822 -0.0076  1.1321  0.3056
 9118TIP3    H248846   0.124   1.641  16.679 -1.3590  1.2050 -0.0368
 9119TIP3   OH248847   5.546   1.940  12.509 -0.4381  0.2356 -0.3049
 9119TIP3    H148848   5.576   1.873  12.448  1.1080 -0.4772  1.1495
 9119TIP3    H248849   5.452   1.925  12.519 -0.0646 -2.0129  0.2770
 9120TIP3   OH248850   3.322   2.446  14.077  0.9488 -0.4637 -0.3376
 9120TIP3    H148851   3.393   2.460  14.015  1.1726  2.5827  0.4713
 9120TIP3    H248852   3.345   2.500  14.153 -1.6438 -0.2930  0.4118
 9121TIP3   OH248853   4.905   6.669  14.327  0.2656  0.8730 -0.1771
 9121TIP3    H148854   4.970   6.736  14.306  2.0292 -0.1127  1.6770
 9121TIP3    H248855   4.934   6.591  14.279 -0.6051  0.8893 -0.7461
 9122TIP3   OH248856   1.442   0.117   1.968  0.6717 -0.5713 -0.7977
 9122TIP3    H148857   1.373   0.085   2.026  0.2030 -0.3532 -1.2323
 9122TIP3    H248858   1.451   0.210   1.989  3.5540 -1.3040  2.0413
 9123TIP3   OH248859   3.951   1.851  11.948  0.6360 -0.5622  0.2434
 9123TIP3    H148860   4.005   1.846  11.869  1.8124 -0.2328  1.0006
 9123TIP3    H248861   3.861   1.849  11.915  1.0882  0.8182 -1.1939
 9124TIP3   OH248862   1.976   5.917   2.410  0.5219  0.0111 -0.2898
 9124TIP3    H148863   2.014   5.844   2.360 -0.3261 -0.2304 -0.6023
 9124TIP3    H248864   2.038   5.933   2.481 -0.3255 -2.5327  1.1735
 9125TIP3   OH248865   0.871   0.577   6.542 -0.3730  0.2813 -0.1084
 9125TIP3    H148866   0.798   0.596   6.601  0.8710  0.4576  1.4403
 9125TIP3    H248867   0.904   0.664   6.516 -1.4981  0.2222 -1.8775
 9126TIP3   OH248868   5.316   3.965  14.578 -0.3726 -0.2317 -0.2030
 9126TIP3    H148869   5.270   3.882  14.569 -0.1660 -0.4316  0.5216
 9126TIP3    H248870   5.338   3.970  14.671 -1.2454  1.0975 -0.0496
 9127TIP3   OH248871   5.485   1.759   5.771 -0.5182 -0.5847 -0.2478
 9127TIP3    H148872   5.473   1.822   5.700 -1.6554 -0.8327 -0.2836
 9127TIP3    H248873   5.575   1.774   5.800 -1.2609  2.3183  0.9285
 9128TIP3   OH248874   0.379   2.452   1.686  0.3879  0.4305 -0.4897
 9128TIP3    H148875   0.390   2.526   1.626 -1.1437  0.7276 -0.4416
 9128TIP3    H248876   0.398   2.488   1.773 -0.5469  0.8403 -0.4416
 9129TIP3   OH248877   0.692   3.733   4.813 -0.1322 -0.0086 -0.1410
 9129TIP3    H148878   0.771   3.743   4.866  0.2497 -0.9268 -0.4971
 9129TIP3    H248879   0.690   3.639   4.792 -0.9082  0.1374 -0.7578
 9130TIP3   OH248880   3.785   6.097  13.419 -0.9200  0.1371  0.1481
 9130TIP3    H148881   3.764   6.183  13.455 -0.4664 -0.2776  1.4328
 9130TIP3    H248882   3.744   6.097  13.332 -0.5928  1.7840 -0.0293
 9131TIP3   OH248883   0.755   3.641  14.443  0.2091  0.1017 -0.0940
 9131TIP3    H148884   0.795   3.678  14.364  0.0303  2.7326  0.9575
 9131TIP3    H248885   0.806   3.561  14.461 -1.1629 -1.9497 -4.0719
 9132TIP3   OH248886   5.927   4.909  15.979 -0.3605 -0.0659 -0.3972
 9132TIP3    H148887   5.991   4.840  15.993 -0.1040  0.2495  0.0271
 9132TIP3    H248888   5.843   4.868  16.000 -0.2299 -0.2998 -0.3261
 9133TIP3   OH248889   1.833   5.044   3.095 -0.8394  0.3756  0.0614
 9133TIP3    H148890   1.833   5.095   3.176  0.4423 -0.4792  0.6414
 9133TIP3    H248891   1.874   5.102   3.030  4.6322 -1.0951  1.6782
 9134TIP3   OH248892   0.513   6.504   5.994  0.4239 -0.1594  0.2821
 9134TIP3    H148893   0.544   6.595   5.994  1.1406 -0.3946  0.1193
 9134TIP3    H248894   0.558   6.464   6.068 -0.0205 -0.3425  0.4538
 9135TIP3   OH248895   2.825   2.087   5.818 -0.4893 -0.8771  0.2134
 9135TIP3    H148896   2.812   2.084   5.723 -0.1962 -1.5191  0.1866
 9135TIP3    H248897   2.805   1.998   5.847  0.1882 -0.8894  0.6542
 9136TIP3   OH248898   4.896   5.015   0.211 -0.2556 -0.1582  0.6287
 9136TIP3    H148899   4.959   4.951   0.178 -0.6865 -0.4154  0.2798
 9136TIP3    H248900   4.917   5.025   0.304  2.4703  2.2910 -0.1029
 9137TIP3   OH248901   4.508   2.505   2.954  0.1683 -0.2094  0.2679
 9137TIP3    H148902   4.432   2.560   2.974  1.8201  1.6242  1.8432
 9137TIP3    H248903   4.570   2.524   3.024  1.2501 -3.3745  0.2949
 9138TIP3   OH248904   3.626   4.457   6.303  0.2918 -0.6770 -0.0901
 9138TIP3    H148905   3.581   4.374   6.293  1.0415 -1.1956  0.7695
 9138TIP3    H248906   3.569   4.509   6.360 -0.2946 -0.4901 -0.8228
 9139TIP3   OH248907   2.029   3.606  14.937  0.2831 -0.5713  0.4495
 9139TIP3    H148908   2.112   3.628  14.896  0.6851 -3.9280 -0.8668
 9139TIP3    H248909   2.018   3.671  15.007  3.0309  1.0955 -0.5287
 9140TIP3   OH248910   6.429   5.139   3.226 -0.2820 -0.6198 -0.0186
 9140TIP3    H148911   6.376   5.216   3.205 -0.1691 -0.8795 -1.3351
 9140TIP3    H248912   6.384   5.067   3.181  1.6980 -0.6929 -2.0050
 9141TIP3   OH248913   5.042   6.557  14.904  0.1032  0.0979  0.0571
 9141TIP3    H148914   5.031   6.621  14.973 -1.2152  1.1855 -1.1081
 9141TIP3    H248915   4.993   6.592  14.830  1.1536 -1.1960 -1.3321
 9142TIP3   OH248916   5.643   0.109  15.744  0.0237  0.0525  0.5486
 9142TIP3    H148917   5.621   0.200  15.728 -2.6749 -0.5722  0.2669
 9142TIP3    H248918   5.677   0.108  15.834 -1.8458  1.0793  1.3067
 9143TIP3   OH248919   5.861   6.609  10.854 -1.0580  0.1082  0.0684
 9143TIP3    H148920   5.782   6.653  10.824 -1.2123 -0.5817 -0.5754
 9143TIP3    H248921   5.886   6.552  10.781  1.0963  1.6796 -0.4995
 9144TIP3   OH248922   2.562   6.196  12.278 -0.0224 -0.4108 -0.2511
 9144TIP3    H148923   2.648   6.227  12.248 -0.6056  1.3535 -0.2435
 9144TIP3    H248924   2.533   6.135  12.211  1.4392 -1.4405 -0.0000
 9145TIP3   OH248925   4.970   6.370  13.004  0.3838  0.0895  0.4251
 9145TIP3    H148926   4.888   6.327  13.029  1.3943 -1.6126  1.0143
 9145TIP3    H248927   4.989   6.337  12.917 -1.2255  3.1390 -1.2370
 9146TIP3   OH248928   5.499   0.047  16.514  0.4288 -0.1652 -0.4635
 9146TIP3    H148929   5.593   0.063  16.504  0.6847 -1.6032 -0.5534
 9146TIP3    H248930   5.483  -0.032  16.463 -0.9094  0.2559 -0.7208
 9147TIP3   OH248931   1.403   4.696  15.688 -0.2098 -0.3803 -0.0320
 9147TIP3    H148932   1.333   4.653  15.737  0.3159  0.7494  1.8103
 9147TIP3    H248933   1.358   4.742  15.617 -1.2212 -0.4813  0.5275
 9148TIP3   OH248934   0.080   4.051   0.951  0.4650 -0.0114  0.5985
 9148TIP3    H148935   0.124   4.125   0.909 -1.2598  1.1950  0.8436
 9148TIP3    H248936   0.107   3.975   0.899  1.8711  0.8366  0.0374
 9149TIP3   OH248937   5.605   2.392  14.102 -0.2111 -0.0042 -0.5409
 9149TIP3    H148938   5.585   2.434  14.018 -0.5283 -1.6855 -1.3521
 9149TIP3    H248939   5.701   2.390  14.105 -0.1967  0.2269 -0.7643
 9150TIP3   OH248940   0.730   5.119  13.801 -0.1293  0.5099  0.1213
 9150TIP3    H148941   0.655   5.150  13.850 -0.4164  1.5203 -0.9245
 9150TIP3    H248942   0.797   5.101  13.867 -1.2186 -0.2495  1.0422
 9151TIP3   OH248943   3.025   4.364   1.413  0.1466 -0.3150 -0.0129
 9151TIP3    H148944   2.947   4.417   1.394  1.5500  1.8450 -0.1723
 9151TIP3    H248945   3.067   4.352   1.328  2.4043  2.7191  0.4878
 9152TIP3   OH248946   3.380   6.428   4.860 -0.1380 -0.1517 -0.2077
 9152TIP3    H148947   3.324   6.368   4.809  0.6343 -1.7548  0.7395
 9152TIP3    H248948   3.464   6.427   4.814  0.0202 -0.1782  0.0821
 9153TIP3   OH248949   1.297   3.011   5.070 -0.0557  0.5305  0.2182
 9153TIP3    H148950   1.318   3.067   4.995 -0.2516  0.4072  0.0679
 9153TIP3    H248951   1.274   3.073   5.140  1.7597  0.7127  0.7114
 9154TIP3   OH248952   3.800   6.232  12.904 -0.0329  0.0705  0.5826
 9154TIP3    H148953   3.793   6.137  12.890 -0.7990  0.0262  1.1712
 9154TIP3    H248954   3.881   6.257  12.860 -0.9282 -0.4965 -1.4873
 9155TIP3   OH248955   6.403   1.878   1.139  0.0943 -0.1452 -0.0878
 9155TIP3    H148956   6.497   1.877   1.123  0.3569 -0.9753  1.2983
 9155TIP3    H248957   6.367   1.818   1.074  0.2692  1.5106 -1.7836
 9156TIP3   OH248958   6.794   0.058  13.263  0.3719  1.1791 -0.3089
 9156TIP3    H148959   6.848   0.097  13.194 -0.6616  0.4069 -1.5951
 9156TIP3    H248960   6.846   0.069  13.343  1.5346  2.2353 -1.1643
 9157TIP3   OH248961   3.745   2.662   4.982 -0.0687 -0.1736 -0.0814
 9157TIP3    H148962   3.797   2.705   5.051 -1.8312  1.3312  0.4002
 9157TIP3    H248963   3.807   2.648   4.911  1.1402  1.0059  0.6854
 9158TIP3   OH248964   5.461   0.995   5.378  0.8076  0.2254  0.1127
 9158TIP3    H148965   5.474   0.959   5.290  1.3505 -0.4779  0.4727
 9158TIP3    H248966   5.404   1.071   5.365  0.6275 -0.0592 -0.8089
 9159TIP3   OH248967   3.871   0.615   0.558 -0.6035  0.2163 -0.1407
 9159TIP3    H148968   3.935   0.545   0.548 -1.2937 -0.5607  0.7111
 9159TIP3    H248969   3.804   0.596   0.491 -0.3281  0.5977 -0.5279
 9160TIP3   OH248970   3.948   6.729   0.476  0.0864  0.3726 -0.3226
 9160TIP3    H148971   3.958   6.765   0.387  1.6400  2.7040  0.6865
 9160TIP3    H248972   4.036   6.700   0.500 -0.2124  0.2196  0.6297
 9161TIP3   OH248973   4.136   5.140   5.559  0.8780  0.0950  0.2135
 9161TIP3    H148974   4.214   5.195   5.566 -0.6274  2.3513  0.0423
 9161TIP3    H248975   4.063   5.198   5.580 -0.7871 -1.9727  0.5065
 9162TIP3   OH248976   4.885   1.473   4.778 -0.8294  0.1280 -0.5541
 9162TIP3    H148977   4.867   1.567   4.779  0.1551  0.3432  1.7260
 9162TIP3    H248978   4.950   1.459   4.846 -2.8438 -2.5542  1.0551
 9163TIP3   OH248979   0.916   5.693  11.167 -0.6206  0.0719 -0.0437
 9163TIP3    H148980   0.958   5.679  11.082  0.2316  1.0182  0.1955
 9163TIP3    H248981   0.832   5.734  11.147  0.1556  1.5637 -0.4039
 9164TIP3   OH248982   2.066   1.439   2.338  0.2298  0.0520  0.2560
 9164TIP3    H148983   2.091   1.427   2.430 -1.5018 -0.2943  0.7263
 9164TIP3    H248984   2.043   1.532   2.332 -3.4195 -0.6237  1.2794
 9165TIP3   OH248985   5.121   6.399  11.567 -0.5248 -0.3933 -0.4642
 9165TIP3    H148986   5.184   6.471  11.557 -0.4301 -0.5031 -0.6735
 9165TIP3    H248987   5.061   6.409  11.493 -1.0808  0.0322  0.0375
 9166TIP3   OH248988   5.611   0.256   4.861 -0.1665  0.6684  0.7228
 9166TIP3    H148989   5.702   0.226   4.871  0.0383  1.3149  0.8169
 9166TIP3    H248990   5.588   0.231   4.771  0.6387  1.9014  0.1492
 9167TIP3   OH248991   0.780   2.103  16.665 -0.4279 -0.0785 -0.4472
 9167TIP3    H148992   0.766   2.061  16.750 -0.7154  0.4206 -0.2393
 9167TIP3    H248993   0.691   2.116  16.630 -0.5291  2.3466  0.5005
 9168TIP3   OH248994   4.999   4.468  14.213  0.4630 -0.5868 -0.6149
 9168TIP3    H148995   4.986   4.532  14.282 -1.3101 -0.3547 -1.1034
 9168TIP3    H248996   5.066   4.408  14.247  0.1558 -0.0580  0.9816
 9169TIP3   OH248997   4.467   1.336  11.327  0.0576 -0.5378 -0.0961
 9169TIP3    H148998   4.438   1.421  11.359  1.4517  0.4026 -1.2189
 9169TIP3    H248999   4.493   1.288  11.406 -1.3929 -0.2166  0.6063
 9170TIP3   OH249000   5.051   5.825  11.948 -0.2662  0.3555 -0.0099
 9170TIP3    H149001   5.017   5.797  11.863 -3.2173  0.8945  0.8628
 9170TIP3    H249002   5.015   5.762  12.011 -1.5142  2.1704  1.2147
 9171TIP3   OH249003   6.202   1.666  11.737  0.3913  0.3939  0.1431
 9171TIP3    H149004   6.274   1.723  11.713 -0.2068  0.4533 -1.7115
 9171TIP3    H249005   6.169   1.633  11.653 -0.8872 -0.6664  1.0193
 9172TIP3   OH249006   6.100   0.125  16.410  0.2270 -0.0448  0.2527
 9172TIP3    H149007   6.109   0.118  16.315  2.4603 -0.6280  0.4529
 9172TIP3    H249008   6.131   0.041  16.443 -1.3074 -0.1667  1.4964
 9173TIP3   OH249009   4.416   4.039  10.615 -0.1777  0.1013 -0.1833
 9173TIP3    H149010   4.471   4.062  10.540 -0.3564  0.3551 -0.2389
 9173TIP3    H249011   4.393   4.123  10.654  0.2121 -0.0477  0.3722
 9174TIP3   OH249012   0.847   3.743   4.131  0.1314 -0.4384 -0.3782
 9174TIP3    H149013   0.895   3.819   4.097  1.0215  0.1143  1.9572
 9174TIP3    H249014   0.758   3.755   4.098  0.7835  0.3102 -2.0287
 9175TIP3   OH249015   2.231   3.061  12.246  0.3959  0.5583  0.6887
 9175TIP3    H149016   2.143   3.080  12.212 -0.9384  0.0317  3.5736
 9175TIP3    H249017   2.289   3.071  12.170 -1.9699  2.2008 -1.0254
 9176TIP3   OH249018   0.209   5.247   1.153  0.1223 -0.3153 -0.1982
 9176TIP3    H149019   0.214   5.163   1.199 -0.0072 -1.0729 -1.4848
 9176TIP3    H249020   0.205   5.222   1.060  0.7397  1.1460 -0.6384
 9177TIP3   OH249021   4.636   1.273   3.549  0.2153 -0.1092 -0.2662
 9177TIP3    H149022   4.641   1.350   3.493  1.4664  0.1072  0.1152
 9177TIP3    H249023   4.694   1.209   3.508 -0.8549 -0.8861 -0.6083
 9178TIP3   OH249024   4.179   3.696  13.045  0.2262  0.4258  0.2649
 9178TIP3    H149025   4.111   3.648  12.996 -1.1167  1.6667  0.8669
 9178TIP3    H249026   4.261   3.668  13.004 -0.3776 -2.9518  1.0339
 9179TIP3   OH249027   5.193   3.550   3.806 -0.4011  0.3317 -0.1453
 9179TIP3    H149028   5.128   3.535   3.737 -0.0279  1.6587 -0.8114
 9179TIP3    H249029   5.274   3.569   3.759  0.5338 -1.4273  0.6789
 9180TIP3   OH249030   5.272   2.265  16.722  0.7581 -0.1328  0.1291
 9180TIP3    H149031   5.191   2.317  16.716  0.1242 -1.1930 -1.1705
 9180TIP3    H249032   5.337   2.326  16.756 -0.5023  0.8511  0.8673
 9181TIP3   OH249033   5.784   2.549   0.521  0.6210 -0.1020  0.4492
 9181TIP3    H149034   5.824   2.525   0.437 -3.3540 -1.1695 -1.4365
 9181TIP3    H249035   5.784   2.467   0.571 -1.0982 -0.7985 -0.5577
 9182TIP3   OH249036   3.672   5.254  15.688  0.3283  0.1119 -0.3235
 9182TIP3    H149037   3.590   5.208  15.702  0.0099  0.6735 -0.3356
 9182TIP3    H249038   3.710   5.214  15.610  0.9467 -1.3876  0.6787
 9183TIP3   OH249039   6.539   2.937   2.809 -0.3010 -0.2097 -0.1379
 9183TIP3    H149040   6.544   2.932   2.714 -3.8881 -2.5873 -0.3817
 9183TIP3    H249041   6.611   2.882   2.840  1.4882  1.3277 -1.3485
 9184TIP3   OH249042   0.931   0.345   5.518  0.0491  0.2162 -0.1436
 9184TIP3    H149043   0.968   0.257   5.528  0.2074  0.1474 -1.1978
 9184TIP3    H249044   0.848   0.342   5.566 -1.0301 -1.1966 -1.9766
 9185TIP3   OH249045   5.668   5.778  10.567 -0.3291  0.5180 -0.1115
 9185TIP3    H149046   5.620   5.835  10.628 -0.8437  0.6225 -0.6007
 9185TIP3    H249047   5.615   5.779  10.488 -0.7610 -1.2666  0.1225
 9186TIP3   OH249048   2.470   4.464   6.315  0.0934 -0.8033  0.0477
 9186TIP3    H149049   2.408   4.393   6.326 -0.6023 -0.3891 -1.0524
 9186TIP3    H249050   2.417   4.544   6.319  0.8134 -0.3501  0.9262
 9187TIP3   OH249051   0.335   4.388  11.857 -0.4058  0.1527 -0.2367
 9187TIP3    H149052   0.377   4.411  11.774  0.1877  0.4920  0.1498
 9187TIP3    H249053   0.319   4.472  11.900  0.9998 -0.0795  0.8188
 9188TIP3   OH249054   2.904   4.070   2.861  0.2665 -0.0168  0.5753
 9188TIP3    H149055   2.951   4.038   2.938  0.1864 -0.8534  0.2927
 9188TIP3    H249056   2.966   4.057   2.789 -0.2436 -0.7608  0.2623
 9189TIP3   OH249057   3.270   6.822  12.186 -0.0262 -0.7654 -0.9234
 9189TIP3    H149058   3.267   6.765  12.263  0.5111  0.0423 -0.2827
 9189TIP3    H249059   3.312   6.902  12.217 -1.3608  0.2496 -1.6387
 9190TIP3   OH249060   6.019   0.459   3.031  0.5917  0.3072  0.4770
 9190TIP3    H149061   5.940   0.508   3.008 -0.0875 -0.7483  0.4981
 9190TIP3    H249062   5.995   0.412   3.111  2.3945  2.7228  2.6440
 9191TIP3   OH249063   5.252   1.163  15.237  0.0944  0.0834  0.2417
 9191TIP3    H149064   5.260   1.239  15.180 -0.4453 -1.1129 -1.5498
 9191TIP3    H249065   5.177   1.183  15.294  0.2902  1.0798  0.1626
 9192TIP3   OH249066   3.914   3.028  13.876  0.3659 -0.7226  0.3593
 9192TIP3    H149067   3.986   3.075  13.834 -1.0318  0.2011 -1.1431
 9192TIP3    H249068   3.922   3.049  13.969  1.3297  0.3248  0.0602
 9193TIP3   OH249069   4.227   6.046   4.444 -0.4670  0.0396 -0.1174
 9193TIP3    H149070   4.263   6.058   4.532 -0.8251 -0.8533  0.1615
 9193TIP3    H249071   4.132   6.047   4.457 -0.5243 -0.9066 -0.3566
 9194TIP3   OH249072   6.629   3.054   5.513  0.0779 -0.4782 -0.0038
 9194TIP3    H149073   6.703   3.082   5.566 -0.5049  0.0460  0.5468
 9194TIP3    H249074   6.559   3.114   5.536 -0.3904 -0.6717 -0.8657
 9195TIP3   OH249075   1.638   3.229   6.399 -0.1716  0.1961 -0.1423
 9195TIP3    H149076   1.647   3.239   6.494 -1.8363 -1.5399  0.2670
 9195TIP3    H249077   1.725   3.247   6.364  1.5451 -2.8536  2.0863
 9196TIP3   OH249078   6.580   6.514  14.595 -0.2063  0.0076  0.1675
 9196TIP3    H149079   6.492   6.480  14.611 -0.4296 -0.7479 -2.2198
 9196TIP3    H249080   6.567   6.582  14.529  1.0720 -0.8554 -1.0329
 9197TIP3   OH249081   4.227   6.794  12.389  0.0464  0.0032 -0.0351
 9197TIP3    H149082   4.281   6.841  12.325 -1.3220  0.0206 -1.2261
 9197TIP3    H249083   4.247   6.701  12.374 -1.0708 -0.0630 -1.2906
 9198TIP3   OH249084   2.594   2.551   4.822 -0.5528  0.2040 -0.2972
 9198TIP3    H149085   2.585   2.643   4.799 -0.4938  0.0911 -0.7885
 9198TIP3    H249086   2.629   2.551   4.911 -0.3394  0.6549 -0.3823
 9199TIP3   OH249087   4.037   1.446  12.755  0.7422 -0.2572 -0.3379
 9199TIP3    H149088   4.089   1.510  12.707 -1.2721  1.8083  0.0682
 9199TIP3    H249089   4.075   1.445  12.843  1.3485 -0.3193 -0.5983
 9200TIP3   OH249090   0.979   4.844  14.740 -0.0016  0.1504 -0.1342
 9200TIP3    H149091   1.012   4.756  14.759  1.4248  0.4759 -0.9823
 9200TIP3    H249092   0.956   4.841  14.647  2.5734  1.3773 -0.8980
 9201TIP3   OH249093   5.340   0.838   4.334 -0.0426 -0.0925 -0.0479
 9201TIP3    H149094   5.294   0.884   4.263  0.7607 -0.9205 -1.1408
 9201TIP3    H249095   5.367   0.907   4.394  0.7575  0.8352 -1.4206
 9202TIP3   OH249096   3.999   2.389  13.404  0.8321 -0.1084  0.9428
 9202TIP3    H149097   3.925   2.449  13.417  0.0149 -0.3121 -1.9131
 9202TIP3    H249098   4.062   2.414  13.471 -1.9743 -0.2761  3.9214
 9203TIP3   OH249099   2.331   6.317  15.009 -0.0728 -0.7699 -0.5054
 9203TIP3    H149100   2.371   6.346  14.927  0.8858  0.1379  0.2576
 9203TIP3    H249101   2.237   6.315  14.991  0.0842  0.0008 -1.4511
 9204TIP3   OH249102   5.367   1.569   5.616 -0.2558  0.2012  0.1950
 9204TIP3    H149103   5.420   1.634   5.661 -1.0624  1.9343 -1.2114
 9204TIP3    H249104   5.425   1.495   5.602  0.9197  0.9056  1.1673
 9205TIP3   OH249105   1.729   6.106  15.112  0.3082  0.8164  0.0264
 9205TIP3    H149106   1.656   6.071  15.062  1.5638 -1.3015 -0.4204
 9205TIP3    H249107   1.690   6.130  15.197 -0.9287 -0.0846 -0.2582
 9206TIP3   OH249108   5.776   3.329   2.393  0.1252  0.0314  0.2109
 9206TIP3    H149109   5.765   3.234   2.401  0.7500 -0.0840 -0.2582
 9206TIP3    H249110   5.727   3.365   2.468 -2.5372 -0.4781 -1.1454
 9207TIP3   OH249111   5.251   6.508  12.955 -0.5530 -0.1517 -0.1471
 9207TIP3    H149112   5.226   6.418  12.976 -0.2386  0.3265  2.5682
 9207TIP3    H249113   5.206   6.526  12.872 -2.7196 -1.9625  0.5318
 9208TIP3   OH249114   1.833   3.606  15.692 -0.0365 -0.5158  0.3751
 9208TIP3    H149115   1.754   3.558  15.717 -0.8405  0.7439  0.3739
 9208TIP3    H249116   1.833   3.605  15.597 -0.5323  0.1879  0.3556
 9209TIP3   OH249117   4.767   0.914  12.413 -0.9811  0.3066 -0.1449
 9209TIP3    H149118   4.798   0.829  12.442 -2.5188 -0.0524  0.5129
 9209TIP3    H249119   4.745   0.902  12.321 -0.7674  0.1117 -0.1694
 9210TIP3   OH249120   2.897   5.582   5.445 -0.2723  0.0374  0.5748
 9210TIP3    H149121   2.980   5.618   5.477  1.2671 -2.6180 -0.1183
 9210TIP3    H249122   2.852   5.553   5.524  0.4792 -0.4515  0.8402
 9211TIP3   OH249123   5.320   2.126   0.471  0.4786 -0.5690  0.0035
 9211TIP3    H149124   5.231   2.119   0.505  0.7942 -2.3538  0.6180
 9211TIP3    H249125   5.347   2.215   0.492 -1.5022  0.3741 -1.1400
 9212TIP3   OH249126   1.515   6.274   0.430  0.1285  0.1363  0.3724
 9212TIP3    H149127   1.439   6.310   0.385 -0.5384 -0.6360  0.8579
 9212TIP3    H249128   1.578   6.254   0.360 -1.1341 -1.6379 -0.3110
 9213TIP3   OH249129   2.048   5.822   5.602 -0.1146  0.1738 -0.3281
 9213TIP3    H149130   1.964   5.843   5.643 -0.2156  1.0996 -0.9627
 9213TIP3    H249131   2.025   5.786   5.517  0.1248  0.0931 -0.3585
 9214TIP3   OH249132   6.385   5.756   4.563 -0.4980  0.0300 -0.3419
 9214TIP3    H149133   6.352   5.757   4.652 -0.0020 -1.5761 -0.1003
 9214TIP3    H249134   6.394   5.663   4.542 -1.2180  0.3571 -2.3102
 9215TIP3   OH249135   4.947   1.688   0.941 -0.2556 -0.3917  0.3196
 9215TIP3    H149136   5.027   1.732   0.971 -0.3024 -1.2904  1.8840
 9215TIP3    H249137   4.916   1.742   0.868  1.5842  0.1685 -0.1153
 9216TIP3   OH249138   5.390   0.635   2.668  0.1799 -0.0634  0.3177
 9216TIP3    H149139   5.393   0.729   2.651  0.3484 -0.0554  0.3877
 9216TIP3    H249140   5.314   0.604   2.619 -0.3064  0.2276  0.8759
 9217TIP3   OH249141   5.630   4.851  12.809  0.0127 -0.6809 -0.3133
 9217TIP3    H149142   5.564   4.847  12.878 -0.8081 -0.8546 -1.0919
 9217TIP3    H249143   5.648   4.945  12.798 -0.1134 -0.6331 -0.1027
 9218TIP3   OH249144   3.822   2.830   2.986 -0.1956 -0.8860 -0.2726
 9218TIP3    H149145   3.782   2.744   2.978 -2.0814  0.0812 -2.0224
 9218TIP3    H249146   3.761   2.880   3.041  0.1815 -0.2719 -0.4000
 9219TIP3   OH249147   5.478   6.650   1.046 -0.4460 -1.1583 -0.3569
 9219TIP3    H149148   5.383   6.641   1.041 -0.5118  0.0068 -2.3143
 9219TIP3    H249149   5.494   6.743   1.028  1.1052 -1.4968 -0.8844
 9220TIP3   OH249150   1.128   5.532   4.813 -0.6946  0.0803  0.7153
 9220TIP3    H149151   1.054   5.540   4.874 -1.5508 -2.5619  0.1741
 9220TIP3    H249152   1.105   5.456   4.759  3.1578 -1.9998  1.6314
 9221TIP3   OH249153   5.637   4.608   4.688 -0.6472  0.4124 -0.0681
 9221TIP3    H149154   5.707   4.556   4.727 -0.6910 -0.4463 -1.0965
 9221TIP3    H249155   5.683   4.681   4.645 -0.3406 -0.2429 -0.8893
 9222TIP3   OH249156   0.170   4.734   4.974 -0.0933 -0.0299  0.3181
 9222TIP3    H149157   0.180   4.648   5.014 -0.0591  0.9114  2.4203
 9222TIP3    H249158   0.259   4.762   4.955 -0.0886 -0.3242 -0.1134
 9223TIP3   OH249159   5.303   0.512  15.368 -0.1349  0.1003 -0.1934
 9223TIP3    H149160   5.367   0.451  15.332  0.0101  1.8246 -3.2492
 9223TIP3    H249161   5.352   0.564  15.432  0.4483 -1.0993  0.3562
 9224TIP3   OH249162   4.336   0.349   5.518 -0.2067  0.0116 -1.1589
 9224TIP3    H149163   4.333   0.380   5.427  0.1053 -0.4424 -1.3284
 9224TIP3    H249164   4.282   0.411   5.566  0.5301  0.9070 -1.4659
 9225TIP3   OH249165   6.321   5.385  11.132  0.6425 -0.0493  0.3719
 9225TIP3    H149166   6.262   5.429  11.070  0.6736 -0.1175  0.2925
 9225TIP3    H249167   6.268   5.374  11.211  0.3833 -0.5563  0.1365
 9226TIP3   OH249168   1.075   6.293   1.531 -0.3991 -1.0416  0.5995
 9226TIP3    H149169   1.047   6.210   1.571  0.4725 -0.9258  1.5087
 9226TIP3    H249170   1.134   6.331   1.596 -0.6123  0.1906  0.0888
 9227TIP3   OH249171   6.606   6.166   3.543  0.9308  0.0656  0.2691
 9227TIP3    H149172   6.645   6.133   3.624  0.8234 -0.4636  0.1093
 9227TIP3    H249173   6.606   6.090   3.485 -0.8183 -0.0856  0.4342
 9228TIP3   OH249174   3.838   3.103   3.958  0.1124  0.3009 -0.8213
 9228TIP3    H149175   3.795   3.072   3.878  0.0647  0.1070 -0.7203
 9228TIP3    H249176   3.851   3.197   3.943 -1.1046  0.5330 -0.5191
 9229TIP3   OH249177   5.271   3.546   4.833  0.4223  0.3491 -0.8560
 9229TIP3    H149178   5.308   3.611   4.892 -0.2379  0.2490 -0.3094
 9229TIP3    H249179   5.207   3.594   4.781  0.0621  0.1885 -0.5735
 9230TIP3   OH249180   3.333   3.372   2.908 -0.6014  0.1724  0.2336
 9230TIP3    H149181   3.261   3.400   2.965 -0.7897  0.9331 -0.3478
 9230TIP3    H249182   3.294   3.371   2.820  0.0809  0.5207 -0.0798
 9231TIP3   OH249183   1.597   0.475   4.067 -0.3373 -0.0930  0.3226
 9231TIP3    H149184   1.615   0.512   3.981 -1.4391 -2.2299 -0.9332
 9231TIP3    H249185   1.675   0.495   4.119  0.9527  0.1019 -1.5875
 9232TIP3   OH249186   1.576   0.638   1.687 -0.5391  0.2022  0.3628
 9232TIP3    H149187   1.571   0.713   1.747  0.6916  0.0017  0.7303
 9232TIP3    H249188   1.514   0.660   1.617 -1.5107  0.7438  1.3476
 9233TIP3   OH249189   5.503   4.113   5.146 -0.2133 -0.5741  0.0455
 9233TIP3    H149190   5.527   4.160   5.226 -0.0346  1.1018 -0.9681
 9233TIP3    H249191   5.487   4.181   5.081  0.2330 -1.9001 -1.5281
 9234TIP3   OH249192   6.453   5.140  13.511  0.2008  0.6895 -0.2838
 9234TIP3    H149193   6.393   5.214  13.513  0.9672  1.3344 -0.4188
 9234TIP3    H249194   6.537   5.176  13.541  0.7611  0.0449 -1.0119
 9235TIP3   OH249195   2.137   3.050   6.046 -0.3095  0.0388 -0.3689
 9235TIP3    H149196   2.140   3.085   6.135 -2.2237  0.0864 -0.2886
 9235TIP3    H249197   2.208   3.096   6.000  0.8835 -0.1857  1.1675
 9236TIP3   OH249198   0.177   2.180   3.474 -0.0339  0.5985 -0.0696
 9236TIP3    H149199   0.200   2.150   3.562 -2.1053  0.8231  0.6131
 9236TIP3    H249200   0.171   2.099   3.422 -1.5291  0.1522  0.7274
 9237TIP3   OH249201   5.831   4.991   3.635 -0.0368 -0.1272 -0.0009
 9237TIP3    H149202   5.792   5.016   3.551 -0.8682  0.3143  0.5054
 9237TIP3    H249203   5.826   5.071   3.688 -1.0498 -0.8397  1.0316
 9238TIP3   OH249204   6.718   6.341  17.132 -0.3173  0.4552 -0.2985
 9238TIP3    H149205   6.758   6.281  17.069  0.4937  0.2744  0.3731
 9238TIP3    H249206   6.694   6.285  17.206  1.4085  1.0789  0.7877
 9239TIP3   OH249207   0.105   5.001  15.689  0.9297  0.4863 -0.3365
 9239TIP3    H149208   0.066   5.063  15.751 -2.6796 -2.1274  0.3343
 9239TIP3    H249209   0.061   5.019  15.606 -2.2185 -2.5202  0.4314
 9240TIP3   OH249210   2.533   6.004   2.055 -0.0887  0.0415 -0.5795
 9240TIP3    H149211   2.534   5.940   1.984 -0.1013 -0.3228 -0.2566
 9240TIP3    H249212   2.544   5.952   2.134 -2.7327  0.0849 -0.0651
 9241TIP3   OH249213   3.541   1.404   2.682  0.0467 -0.2024  0.1978
 9241TIP3    H149214   3.635   1.416   2.693 -0.3733  2.8459  1.4757
 9241TIP3    H249215   3.530   1.397   2.587  1.5944 -1.5073  0.0667
 9242TIP3   OH249216   3.034   3.797   2.729 -0.6338  0.2209  0.0208
 9242TIP3    H149217   3.122   3.763   2.719 -0.5153  0.3199  0.6660
 9242TIP3    H249218   3.024   3.861   2.658  0.1508  0.8976  0.4969
 9243TIP3   OH249219   2.062   1.970  16.970 -0.5157 -0.1592  0.0884
 9243TIP3    H149220   2.029   1.962  16.881  1.9784 -0.7463 -0.8498
 9243TIP3    H249221   2.113   1.890  16.985 -0.0436  0.3927  1.6848
 9244TIP3   OH249222   6.792   2.402   1.573  0.0762 -0.7801  0.1459
 9244TIP3    H149223   6.764   2.470   1.512  0.8700  1.1613  1.8280
 9244TIP3    H249224   6.846   2.343   1.520  0.3567  0.5705 -1.1188
 9245TIP3   OH249225   5.734   0.691   5.759 -0.0816 -0.2028  0.1465
 9245TIP3    H149226   5.701   0.779   5.777 -0.2035  0.1134 -1.4850
 9245TIP3    H249227   5.807   0.680   5.820  1.5137  2.0027 -1.2137
 9246TIP3   OH249228   1.959   4.046   5.588  0.2139 -0.0016 -0.2023
 9246TIP3    H149229   1.982   4.018   5.677  0.7736  0.6354 -0.1382
 9246TIP3    H249230   2.038   4.089   5.555 -0.3071  0.6165 -0.6586
 9247TIP3   OH249231   1.607   6.077   2.609 -0.0930  0.1933 -0.1882
 9247TIP3    H149232   1.647   6.065   2.523  1.4132  0.3858  0.4436
 9247TIP3    H249233   1.635   6.000   2.659 -0.5568  0.3205  0.2728
 9248TIP3   OH249234   0.973   1.424  13.117 -0.4230  0.6265 -0.1943
 9248TIP3    H149235   1.033   1.368  13.068 -1.1177  0.9058 -1.3961
 9248TIP3    H249236   0.916   1.462  13.050 -0.7969  1.7481  0.7363
 9249TIP3   OH249237   4.261   2.360  12.280 -0.1375  0.6696  0.2948
 9249TIP3    H149238   4.327   2.349  12.212 -0.0411  3.2469 -0.0966
 9249TIP3    H249239   4.242   2.453  12.281 -0.4728  0.6791  3.4916
 9250TIP3   OH249240   2.778   2.744  16.876 -0.1314 -0.6810  0.0074
 9250TIP3    H149241   2.711   2.783  16.820  2.0397  0.3571 -2.0394
 9250TIP3    H249242   2.833   2.694  16.817  0.7860 -1.7319  1.6619
 9251TIP3   OH249243   2.527   4.538  15.022 -0.0350 -0.7852  0.1203
 9251TIP3    H149244   2.583   4.467  15.054  1.7878  0.5653  0.1253
 9251TIP3    H249245   2.483   4.570  15.101 -1.4475 -2.3492 -0.0002
 9252TIP3   OH249246   3.528   0.260   1.610  0.3294  0.3998  0.2487
 9252TIP3    H149247   3.531   0.208   1.690 -0.2393 -1.6928 -0.9996
 9252TIP3    H249248   3.572   0.342   1.632 -0.7514  0.3436  2.9881
 9253TIP3   OH249249   1.202   2.860  11.919  0.3272 -0.0730 -0.3275
 9253TIP3    H149250   1.251   2.920  11.862 -0.0744 -0.0860 -0.6983
 9253TIP3    H249251   1.121   2.844  11.871  0.3183 -0.7059 -0.1057
 9254TIP3   OH249252   3.500   2.669  10.353 -0.0393 -0.4947 -0.2187
 9254TIP3    H149253   3.590   2.642  10.341  0.5785  1.1298  0.4819
 9254TIP3    H249254   3.505   2.745  10.410 -1.6083  1.2126 -2.1628
 9255TIP3   OH249255   6.813   0.823   1.279 -0.1116  0.5441  0.5939
 9255TIP3    H149256   6.881   0.757   1.293  0.3024  0.5740 -1.0925
 9255TIP3    H249257   6.731   0.773   1.277  0.3222 -0.2315 -2.2241
 9256TIP3   OH249258   5.835   0.095  13.950 -0.8300 -0.2972 -0.5396
 9256TIP3    H149259   5.885   0.163  13.996 -0.6590 -0.3761 -0.6090
 9256TIP3    H249260   5.766   0.070  14.012  0.4654 -1.6763  0.4036
 9257TIP3   OH249261   5.031   6.201  14.415 -0.0610  0.4470  0.7576
 9257TIP3    H149262   5.063   6.288  14.388 -1.6952  1.2471  1.2275
 9257TIP3    H249263   5.107   6.143  14.405  0.9938  1.8621  0.1320
 9258TIP3   OH249264   3.315   3.287  14.730 -0.2343 -0.0601  0.1562
 9258TIP3    H149265   3.294   3.334  14.811 -0.7447  1.5235 -0.8365
 9258TIP3    H249266   3.382   3.341  14.688 -1.0549 -0.0257 -1.1792
 9259TIP3   OH249267   4.249   0.746  16.112  0.0973  0.3091  0.0462
 9259TIP3    H149268   4.304   0.675  16.080 -3.4308 -2.1413 -1.1338
 9259TIP3    H249269   4.217   0.715  16.197 -1.7014  0.2812 -0.6034
 9260TIP3   OH249270   4.092   3.092  11.403  0.2142 -0.8053 -0.0793
 9260TIP3    H149271   4.004   3.123  11.424  0.2122 -0.6051 -0.3705
 9260TIP3    H249272   4.114   3.135  11.320  0.6393 -0.7491  0.0556
 9261TIP3   OH249273   1.929   5.055   3.428 -0.2671 -0.1249  0.2597
 9261TIP3    H149274   1.873   5.066   3.505  0.2302 -2.7114  1.0937
 9261TIP3    H249275   1.969   4.969   3.440  1.7739  0.4627 -1.6740
 9262TIP3   OH249276   6.378   1.703  14.483 -0.1807  0.1095 -0.4464
 9262TIP3    H149277   6.447   1.768  14.496  0.8373 -0.8879 -0.8143
 9262TIP3    H249278   6.344   1.722  14.395 -0.0984  0.3279 -0.4335
 9263TIP3   OH249279   3.044   1.716  13.288  0.2897  0.0330  0.2111
 9263TIP3    H149280   3.139   1.712  13.303  0.3780  1.7567  0.2950
 9263TIP3    H249281   3.006   1.709  13.375  0.3185 -0.8115  0.1640
 9264TIP3   OH249282   3.011   0.732  12.080  0.3441  0.0660  0.3797
 9264TIP3    H149283   2.930   0.719  12.031  0.4863 -1.2689  0.4425
 9264TIP3    H249284   3.078   0.739  12.012  0.3370 -0.1984  0.3415
 9265TIP3   OH249285   6.296   5.679  12.069  0.0580 -0.1403 -0.0477
 9265TIP3    H149286   6.251   5.625  12.004  0.1371  0.5752 -0.7222
 9265TIP3    H249287   6.308   5.763  12.025  0.6658  0.1677  0.6845
 9266TIP3   OH249288   5.808   2.415  14.347  0.5427 -0.0352 -0.5971
 9266TIP3    H149289   5.854   2.440  14.428  0.7707 -1.0571 -0.3904
 9266TIP3    H249290   5.819   2.320  14.343  2.0329  0.1483 -2.7352
 9267TIP3   OH249291   0.293   5.847   1.072  0.0344  0.3355  0.1596
 9267TIP3    H149292   0.331   5.802   1.147  2.0385 -1.5944 -1.8712
 9267TIP3    H249293   0.224   5.788   1.042 -1.7691  1.7854  1.2340
 9268TIP3   OH249294   2.203   4.379  16.411  0.0759 -0.2297 -0.2686
 9268TIP3    H149295   2.280   4.423  16.375 -0.4319  0.5546 -0.4297
 9268TIP3    H249296   2.213   4.288  16.385  0.0672  0.1893 -1.8068
 9269TIP3   OH249297   1.204   6.606  14.952 -0.4550  0.3121  0.1942
 9269TIP3    H149298   1.275   6.662  14.982  0.8640 -1.1484 -0.1030
 9269TIP3    H249299   1.218   6.597  14.858 -0.6920 -0.4356  0.2179
 9270TIP3   OH249300   4.092   3.242  13.936 -0.1960  0.3391  0.4454
 9270TIP3    H149301   4.134   3.225  14.020  3.1273 -2.1916 -1.4661
 9270TIP3    H249302   4.158   3.289  13.885 -0.2763 -1.9477 -2.0406
 9271TIP3   OH249303   6.518   0.071   2.156  0.0143  0.2504 -0.4215
 9271TIP3    H149304   6.434   0.027   2.149 -0.3492  0.7955  0.3194
 9271TIP3    H249305   6.571   0.013   2.212  0.0484  0.0284 -0.6834
 9272TIP3   OH249306   5.563   1.574   3.360  0.0913 -0.5491 -0.7219
 9272TIP3    H149307   5.591   1.513   3.428 -2.2263 -1.8375 -0.8143
 9272TIP3    H249308   5.547   1.656   3.407 -0.6694 -1.1779  0.1611
 9273TIP3   OH249309   1.675   2.286   5.114  0.0825 -0.1627  0.1536
 9273TIP3    H149310   1.602   2.237   5.076 -0.4522 -0.5034  1.5496
 9273TIP3    H249311   1.700   2.235   5.191  2.8602 -0.9038 -1.1216
 9274TIP3   OH249312   0.642   2.510  11.902  0.4532 -0.5527 -0.5569
 9274TIP3    H149313   0.590   2.589  11.912 -0.2973 -1.1520  0.5717
 9274TIP3    H249314   0.686   2.499  11.986  0.9291 -1.0684 -0.8631
 9275TIP3   OH249315   4.957   3.612  14.482  0.1933 -0.2497  0.3110
 9275TIP3    H149316   4.867   3.641  14.496  0.5208  0.7359  0.4596
 9275TIP3    H249317   4.949   3.531  14.431 -0.6788  1.4314 -2.4062
 9276TIP3   OH249318   1.009   5.673  15.553 -0.0189 -0.2652  0.3432
 9276TIP3    H149319   0.999   5.764  15.525  1.2851 -0.2319 -0.0757
 9276TIP3    H249320   1.062   5.679  15.632 -0.8946 -0.6001  0.9731
 9277TIP3   OH249321   6.689   0.800   3.013  0.0249  0.3403  0.5758
 9277TIP3    H149322   6.631   0.774   3.084 -0.0753 -0.7990  0.1082
 9277TIP3    H249323   6.695   0.895   3.019  0.5676  0.2267  2.5323
 9278TIP3   OH249324   0.931   0.506  17.134  0.5437 -0.4733 -0.0607
 9278TIP3    H149325   1.008   0.507  17.078  0.3344 -0.8516 -0.3583
 9278TIP3    H249326   0.862   0.465  17.081 -0.0686  0.5300 -0.0674
 9279TIP3   OH249327   0.284   5.255  16.075 -0.3406 -0.2663 -0.4716
 9279TIP3    H149328   0.301   5.207  15.994  0.0312  1.5777 -1.5508
 9279TIP3    H249329   0.230   5.329  16.047 -0.0672  0.4900  0.9370
 9280TIP3   OH249330   4.942   5.231   0.689  0.5260  0.1835 -0.2366
 9280TIP3    H149331   5.021   5.285   0.681  1.5736 -1.3885 -1.2951
 9280TIP3    H249332   4.972   5.152   0.734 -1.2218  0.8831  2.3873
 9281TIP3   OH249333   3.241   3.092   3.438 -0.3165  0.3447 -0.0955
 9281TIP3    H149334   3.210   3.163   3.494 -0.0205 -0.2379  0.8213
 9281TIP3    H249335   3.328   3.070   3.471  1.1808  1.9219 -2.6112
 9282TIP3   OH249336   2.021   3.073   4.109 -0.1146 -0.1063  0.4446
 9282TIP3    H149337   1.994   3.056   4.199 -0.9762  0.6890  0.3467
 9282TIP3    H249338   2.116   3.061   4.110 -0.1274 -0.1947  1.4414
 9283TIP3   OH249339   5.651   6.088   3.420  0.5146  0.1095  0.0263
 9283TIP3    H149340   5.722   6.101   3.483  0.3743 -2.5210  0.8603
 9283TIP3    H249341   5.693   6.051   3.342  0.2808  0.2135 -0.1533
 9284TIP3   OH249342   2.546   0.335   4.697 -0.2425 -0.5511 -0.7710
 9284TIP3    H149343   2.627   0.299   4.733 -0.4843 -0.4581 -0.1123
 9284TIP3    H249344   2.571   0.419   4.659  0.0126 -0.6200 -0.7508
 9285TIP3   OH249345   4.363   3.491  12.234 -0.3297 -0.2289  0.3275
 9285TIP3    H149346   4.358   3.402  12.268 -2.8038 -0.6636 -0.9557
 9285TIP3    H249347   4.274   3.524  12.240  0.0402  1.2586 -1.5069
 9286TIP3   OH249348   6.016   5.892  12.335  0.2284 -0.5791 -0.4468
 9286TIP3    H149349   6.021   5.976  12.381  3.1699 -0.8809 -0.0544
 9286TIP3    H249350   5.933   5.854  12.364 -1.0384  2.0073 -0.3943
 9287TIP3   OH249351   5.053   3.329   2.235 -0.7761  0.2496 -0.0031
 9287TIP3    H149352   4.972   3.294   2.271 -1.5484  3.6972  2.0037
 9287TIP3    H249353   5.031   3.353   2.145 -2.1756  1.4649  0.6233
 9288TIP3   OH249354   2.060   5.104   6.127  0.2706 -0.2968  0.3968
 9288TIP3    H149355   2.089   5.122   6.217  1.1711 -1.1821  0.3005
 9288TIP3    H249356   2.140   5.105   6.075 -0.4473  2.1820 -0.7874
 9289TIP3   OH249357   0.098   1.188   2.069  0.1356 -0.0066  0.4791
 9289TIP3    H149358   0.106   1.222   1.980 -0.5328  2.0652  1.1617
 9289TIP3    H249359   0.184   1.152   2.089  1.1280  1.9413 -0.0737
 9290TIP3   OH249360   3.030   2.315  10.839 -0.6228  0.5013  0.4749
 9290TIP3    H149361   2.985   2.391  10.876  0.9679  0.9391  1.6627
 9290TIP3    H249362   3.078   2.349  10.764  1.4826  1.1758  1.9957
 9291TIP3   OH249363   1.383   4.526  12.370 -0.0641 -0.7807  0.3057
 9291TIP3    H149364   1.326   4.603  12.372  1.6416  0.6539 -1.5644
 9291TIP3    H249365   1.452   4.544  12.434  0.4792 -0.5958 -0.3151
 9292TIP3   OH249366   2.762   3.014  15.848 -0.2190  0.0438  0.3235
 9292TIP3    H149367   2.846   3.006  15.803  0.5207  2.9830  0.9902
 9292TIP3    H249368   2.779   2.975  15.935  0.2442  0.0318  0.2335
 9293TIP3   OH249369   0.870   2.321   5.483  0.1847 -0.0060 -0.4148
 9293TIP3    H149370   0.862   2.362   5.569 -3.6240 -1.8419  0.3130
 9293TIP3    H249371   0.920   2.241   5.499  1.0805  0.5395 -0.3599
 9294TIP3   OH249372   3.059   3.427  12.247  0.4736 -0.1729  0.2822
 9294TIP3    H149373   3.096   3.353  12.199 -0.3450 -0.0803 -0.5263
 9294TIP3    H249374   2.987   3.388  12.297 -0.2030  0.1214 -0.4402
 9295TIP3   OH249375   5.122   1.636   5.484  0.5218 -0.0887  0.2737
 9295TIP3    H149376   5.061   1.572   5.446  1.7525 -1.0859 -0.0680
 9295TIP3    H249377   5.205   1.590   5.491  1.2941  1.2897  0.6198
 9296TIP3   OH249378   4.875   1.882   2.022 -0.3026  0.1400  0.2484
 9296TIP3    H149379   4.843   1.962   2.065  0.5136  1.9439 -2.2796
 9296TIP3    H249380   4.798   1.848   1.977 -0.5057 -0.1716  0.8189
 9297TIP3   OH249381   3.537   5.571  10.557  0.1294  0.2244 -0.1254
 9297TIP3    H149382   3.540   5.667  10.550  0.7976  0.3056  1.0134
 9297TIP3    H249383   3.620   5.548  10.599  0.1244 -0.8938 -0.7008
 9298TIP3   OH249384   0.200   6.050  13.892  0.2460  0.0737  0.1683
 9298TIP3    H149385   0.116   6.040  13.847  0.0466  0.0802  0.5330
 9298TIP3    H249386   0.215   5.965  13.933 -0.1096  0.3868  0.9869
 9299TIP3   OH249387   4.176   0.974  16.023  0.6368 -0.8164 -0.4266
 9299TIP3    H149388   4.111   0.960  15.954  0.5294 -1.1955 -0.2522
 9299TIP3    H249389   4.196   0.886  16.054  1.5696 -0.7416 -0.7902
 9300TIP3   OH249390   2.491   0.152   2.247  0.5725  0.2849  0.1169
 9300TIP3    H149391   2.523   0.068   2.280  0.6034 -0.0435 -0.7391
 9300TIP3    H249392   2.404   0.160   2.286 -2.2018 -3.1156 -4.4170
 9301TIP3   OH249393   4.196   5.302  11.493  0.5719 -0.4752 -0.0231
 9301TIP3    H149394   4.223   5.262  11.576  0.9857  0.1002  0.1222
 9301TIP3    H249395   4.132   5.241  11.457  1.2625 -1.3214  0.1513
 9302TIP3   OH249396   6.601   0.002   0.130 -0.0370 -0.4216 -0.1945
 9302TIP3    H149397   6.662  -0.064   0.163 -0.8219 -1.6959 -1.1979
 9302TIP3    H249398   6.654   0.059   0.074  0.7482  0.1279  1.0784
 9303TIP3   OH249399   1.040   2.756   5.005  0.1182 -0.3740  0.8875
 9303TIP3    H149400   1.073   2.688   4.946  0.3341  0.0864  0.4632
 9303TIP3    H249401   1.115   2.779   5.060  0.0694 -0.4306  0.9754
 9304TIP3   OH249402   6.552   3.157  14.350  0.4549  0.4090 -0.3234
 9304TIP3    H149403   6.620   3.218  14.379 -0.4232  0.0049  2.9948
 9304TIP3    H249404   6.551   3.088  14.417 -1.6024 -0.8873 -1.5628
 9305TIP3   OH249405   5.928   2.486   6.022 -0.1165 -0.3449 -0.4039
 9305TIP3    H149406   5.891   2.463   5.936  1.0073  0.2744 -1.0640
 9305TIP3    H249407   5.952   2.578   6.015 -0.0957 -0.2540  0.6186
 9306TIP3   OH249408   1.175   2.064  15.447 -0.2066 -0.0620 -0.4067
 9306TIP3    H149409   1.167   2.067  15.542  1.6516 -1.4081 -0.1441
 9306TIP3    H249410   1.197   2.154  15.422 -0.9858  0.3585  0.3964
 9307TIP3   OH249411   5.702   5.894   6.247 -0.0849  0.1185 -0.3189
 9307TIP3    H149412   5.759   5.818   6.240 -0.2435 -0.2016  1.2717
 9307TIP3    H249413   5.738   5.944   6.321 -2.2455 -0.5119  1.2830
 9308TIP3   OH249414   6.228   2.483  10.929 -0.0693 -0.2422  0.3695
 9308TIP3    H149415   6.307   2.517  10.888 -0.8622 -0.2545 -1.2415
 9308TIP3    H249416   6.159   2.545  10.903 -1.0446 -1.5905 -0.4084
 9309TIP3   OH249417   2.831   3.058   0.181 -0.0128  0.1837 -0.3113
 9309TIP3    H149418   2.872   3.124   0.238 -0.1363  0.6028 -0.7052
 9309TIP3    H249419   2.905   3.018   0.134  0.4229 -2.0088  1.9887
 9310TIP3   OH249420   2.107   1.264  16.508 -0.4303  0.3683  0.0268
 9310TIP3    H149421   2.057   1.184  16.491 -0.4841  0.2935  0.5090
 9310TIP3    H249422   2.080   1.325  16.440  0.0825 -0.2364 -0.7358
 9311TIP3   OH249423   3.503   5.696  14.913 -0.4799 -0.2201  0.5505
 9311TIP3    H149424   3.535   5.617  14.955 -1.8361 -1.8361 -1.2658
 9311TIP3    H249425   3.557   5.705  14.834 -1.0047  0.0533  0.2148
 9312TIP3   OH249426   5.545   6.284  11.426 -0.1010  0.2666 -0.5138
 9312TIP3    H149427   5.473   6.308  11.368  0.3487 -0.3168 -1.3361
 9312TIP3    H249428   5.524   6.195  11.455 -0.1544  0.4304 -0.0363
 9313TIP3   OH249429   0.936   4.470   3.670  0.7219  0.1257  0.5065
 9313TIP3    H149430   0.876   4.425   3.611  1.1810 -0.6804  0.6504
 9313TIP3    H249431   1.019   4.473   3.623  0.5675  1.3019  0.2810
 9314TIP3   OH249432   0.628   5.180   3.396 -0.0477 -0.5729 -0.2041
 9314TIP3    H149433   0.604   5.247   3.331  1.1785 -0.3430 -0.4318
 9314TIP3    H249434   0.722   5.191   3.408 -0.0279 -1.5432  0.5814
 9315TIP3   OH249435   0.505   4.107  14.938  0.1871 -0.0460 -0.6272
 9315TIP3    H149436   0.532   4.023  14.903 -0.6022 -1.0002  0.9580
 9315TIP3    H249437   0.436   4.087  15.000  0.7776  1.6520  0.6763
 9316TIP3   OH249438   3.140   2.041   2.487  0.7627  0.6336 -0.0056
 9316TIP3    H149439   3.123   2.058   2.395  0.1425  0.9011  0.1526
 9316TIP3    H249440   3.234   2.051   2.497  0.7932  0.8852 -0.5509
 9317TIP3   OH249441   2.560   3.704   2.661 -0.3131 -0.1929 -0.2406
 9317TIP3    H149442   2.493   3.670   2.602  0.0478 -0.9061 -0.2444
 9317TIP3    H249443   2.639   3.655   2.639  0.1582  0.4677 -0.0689
 9318TIP3   OH249444   6.740   4.810  13.660  0.0387 -1.0515  0.1185
 9318TIP3    H149445   6.734   4.879  13.726  1.6701  0.7733 -1.5296
 9318TIP3    H249446   6.657   4.763  13.666 -1.5846  1.7128  0.5972
 9319TIP3   OH249447   6.814   4.624  15.668  0.2441 -0.0797 -0.4454
 9319TIP3    H149448   6.885   4.660  15.614  1.9424 -1.1509  0.9268
 9319TIP3    H249449   6.860   4.573  15.736 -1.8796 -1.1468  0.2803
 9320TIP3   OH249450   1.196   4.149  16.649 -0.6443 -0.2614  0.2094
 9320TIP3    H149451   1.268   4.119  16.704  0.7292  0.9546 -0.8526
 9320TIP3    H249452   1.234   4.156  16.562 -2.3082 -0.4736 -0.5727
 9321TIP3   OH249453   3.946   5.848  14.700 -0.0891  0.3733  0.5195
 9321TIP3    H149454   3.970   5.768  14.654 -1.9265  1.0171 -1.8418
 9321TIP3    H249455   3.883   5.820  14.766  1.6763 -0.4380  1.9383
 9322TIP3   OH249456   2.235   4.508  12.041 -0.4781  0.1968 -0.0165
 9322TIP3    H149457   2.227   4.594  12.000 -0.4719  0.2017 -0.0075
 9322TIP3    H249458   2.151   4.466  12.025 -0.9837  0.7212  1.1709
 9323TIP3   OH249459   1.561   0.189  16.360 -0.4063  0.7689 -0.0525
 9323TIP3    H149460   1.642   0.178  16.410 -1.6348 -0.8143  1.7207
 9323TIP3    H249461   1.584   0.250  16.290  1.7988  1.9512  1.5794
 9324TIP3   OH249462   5.023   6.482  14.130 -0.3230 -0.0749  0.2919
 9324TIP3    H149463   5.015   6.400  14.080 -0.7204  0.9037 -1.3215
 9324TIP3    H249464   5.025   6.550  14.064  2.7415  1.1120  1.4598
 9325TIP3   OH249465   3.550   0.903   4.869  0.3127  0.3418  0.3543
 9325TIP3    H149466   3.518   0.836   4.808  1.1680 -0.4970  0.7947
 9325TIP3    H249467   3.599   0.854   4.935  1.0783  1.4186  0.6156
 9326TIP3   OH249468   3.683   4.819   1.229  0.2308 -0.3327  0.1789
 9326TIP3    H149469   3.725   4.808   1.314 -0.9645 -1.1310  0.6996
 9326TIP3    H249470   3.605   4.871   1.248 -0.6918 -1.5357 -0.2010
 9327TIP3   OH249471   5.686   0.469   2.771  0.3686 -0.2591  0.8411
 9327TIP3    H149472   5.616   0.446   2.711  1.5109  0.7748 -0.9960
 9327TIP3    H249473   5.669   0.560   2.795  1.0997  0.0298  0.3087
 9328TIP3   OH249474   4.223   5.787  17.259  0.3148 -0.3327 -0.2293
 9328TIP3    H149475   4.229   5.782  17.163 -0.1067  1.9186 -0.4256
 9328TIP3    H249476   4.306   5.752  17.290  0.5737 -0.8293 -1.4223
 9329TIP3   OH249477   6.754   3.153   2.052  0.1366 -0.2778  0.2530
 9329TIP3    H149478   6.708   3.223   2.006  0.9213 -0.0431 -0.2056
 9329TIP3    H249479   6.845   3.162   2.023  0.7645  0.1862  2.2095
 9330TIP3   OH249480   0.824   0.441   6.024  0.1236 -0.4208  0.2991
 9330TIP3    H149481   0.743   0.484   6.052  0.8098  0.6075  0.7784
 9330TIP3    H249482   0.795   0.365   5.973 -1.1295  0.2940 -0.0882
 9331TIP3   OH249483   6.229   5.168  14.678  0.3388 -0.7988  0.5715
 9331TIP3    H149484   6.324   5.178  14.671  0.5959 -0.8517  3.0268
 9331TIP3    H249485   6.195   5.258  14.671  0.7279 -0.5993  1.1064
 9332TIP3   OH249486   5.308   4.657  10.589 -0.5445  0.1336  0.0496
 9332TIP3    H149487   5.251   4.639  10.664  0.0928  0.3356  0.5877
 9332TIP3    H249488   5.339   4.746  10.604 -1.3660  0.6388 -1.0877
 9333TIP3   OH249489   3.004   5.633   3.937  0.1185  0.2784  0.4081
 9333TIP3    H149490   3.082   5.688   3.936  0.3857 -0.0480  1.5048
 9333TIP3    H249491   3.022   5.565   3.872  0.4365  0.6098  0.1452
 9334TIP3   OH249492   3.973   5.523  15.554  0.0776 -0.0093  0.2853
 9334TIP3    H149493   4.062   5.495  15.577  0.1619  0.8524  1.0385
 9334TIP3    H249494   3.934   5.445  15.514  0.3652 -1.1885  2.1471
 9335TIP3   OH249495   1.029   6.812  11.299 -0.0036  0.0299 -0.6344
 9335TIP3    H149496   0.983   6.775  11.224 -1.7888  1.0667 -0.1094
 9335TIP3    H249497   1.106   6.855  11.261 -1.1880  1.0612 -1.9725
 9336TIP3   OH249498   5.923   0.826   2.667  0.4313  0.4166 -0.3493
 9336TIP3    H149499   5.924   0.908   2.718 -0.7025  0.4429 -0.3550
 9336TIP3    H249500   5.933   0.757   2.732  1.2951  0.5464 -0.3339
 9337TIP3   OH249501   0.311   1.510   4.440 -0.0783 -0.1535  0.5920
 9337TIP3    H149502   0.306   1.539   4.349 -1.3532 -0.3100  0.5945
 9337TIP3    H249503   0.397   1.539   4.470  0.2982  0.0285 -0.6128
 9338TIP3   OH249504   3.582   5.055   2.665  0.0835 -0.4787 -0.3691
 9338TIP3    H149505   3.534   5.029   2.744 -0.9724 -1.1016 -1.1935
 9338TIP3    H249506   3.546   5.000   2.596  0.4204  0.6272 -1.4550
 9339TIP3   OH249507   6.022   5.749  16.218  0.8545 -0.3527 -0.2231
 9339TIP3    H149508   5.970   5.721  16.142  1.0342  0.2969 -0.5874
 9339TIP3    H249509   5.983   5.832  16.244  0.3287 -0.9117  0.8519
 9340TIP3   OH249510   0.088   5.392  14.058  0.0707  0.7493 -0.3434
 9340TIP3    H149511   0.163   5.449  14.074 -0.0625  0.6987  0.4948
 9340TIP3    H249512   0.063   5.360  14.145 -0.0922 -0.2872 -0.7543
 9341TIP3   OH249513   1.415   2.418   3.577  0.0891 -0.1930  0.3008
 9341TIP3    H149514   1.327   2.439   3.607  0.4532 -1.8137  2.8119
 9341TIP3    H249515   1.409   2.327   3.547  0.8678 -0.2365  0.2472
 9342TIP3   OH249516   5.372   5.672   5.047  0.9831  0.5128  0.0769
 9342TIP3    H149517   5.437   5.740   5.034  1.9866 -0.4435 -0.0688
 9342TIP3    H249518   5.422   5.590   5.047 -0.0602 -0.1633  1.2285
 9343TIP3   OH249519   3.389   0.447  16.376  0.0024 -0.2937 -0.4059
 9343TIP3    H149520   3.354   0.358  16.377 -1.2222  0.1655 -0.2170
 9343TIP3    H249521   3.436   0.456  16.458 -1.1903 -0.2863  0.3027
 9344TIP3   OH249522   2.854   3.186   5.917 -0.7175  0.4578 -0.3948
 9344TIP3    H149523   2.869   3.138   5.836  1.0655 -1.2931  0.8722
 9344TIP3    H249524   2.771   3.232   5.903 -1.4785 -1.3591 -2.4496
 9345TIP3   OH249525   4.269   0.519   5.789 -0.2613 -0.2308 -0.0972
 9345TIP3    H149526   4.365   0.515   5.795 -0.3757 -1.9443  2.7508
 9345TIP3    H249527   4.244   0.577   5.861 -1.3665  1.7794 -2.0077
 9346TIP3   OH249528   6.358   0.401   2.257  0.0861  0.1374  0.1463
 9346TIP3    H149529   6.393   0.390   2.346  0.9806 -0.6022 -0.2703
 9346TIP3    H249530   6.318   0.488   2.258  2.4677  1.3296  0.5280
 9347TIP3   OH249531   2.563   3.760   6.055 -0.6188  0.2365 -0.0716
 9347TIP3    H149532   2.484   3.724   6.096 -0.3063  0.4438  0.7193
 9347TIP3    H249533   2.590   3.832   6.113  0.2715  0.0334 -0.2183
 9348TIP3   OH249534   4.451   1.267   4.539  0.9585 -0.1096 -0.4582
 9348TIP3    H149535   4.515   1.331   4.507  0.6383 -0.0855 -1.0615
 9348TIP3    H249536   4.415   1.227   4.459  0.4277 -0.3246 -0.1142
 9349TIP3   OH249537   2.839   2.743  16.470 -1.0393  0.0187  0.4611
 9349TIP3    H149538   2.854   2.686  16.546 -2.0081 -0.3586  0.3771
 9349TIP3    H249539   2.781   2.693  16.413  0.6816 -0.2438 -1.1622
 9350TIP3   OH249540   5.471   3.229  13.425 -0.3558 -0.8991  0.1231
 9350TIP3    H149541   5.539   3.163  13.439  0.3796 -0.3482 -0.7263
 9350TIP3    H249542   5.411   3.189  13.363  1.7061  0.2467 -2.8333
 9351TIP3   OH249543   6.669   4.915  14.963 -0.1817  0.5947  0.7980
 9351TIP3    H149544   6.645   4.982  15.026 -1.3353  2.2945 -1.3123
 9351TIP3    H249545   6.626   4.835  14.994 -1.1029  1.4907  1.8818
 9352TIP3   OH249546   1.599   1.739  13.392  0.1676 -0.5758  0.5611
 9352TIP3    H149547   1.563   1.827  13.393  1.0243 -0.1406 -1.3805
 9352TIP3    H249548   1.532   1.684  13.432 -1.1725  0.6988  0.1206
 9353TIP3   OH249549   2.930   3.664  16.251  0.2621  0.0244  0.2169
 9353TIP3    H149550   2.976   3.665  16.168 -0.8711  1.7954 -0.4525
 9353TIP3    H249551   2.997   3.681  16.317  0.8350  0.7178 -0.5368
 9354TIP3   OH249552   2.445   0.757  15.560 -0.3128 -0.0532 -0.5146
 9354TIP3    H149553   2.393   0.709  15.496  0.5977 -0.6085 -0.8548
 9354TIP3    H249554   2.536   0.741  15.534  0.1844 -1.7613  1.9377
 9355TIP3   OH249555   5.549   2.083  15.505 -0.6013 -0.5230 -0.4478
 9355TIP3    H149556   5.531   2.055  15.594 -0.1950  0.2966 -0.0899
 9355TIP3    H249557   5.519   2.174  15.502  1.9491  0.4331 -0.2516
 9356TIP3   OH249558   6.243   1.904   3.072  0.1368 -0.4784 -0.1918
 9356TIP3    H149559   6.313   1.878   3.012  0.8609  0.0442  0.4112
 9356TIP3    H249560   6.257   1.850   3.150 -0.1085 -0.3437 -0.0528
 9357TIP3   OH249561   4.211   5.452  16.329 -0.2426 -0.4354  0.1002
 9357TIP3    H149562   4.200   5.539  16.368 -1.1361 -0.5825  0.1937
 9357TIP3    H249563   4.306   5.443  16.317 -0.1234  0.4487  0.3203
 9358TIP3   OH249564   2.632   3.758  16.681 -0.1135  0.4544 -0.8168
 9358TIP3    H149565   2.656   3.822  16.747 -0.1790 -0.9314  0.6169
 9358TIP3    H249566   2.598   3.810  16.608  0.2126  2.0476  0.1149
 9359TIP3   OH249567   6.331   4.798   5.977  0.1244  0.1442 -0.3675
 9359TIP3    H149568   6.329   4.731   5.908  1.0829  0.5070 -0.7682
 9359TIP3    H249569   6.315   4.749   6.058 -0.8659 -0.3093 -0.8223
 9360TIP3   OH249570   1.157   6.008  11.073  0.1023  0.0313 -0.1982
 9360TIP3    H149571   1.152   5.981  10.982  0.5725 -0.4985 -0.0716
 9360TIP3    H249572   1.188   6.099  11.069 -0.4485  0.2083 -0.5811
 9361TIP3   OH249573   1.423   1.434  11.844  0.0591 -0.0631  0.2939
 9361TIP3    H149574   1.464   1.347  11.842 -0.7045 -0.4092 -0.8154
 9361TIP3    H249575   1.469   1.484  11.777  0.5083  0.4142  0.9419
 9362TIP3   OH249576   3.257   1.058   1.389  0.1092 -0.5287  0.1302
 9362TIP3    H149577   3.320   1.128   1.373  1.0522 -1.4374 -0.2441
 9362TIP3    H249578   3.204   1.054   1.309  1.2291 -1.4053 -0.6019
 9363TIP3   OH249579   4.634   3.343   0.106 -0.5008 -0.7342  0.2095
 9363TIP3    H149580   4.684   3.413   0.064  0.4160 -1.4077  0.1414
 9363TIP3    H249581   4.660   3.263   0.059 -0.3856 -1.3283  1.2433
 9364TIP3   OH249582   0.582   4.224   1.814  0.5118 -0.1434 -0.1548
 9364TIP3    H149583   0.610   4.134   1.799 -0.1675 -0.3490 -0.2350
 9364TIP3    H249584   0.504   4.234   1.760  0.1108  0.2370  0.4801
 9365TIP3   OH249585   0.734   6.533  11.843  0.1147  0.6577  0.1768
 9365TIP3    H149586   0.794   6.485  11.786 -1.8856 -2.2447  0.2882
 9365TIP3    H249587   0.694   6.599  11.787  2.4638  1.8542 -0.1816
 9366TIP3   OH249588   6.642   0.090   3.161  0.1211 -0.3697 -0.4230
 9366TIP3    H149589   6.682   0.148   3.097 -1.4356 -0.7594 -1.8245
 9366TIP3    H249590   6.576   0.042   3.112  0.9050 -2.8891  0.8369
 9367TIP3   OH249591   2.778   5.830  10.870  0.4310  0.3558  0.5852
 9367TIP3    H149592   2.830   5.761  10.911  0.1901 -0.3108 -0.2238
 9367TIP3    H249593   2.687   5.809  10.893  0.4936  1.7017  2.2770
 9368TIP3   OH249594   0.621   6.719  14.801 -0.0374 -0.2653  0.0580
 9368TIP3    H149595   0.664   6.743  14.719 -0.5188  0.0344 -0.1145
 9368TIP3    H249596   0.569   6.641  14.779  1.4894 -1.5013  0.6049
 9369TIP3   OH249597   6.294   4.037  12.664  0.0488  0.0226  0.1931
 9369TIP3    H149598   6.365   3.991  12.618  0.7332 -0.5851  1.7776
 9369TIP3    H249599   6.270   3.978  12.735 -0.6145  1.1534  0.9390
 9370TIP3   OH249600   2.505   2.257   6.389 -0.3842  0.3405 -0.2812
 9370TIP3    H149601   2.434   2.236   6.329 -1.2074  0.7869  0.5198
 9370TIP3    H249602   2.463   2.267   6.474  0.2854  2.7687 -0.1619
 9371TIP3   OH249603   6.309   1.020  15.957  0.4567 -0.5493  0.2588
 9371TIP3    H149604   6.292   0.973  15.875  1.4923 -1.8818  0.7759
 9371TIP3    H249605   6.401   1.044  15.952  0.3664 -0.0668  0.7636
 9372TIP3   OH249606   4.818   4.374  12.802  0.2766 -0.0810  0.1404
 9372TIP3    H149607   4.875   4.304  12.769  0.2585  1.5720 -3.8805
 9372TIP3    H249608   4.878   4.441  12.834  0.3102 -1.0064  2.2250
 9373TIP3   OH249609   4.789   0.731   3.800  0.2558 -0.0754  0.2782
 9373TIP3    H149610   4.772   0.761   3.711  0.2987  1.4917  0.7652
 9373TIP3    H249611   4.702   0.731   3.842  0.5615  2.2896  1.0979
 9374TIP3   OH249612   1.920   1.192   3.950  0.4476 -0.2747  0.1479
 9374TIP3    H149613   1.944   1.118   4.006  1.6732  0.3664  0.4899
 9374TIP3    H249614   1.942   1.162   3.861 -1.8680 -1.4446 -0.1188
 9375TIP3   OH249615   2.474   0.016  15.714  0.3237 -0.7657  0.3426
 9375TIP3    H149616   2.562   0.043  15.688  0.0465  0.2151  0.4113
 9375TIP3    H249617   2.460   0.056  15.799 -1.4100  1.8663 -1.0666
 9376TIP3   OH249618   0.916   3.665  14.221 -0.6317  0.2874  0.0182
 9376TIP3    H149619   0.945   3.668  14.130  0.8241 -2.4362  0.2879
 9376TIP3    H249620   0.997   3.669  14.272 -1.3913  1.2074  1.2163
 9377TIP3   OH249621   2.383   0.305  13.553  0.1838 -0.2496 -0.3150
 9377TIP3    H149622   2.354   0.362  13.482 -2.8119  1.0294  1.7466
 9377TIP3    H249623   2.474   0.332  13.570 -0.0962  1.6583 -1.5303
 9378TIP3   OH249624   1.515   4.333  13.250  0.7115  0.4692  0.1149
 9378TIP3    H149625   1.431   4.378  13.238  0.0538 -0.6185  0.4995
 9378TIP3    H249626   1.520   4.316  13.344  0.2458 -1.5242 -0.1683
 9379TIP3   OH249627   6.229   5.490   0.346 -0.9514  0.3154  0.5057
 9379TIP3    H149628   6.259   5.554   0.283 -2.1658  1.0592  0.6613
 9379TIP3    H249629   6.251   5.405   0.307 -0.4042  0.7964 -0.2408
 9380TIP3   OH249630   0.056   2.939   5.090  0.2368 -0.4827  0.7024
 9380TIP3    H149631  -0.019   2.906   5.139  0.7946 -3.1459 -0.1132
 9380TIP3    H249632   0.024   2.946   5.000  0.2740  0.8667  0.7707
 9381TIP3   OH249633   1.294   0.513   3.799 -0.4726  0.3896  0.0510
 9381TIP3    H149634   1.386   0.537   3.785 -0.3590  1.4894  2.1768
 9381TIP3    H249635   1.247   0.552   3.725  0.8519 -1.1078 -1.6534
 9382TIP3   OH249636   2.877   2.050   2.752  0.4682 -0.4476 -0.2101
 9382TIP3    H149637   2.871   1.984   2.683  2.1037 -0.1706 -0.6566
 9382TIP3    H249638   2.971   2.065   2.763  0.2170  0.1827  1.4516
 9383TIP3   OH249639   6.405   0.211  11.600 -0.2470  0.3271 -0.3824
 9383TIP3    H149640   6.417   0.302  11.629  0.4995  0.4568 -1.0522
 9383TIP3    H249641   6.494   0.176  11.596 -0.4850 -0.2560 -0.6864
 9384TIP3   OH249642   2.207   2.676  14.818 -0.1463 -0.0993 -0.0707
 9384TIP3    H149643   2.154   2.662  14.739 -0.5656  1.3085 -0.0582
 9384TIP3    H249644   2.150   2.647  14.890 -0.2647 -0.1557 -0.1861
 9385TIP3   OH249645   0.911   6.311   4.267  0.2671 -0.3027 -1.5202
 9385TIP3    H149646   0.963   6.315   4.187  1.5182  0.2054 -0.7206
 9385TIP3    H249647   0.975   6.297   4.337 -0.5959  0.8646 -0.4319
 9386TIP3   OH249648   1.781   4.942   4.007 -0.3087 -0.7860  0.1359
 9386TIP3    H149649   1.715   4.998   4.049  0.8181 -0.3179  1.3503
 9386TIP3    H249650   1.770   4.857   4.049  0.2841 -0.5264  0.8550
 9387TIP3   OH249651   2.061   2.854   2.448  0.0995  0.8496  0.3916
 9387TIP3    H149652   2.069   2.838   2.354 -0.6079  0.4810  0.3900
 9387TIP3    H249653   2.022   2.773   2.483 -0.7571  1.4336  0.8277
 9388TIP3   OH249654   1.548   0.601  14.367 -0.4333  0.3588 -0.2456
 9388TIP3    H149655   1.554   0.506  14.362 -1.7485  0.3193 -1.4920
 9388TIP3    H249656   1.563   0.632  14.278 -0.2670  1.3156  0.0936
 9389TIP3   OH249657   4.280   2.033   5.402  0.2869  0.2857 -0.5562
 9389TIP3    H149658   4.370   2.064   5.388  0.8818 -0.5544  1.1004
 9389TIP3    H249659   4.228   2.078   5.335  2.2202 -0.6177 -2.8256
 9390TIP3   OH249660   6.078   5.859   5.030  0.1848  0.2123 -0.0461
 9390TIP3    H149661   6.087   5.954   5.024 -0.5634  0.3722  0.9233
 9390TIP3    H249662   6.013   5.836   4.963  1.6912  0.1186 -1.5259
 9391TIP3   OH249663   2.244   3.254  11.712 -0.1399 -0.5744 -0.1238
 9391TIP3    H149664   2.230   3.348  11.724 -0.8588 -0.5043 -1.3955
 9391TIP3    H249665   2.203   3.214  11.789 -0.5664  0.1031  0.0122
 9392TIP3   OH249666   3.596   3.688  13.376 -0.3215  0.4179  0.2019
 9392TIP3    H149667   3.541   3.627  13.425  0.5012  0.7447  1.6163
 9392TIP3    H249668   3.569   3.678  13.285 -0.7426 -1.4877  0.4935
 9393TIP3   OH249669   1.461   4.070   4.953  0.4891  0.2545  0.5938
 9393TIP3    H149670   1.455   4.054   4.859  1.2717  1.6684  0.2721
 9393TIP3    H249671   1.372   4.059   4.986 -0.1083  1.2767 -0.5923
 9394TIP3   OH249672   5.024   2.306   1.971  0.3217  0.2503 -0.3429
 9394TIP3    H149673   5.025   2.398   1.996 -0.4261 -0.0488  0.8693
 9394TIP3    H249674   5.075   2.262   2.040  0.1921 -0.3038 -0.5954
 9395TIP3   OH249675   1.044   4.739  12.222  0.3366  0.1026 -0.3727
 9395TIP3    H149676   1.025   4.779  12.137  2.0323 -0.4660 -1.0727
 9395TIP3    H249677   0.998   4.656  12.220  2.0797 -0.9129 -1.7148
 9396TIP3   OH249678   0.344   1.454  12.569 -0.1713  0.6499 -0.7011
 9396TIP3    H149679   0.347   1.518  12.498 -1.7490 -0.6121 -1.9672
 9396TIP3    H249680   0.282   1.491  12.632 -2.5472 -0.3899 -2.3027
 9397TIP3   OH249681   0.396   3.717  15.938 -0.4939 -0.7583  0.4958
 9397TIP3    H149682   0.414   3.792  15.995 -1.0520  0.8293 -1.3186
 9397TIP3    H249683   0.327   3.668  15.984 -0.3532  0.0177  1.5638
 9398TIP3   OH249684   2.174   0.983  13.590 -0.1748  0.0445  0.5095
 9398TIP3    H149685   2.134   1.019  13.511  0.0590 -1.8477 -0.5170
 9398TIP3    H249686   2.100   0.960  13.646 -0.3455  1.2116  0.7965
 9399TIP3   OH249687   3.236   3.317  15.345 -0.0879  0.2696  0.3070
 9399TIP3    H149688   3.191   3.324  15.429 -0.8044  1.2497 -0.1377
 9399TIP3    H249689   3.174   3.352  15.281  0.7398  0.2628 -0.5347
 9400TIP3   OH249690   5.712   6.400  13.294  1.1304 -0.6906 -0.0952
 9400TIP3    H149691   5.618   6.381  13.295  1.3593 -2.0856  2.5200
 9400TIP3    H249692   5.730   6.426  13.203 -1.8221  0.0388 -0.5756
 9401TIP3   OH249693   5.964   6.573   4.032 -0.0489 -0.4013  0.2033
 9401TIP3    H149694   5.959   6.521   3.951  0.0189  1.0072 -0.7496
 9401TIP3    H249695   6.049   6.615   4.027 -1.4035  2.4971 -0.8471
 9402TIP3   OH249696   0.088   0.971   6.245 -0.7789 -0.6252  0.1097
 9402TIP3    H149697   0.074   0.933   6.332 -2.2222  0.7330  0.5193
 9402TIP3    H249698   0.142   1.048   6.261 -1.0779 -0.3514 -0.1952
 9403TIP3   OH249699   2.419   1.951   2.168 -0.3105 -0.3310  0.2020
 9403TIP3    H149700   2.337   1.911   2.198 -1.1766  0.8541 -0.4964
 9403TIP3    H249701   2.468   1.879   2.128 -0.9166 -1.0923  0.8073
 9404TIP3   OH249702   5.613   2.850  13.791  0.1296 -0.8523 -0.4260
 9404TIP3    H149703   5.596   2.852  13.696  0.3229 -1.9746 -0.5017
 9404TIP3    H249704   5.671   2.775  13.803  3.8054  1.7962  0.0184
 9405TIP3   OH249705   4.695   1.318   3.817  0.3527  0.2890 -0.2848
 9405TIP3    H149706   4.651   1.311   3.733  0.2121  3.2381 -0.5533
 9405TIP3    H249707   4.788   1.325   3.795  0.4300 -0.1797 -0.1097
 9406TIP3   OH249708   6.766   6.647   5.023  0.2029  0.1449  0.5363
 9406TIP3    H149709   6.697   6.581   5.026 -0.6190  1.0476  1.9610
 9406TIP3    H249710   6.800   6.641   4.933 -1.3048 -0.7176 -0.0080
 9407TIP3   OH249711   0.584   1.265  12.648 -0.2127  0.0821  0.1587
 9407TIP3    H149712   0.547   1.316  12.576  0.6533 -1.7073 -1.6756
 9407TIP3    H249713   0.621   1.187  12.605  2.0699 -0.1441  2.3285
 9408TIP3   OH249714   4.224   1.833   5.891 -0.1601  0.0124  0.3697
 9408TIP3    H149715   4.285   1.761   5.911 -0.2220 -0.4749 -1.0962
 9408TIP3    H249716   4.250   1.903   5.952  1.0596 -0.6207  0.6205
 9409TIP3   OH249717   4.721   6.361  11.590 -0.4215  0.1544  0.4193
 9409TIP3    H149718   4.783   6.403  11.530  0.4750 -0.3501  0.9737
 9409TIP3    H249719   4.636   6.370  11.547  0.1663  0.0236 -0.7954
 9410TIP3   OH249720   1.271   4.263  12.986 -0.0137 -0.3462 -0.3513
 9410TIP3    H149721   1.293   4.206  12.912 -0.6389 -0.2661 -0.6090
 9410TIP3    H249722   1.283   4.209  13.063 -1.9177 -1.2842 -0.6545
 9411TIP3   OH249723   2.272   4.890  15.721 -0.3635 -0.1839  0.7013
 9411TIP3    H149724   2.337   4.831  15.758 -1.1768 -0.7481  1.2451
 9411TIP3    H249725   2.189   4.844  15.731 -0.9008  0.6967  0.3790
 9412TIP3   OH249726   5.395   1.029   2.806 -0.3775 -0.1244  0.6652
 9412TIP3    H149727   5.477   1.069   2.777 -0.9494  0.8741  0.3883
 9412TIP3    H249728   5.330   1.057   2.741 -0.4770 -3.0737 -0.6662
 9413TIP3   OH249729   6.327   5.760   5.256  0.3938  0.8261 -0.5646
 9413TIP3    H149730   6.402   5.789   5.203  0.1037 -0.1814 -1.5719
 9413TIP3    H249731   6.281   5.698   5.200 -0.3991  0.3389  0.5860
 9414TIP3   OH249732   1.913   4.625   0.162 -0.4219  0.6883  0.8419
 9414TIP3    H149733   1.920   4.568   0.085 -0.5887 -0.0277  1.3499
 9414TIP3    H249734   1.917   4.714   0.126 -1.1566  0.3720 -0.0596
 9415TIP3   OH249735   3.816   1.878  15.937 -0.0272  0.5574  0.2782
 9415TIP3    H149736   3.760   1.803  15.920 -1.3699  1.7374 -0.7935
 9415TIP3    H249737   3.903   1.850  15.909 -0.3824 -0.7916  0.4877
 9416TIP3   OH249738   1.177   1.509  11.932 -0.4794 -0.0515 -0.4024
 9416TIP3    H149739   1.188   1.600  11.903  0.5602 -0.5228 -1.5834
 9416TIP3    H249740   1.259   1.467  11.909 -1.7734 -1.8596 -2.0642
 9417TIP3   OH249741   5.748   5.689  11.163 -0.9391 -0.2893 -0.3374
 9417TIP3    H149742   5.774   5.767  11.211 -0.8382 -0.4347 -0.1562
 9417TIP3    H249743   5.805   5.619  11.196  0.4739 -0.0141 -2.0269
 9418TIP3   OH249744   6.196   4.111  16.933 -0.2971 -0.1703  0.4907
 9418TIP3    H149745   6.202   4.206  16.939  2.0977 -0.2783  0.8618
 9418TIP3    H249746   6.286   4.082  16.915 -0.3851 -2.5378  3.0848
 9419TIP3   OH249747   3.467   3.834  13.794  0.3689 -0.2080 -0.0103
 9419TIP3    H149748   3.489   3.912  13.844  1.1549 -0.6188  0.3033
 9419TIP3    H249749   3.484   3.857  13.703 -0.6083  0.3866 -0.0601
 9420TIP3   OH249750   5.412   2.176   3.249  0.1565 -0.1290  0.4078
 9420TIP3    H149751   5.426   2.128   3.330  0.1260 -1.7610 -0.5141
 9420TIP3    H249752   5.486   2.151   3.193 -1.6702 -1.8927 -1.3446
 9421TIP3   OH249753   6.487   0.711  14.019 -0.0650 -0.1214  0.6464
 9421TIP3    H149754   6.546   0.637  14.030  3.0331  2.1203  0.5565
 9421TIP3    H249755   6.535   0.786  14.056 -1.5935  2.4084 -1.9974
 9422TIP3   OH249756   0.891   1.295   0.677 -0.2787  0.1055 -0.2303
 9422TIP3    H149757   0.841   1.366   0.637 -0.5723 -0.2934 -0.5800
 9422TIP3    H249758   0.828   1.249   0.733 -0.3008 -0.3637 -0.6270
 9423TIP3   OH249759   1.685   1.972   4.071  0.2735  0.6880  0.9857
 9423TIP3    H149760   1.669   1.891   4.119 -0.7864  0.6607  0.5958
 9423TIP3    H249761   1.627   1.968   3.995  2.0246  0.6647 -0.4112
 9424TIP3   OH249762   4.689   4.272  15.469 -0.1400 -0.8172 -0.1379
 9424TIP3    H149763   4.714   4.180  15.467  2.7559 -0.1653  1.0509
 9424TIP3    H249764   4.707   4.300  15.559 -0.3633  1.0388 -0.6337
 9425TIP3   OH249765   5.561   1.248  12.473  0.2546 -0.1210 -0.2463
 9425TIP3    H149766   5.583   1.330  12.428 -0.2797 -0.2274 -0.7121
 9425TIP3    H249767   5.637   1.191  12.457 -0.4578 -0.6166 -2.1618
 9426TIP3   OH249768   1.927   0.326   2.081  0.4328  0.2685 -0.6203
 9426TIP3    H149769   1.860   0.394   2.074 -0.6387 -0.6374  0.3328
 9426TIP3    H249770   1.996   0.354   2.021  0.2706  2.4560  0.1040
 9427TIP3   OH249771   0.299   0.332  16.805 -0.8738 -0.6356  0.0921
 9427TIP3    H149772   0.316   0.425  16.817  0.3980 -0.6594 -1.2491
 9427TIP3    H249773   0.362   0.288  16.864  0.1582 -0.6491 -0.9819
 9428TIP3   OH249774   3.620   2.273   6.228  0.3302 -0.6003 -0.5656
 9428TIP3    H149775   3.557   2.218   6.181 -1.8542  1.2101  0.0644
 9428TIP3    H249776   3.606   2.253   6.320  2.1712 -1.6242 -0.4581
 9429TIP3   OH249777   0.615   4.837  13.375 -0.0231 -0.6656  0.0643
 9429TIP3    H149778   0.636   4.913  13.321 -0.8506 -1.7063 -1.8247
 9429TIP3    H249779   0.621   4.869  13.465  0.7046  1.3330 -0.6348
 9430TIP3   OH249780   0.867   3.817   0.476  0.4881  0.0695  0.1978
 9430TIP3    H149781   0.959   3.838   0.456  1.6435 -0.2185  4.3091
 9430TIP3    H249782   0.866   3.722   0.488 -0.5601 -0.0281 -0.5432
 9431TIP3   OH249783   6.729   3.953   6.138  0.6166 -0.2731  0.5240
 9431TIP3    H149784   6.656   3.939   6.198  0.1098 -0.4662 -0.1368
 9431TIP3    H249785   6.804   3.913   6.182 -0.1095 -2.0473  0.2266
 9432TIP3   OH249786   0.292   3.006  17.197  0.4411  0.0443 -0.1656
 9432TIP3    H149787   0.281   3.049  17.112  1.3451 -1.5886 -1.1736
 9432TIP3    H249788   0.386   3.008  17.212  0.2623  0.5483  0.9530
 9433TIP3   OH249789   5.566   2.335   2.655 -0.0889 -0.2253  0.3060
 9433TIP3    H149790   5.610   2.301   2.577  0.5002  2.3650 -0.6162
 9433TIP3    H249791   5.637   2.367   2.710 -0.5814 -0.8340  1.3154
 9434TIP3   OH249792   5.337   4.349  11.571  0.1780  0.2675  0.3710
 9434TIP3    H149793   5.386   4.389  11.643 -3.5422 -1.4216  4.2530
 9434TIP3    H249794   5.380   4.265  11.556  1.0483  0.6769  0.5391
 9435TIP3   OH249795   0.420   6.770   3.980  0.1200  0.6372  0.2888
 9435TIP3    H149796   0.348   6.770   3.918  1.1446  0.7440 -0.9535
 9435TIP3    H249797   0.498   6.759   3.925  1.2051  2.5261  1.3669
 9436TIP3   OH249798   1.688   6.097  10.982 -0.3828 -0.5090 -0.4595
 9436TIP3    H149799   1.617   6.098  10.917 -2.3462 -1.1710  1.5601
 9436TIP3    H249800   1.661   6.032  11.047  2.4213 -1.2535  0.1075
 9437TIP3   OH249801   2.678   4.242  16.996 -0.1179  0.2679 -0.8934
 9437TIP3    H149802   2.771   4.234  16.976 -0.3747 -2.0806 -1.5188
 9437TIP3    H249803   2.639   4.275  16.915  0.1771  1.5291 -0.5375
 9438TIP3   OH249804   1.508   5.354  17.212  0.6721  0.3464  0.0984
 9438TIP3    H149805   1.506   5.449  17.226  0.1039  0.2825  0.4493
 9438TIP3    H249806   1.417   5.327  17.216  0.8776 -0.2924  0.5100
 9439TIP3   OH249807   4.157   6.583  13.376 -0.5270 -0.3924 -0.7691
 9439TIP3    H149808   4.188   6.520  13.442  1.0934 -1.0863 -2.1113
 9439TIP3    H249809   4.137   6.529  13.299  2.1441  0.7323 -2.3960
 9440TIP3   OH249810   5.024   2.306  10.566 -0.1365  0.9871  0.9624
 9440TIP3    H149811   5.080   2.370  10.610  2.2752 -0.1808 -0.2465
 9440TIP3    H249812   5.077   2.227  10.561 -1.9194 -0.1975 -0.2797
 9441TIP3   OH249813   4.431   2.153  14.934  0.3076  0.2102  0.1555
 9441TIP3    H149814   4.378   2.232  14.929 -0.1242 -0.1358 -1.1841
 9441TIP3    H249815   4.384   2.088  14.882  0.8198 -0.8430  0.9462
 9442TIP3   OH249816   5.229   6.174  11.380 -0.3351  0.8844 -0.3147
 9442TIP3    H149817   5.183   6.231  11.319 -1.5025  0.7633  0.4082
 9442TIP3    H249818   5.232   6.223  11.462 -0.7628  0.1955  0.1294
 9443TIP3   OH249819   6.005   4.698   4.615 -0.1821  0.2786  0.3072
 9443TIP3    H149820   5.920   4.724   4.650 -0.5363 -0.0949 -0.2644
 9443TIP3    H249821   6.051   4.780   4.599 -1.3724  0.6235 -1.7185
 9444TIP3   OH249822   6.315   2.953  11.971  0.7189  0.5335  0.3326
 9444TIP3    H149823   6.333   2.866  11.936  1.0493  1.5353 -2.1804
 9444TIP3    H249824   6.397   3.002  11.959 -0.3181  2.0236 -1.1513
 9445TIP3   OH249825   2.074   1.337   0.252 -0.4520 -0.1894  0.3930
 9445TIP3    H149826   2.009   1.354   0.320  1.5313 -1.5594  2.8217
 9445TIP3    H249827   2.155   1.376   0.285  0.5434 -0.6507 -1.3318
 9446TIP3   OH249828   2.379   5.488   5.521  0.1277  0.3578  0.3546
 9446TIP3    H149829   2.351   5.397   5.532  0.6568  0.0042 -0.9655
 9446TIP3    H249830   2.446   5.501   5.588 -1.0772  0.2959  1.6030
 9447TIP3   OH249831   0.336   0.696  12.830  0.3327 -0.3232 -0.3602
 9447TIP3    H149832   0.312   0.621  12.775 -0.1822 -1.5833  1.4978
 9447TIP3    H249833   0.394   0.748  12.774 -2.2997 -0.0193 -3.1063
 9448TIP3   OH249834   5.073   2.340  13.268 -0.0940 -0.0275 -0.6431
 9448TIP3    H149835   5.145   2.277  13.266 -0.9632 -1.1295  1.0699
 9448TIP3    H249836   5.070   2.375  13.179  0.3918 -2.4386 -1.6785
 9449TIP3   OH249837   3.324   5.377   2.801  0.0580  0.1050 -0.1957
 9449TIP3    H149838   3.243   5.325   2.804  0.4886 -0.6117  2.9346
 9449TIP3    H249839   3.319   5.433   2.879  3.0403 -0.7988  0.7926
 9450TIP3   OH249840   3.534   5.488  13.336 -0.1139  0.4578  0.6423
 9450TIP3    H149841   3.605   5.463  13.394 -0.2141 -0.5362  0.3569
 9450TIP3    H249842   3.475   5.412  13.336  0.8670 -0.4534 -2.2605
 9451TIP3   OH249843   0.435   3.727   3.131 -0.1407 -0.1366 -0.2114
 9451TIP3    H149844   0.485   3.803   3.162  1.3052 -0.4641 -1.5852
 9451TIP3    H249845   0.485   3.695   3.056 -0.8115 -2.3348  0.2004
 9452TIP3   OH249846   0.386   5.001  17.257  0.3510 -0.0071 -0.1804
 9452TIP3    H149847   0.341   5.080  17.287  0.5060 -0.5066  1.4425
 9452TIP3    H249848   0.454   5.033  17.197  0.2997  1.0696  0.3180
 9453TIP3   OH249849   2.469   2.092   4.713 -0.4504  0.7231 -0.0861
 9453TIP3    H149850   2.375   2.078   4.726 -0.7298  1.9087 -0.7210
 9453TIP3    H249851   2.478   2.186   4.699  1.0317  0.8417  1.4477
 9454TIP3   OH249852   1.788   1.074   0.350  0.0799  0.0360 -0.1037
 9454TIP3    H149853   1.753   1.013   0.284 -0.1978  0.4887 -0.3823
 9454TIP3    H249854   1.811   1.153   0.300 -1.0076  0.7417  0.4675
 9455TIP3   OH249855   0.466   2.587  14.549  0.3348 -0.0993  0.2865
 9455TIP3    H149856   0.454   2.516  14.486 -0.0121 -0.2662  0.5327
 9455TIP3    H249857   0.377   2.617  14.567  0.5294  0.8972 -0.3769
 9456TIP3   OH249858   5.662   2.116   3.205  0.3489 -0.1574 -0.2146
 9456TIP3    H149859   5.745   2.069   3.199  0.1921 -0.2610 -2.4146
 9456TIP3    H249860   5.687   2.207   3.223  0.9513 -0.1874 -0.8575
 9457TIP3   OH249861   0.017   2.991   0.887 -0.1261 -0.6868 -0.2352
 9457TIP3    H149862  -0.038   3.038   0.949 -1.8522  0.3707 -2.4252
 9457TIP3    H249863  -0.039   2.921   0.853  0.5096 -0.7703 -1.1616
 9458TIP3   OH249864   4.517   0.730   2.322  0.2149 -0.0169  0.1936
 9458TIP3    H149865   4.468   0.740   2.241  0.0957 -0.1650  0.2489
 9458TIP3    H249866   4.602   0.771   2.304  0.2363 -0.1707 -0.0479
 9459TIP3   OH249867   5.572   6.573  11.492 -0.1689 -0.0156  0.3763
 9459TIP3    H149868   5.596   6.482  11.508  1.2487  0.3343  0.4206
 9459TIP3    H249869   5.571   6.613  11.579 -1.0925 -0.0452  0.3877
 9460TIP3   OH249870   1.474   5.655   0.477 -0.2100 -0.5131 -0.1981
 9460TIP3    H149871   1.510   5.716   0.542  1.2613 -2.3922  0.8695
 9460TIP3    H249872   1.392   5.695   0.450  0.0718  1.3145  1.3798
 9461TIP3   OH249873   1.276   4.149  16.374 -0.5698  0.1458  0.1167
 9461TIP3    H149874   1.352   4.172  16.322  0.6842 -1.3793  1.1654
 9461TIP3    H249875   1.210   4.122  16.310  1.1122 -2.2434 -0.7392
 9462TIP3   OH249876   0.002   5.303   2.401  0.0943  0.3475  0.1143
 9462TIP3    H149877   0.050   5.341   2.475  1.1720 -0.9361  0.1194
 9462TIP3    H249878   0.005   5.370   2.333 -0.1859  1.2208  0.9319
 9463TIP3   OH249879   5.224   0.201   3.848  0.3710  0.7049 -0.0963
 9463TIP3    H149880   5.226   0.168   3.938 -1.0487 -0.2193 -0.3713
 9463TIP3    H249881   5.131   0.217   3.831  0.4286 -0.6542 -1.9327
 9464TIP3   OH249882   2.841   6.708   1.743 -0.2003 -0.0525  0.6324
 9464TIP3    H149883   2.776   6.717   1.813 -2.3821  2.2578 -1.4896
 9464TIP3    H249884   2.901   6.781   1.756  0.5993 -0.7809  1.1758
 9465TIP3   OH249885   1.078   0.825   2.595 -0.6202 -0.3168 -0.4510
 9465TIP3    H149886   1.154   0.781   2.633  1.0855  2.8317  0.0257
 9465TIP3    H249887   1.109   0.859   2.511 -1.3187  1.3661 -0.0658
 9466TIP3   OH249888   3.418   1.551   1.562  0.0457  0.1181  0.3955
 9466TIP3    H149889   3.418   1.498   1.482  0.3911 -0.9918  1.1090
 9466TIP3    H249890   3.507   1.541   1.597 -0.1166  0.5442  0.9445
 9467TIP3   OH249891   4.929   0.850  14.232 -0.4699  1.0971  0.5899
 9467TIP3    H149892   5.007   0.797  14.247 -0.5880  1.0457  1.0333
 9467TIP3    H249893   4.904   0.882  14.319 -1.6854  0.0845  0.6402
 9468TIP3   OH249894   1.977   5.671  12.625 -0.6085 -0.1360  0.6813
 9468TIP3    H149895   1.929   5.735  12.677 -1.4149  0.4244 -0.7171
 9468TIP3    H249896   2.063   5.711  12.610 -0.0729 -0.6351  2.1806
 9469TIP3   OH249897   5.543   4.419  14.687 -0.1624  0.2247 -0.2698
 9469TIP3    H149898   5.479   4.361  14.645 -0.2906  0.3586 -0.2581
 9469TIP3    H249899   5.497   4.456  14.762 -0.0742  0.3245 -0.2641
 9470TIP3   OH249900   1.523   5.422   4.122 -0.0930  0.1945  0.5059
 9470TIP3    H149901   1.438   5.449   4.087 -0.0845  0.8001  0.9486
 9470TIP3    H249902   1.578   5.500   4.114  0.7020 -0.4616 -0.6454
 9471TIP3   OH249903   0.798   2.454   4.477  0.1559 -0.3005 -0.0247
 9471TIP3    H149904   0.849   2.373   4.472 -0.2267 -0.4874 -1.9811
 9471TIP3    H249905   0.782   2.477   4.385 -0.3898  1.5891  0.5086
 9472TIP3   OH249906   4.737   6.702  13.677  0.0065  0.0396 -0.1634
 9472TIP3    H149907   4.703   6.630  13.623  0.7030  0.2629 -0.9160
 9472TIP3    H249908   4.659   6.741  13.715 -0.4067 -0.9341  0.0366
 9473TIP3   OH249909   6.635   3.608   0.753 -0.3904 -0.5638 -0.0934
 9473TIP3    H149910   6.724   3.584   0.777 -0.8810 -0.3210  2.1806
 9473TIP3    H249911   6.598   3.648   0.832 -2.0515  0.7053 -1.4160
 9474TIP3   OH249912   4.264   3.817  16.963  0.1390 -0.4600  0.1302
 9474TIP3    H149913   4.187   3.804  16.907  0.4565 -0.0505 -0.4228
 9474TIP3    H249914   4.298   3.903  16.936  1.0913 -0.8700 -0.0024
 9475TIP3   OH249915   5.878   4.620  12.212 -0.1805 -0.1508  0.8187
 9475TIP3    H149916   5.899   4.693  12.270  0.8639 -0.2129  0.5430
 9475TIP3    H249917   5.876   4.659  12.124  1.6521 -0.6495  0.5152
 9476TIP3   OH249918   6.471   1.672   0.879  0.7802 -0.0113  0.5697
 9476TIP3    H149919   6.427   1.632   0.804  1.9252 -0.2455 -0.0097
 9476TIP3    H249920   6.468   1.766   0.862  1.0272 -0.0641  0.2329
 9477TIP3   OH249921   5.743   5.801  14.635 -0.2025  0.4235  0.0364
 9477TIP3    H149922   5.672   5.845  14.587  0.1612  0.1308 -0.7938
 9477TIP3    H249923   5.821   5.819  14.583  0.1979  0.0877  0.5191
 9478TIP3   OH249924   4.983   1.948   5.761  0.3570 -0.1124 -0.8630
 9478TIP3    H149925   5.050   1.945   5.830  0.3408 -2.5849 -0.8564
 9478TIP3    H249926   4.913   2.002   5.797  0.6473 -0.7994  0.8159
 9479TIP3   OH249927   2.897   2.121   1.128 -0.0909  0.7299  0.0727
 9479TIP3    H149928   2.870   2.146   1.040 -0.1243 -4.3962 -1.6429
 9479TIP3    H249929   2.973   2.176   1.146 -0.1985  2.1063 -3.0349
 9480TIP3   OH249930   0.837   1.199   4.874 -0.1007 -0.0132  0.1176
 9480TIP3    H149931   0.770   1.132   4.861  0.5979 -0.6342 -0.3977
 9480TIP3    H249932   0.851   1.200   4.968 -1.0934  0.3870  0.2684
 9481TIP3   OH249933   4.655   1.993  16.168 -0.3258  0.0032 -0.0975
 9481TIP3    H149934   4.669   2.056  16.097 -0.2627  1.1519  0.9151
 9481TIP3    H249935   4.642   2.047  16.246 -0.7045 -1.2350  0.7178
 9482TIP3   OH249936   5.327   4.175   4.603 -0.1816 -0.4554 -0.4066
 9482TIP3    H149937   5.361   4.263   4.588  1.6487 -1.0116  0.2339
 9482TIP3    H249938   5.282   4.180   4.687 -0.2104 -0.0975 -0.4441
 9483TIP3   OH249939   3.482   4.312   0.875  0.3003  0.2314 -0.3426
 9483TIP3    H149940   3.505   4.220   0.886  1.1928  0.5099  0.2363
 9483TIP3    H249941   3.494   4.329   0.782  1.4247  0.0833 -0.2390
 9484TIP3   OH249942   5.045   1.162   2.244 -0.0504  0.9568  0.6565
 9484TIP3    H149943   5.018   1.253   2.237  0.7302  1.1686  0.3294
 9484TIP3    H249944   5.045   1.144   2.338  1.3087  1.7730  0.8405
 9485TIP3   OH249945   6.313   2.252  11.921  0.3106 -0.2608  0.2868
 9485TIP3    H149946   6.257   2.330  11.916 -0.7870 -1.1193 -2.0111
 9485TIP3    H249947   6.261   2.187  11.968 -0.1626 -0.6767 -0.7966
 9486TIP3   OH249948   1.276   2.036  13.097  0.7451  0.3516 -0.3115
 9486TIP3    H149949   1.363   2.077  13.095 -0.2924  2.6627 -0.5960
 9486TIP3    H249950   1.228   2.077  13.025  0.1714 -2.8611 -1.9265
 9487TIP3   OH249951   6.089   1.193   6.723  0.2788 -0.6096  0.0789
 9487TIP3    H149952   6.073   1.242   6.642 -0.2868  0.6844  0.9356
 9487TIP3    H249953   6.027   1.121   6.719  0.0269 -0.3760 -0.4967
 9488TIP3   OH249954   6.287   5.000  12.818  0.3472  0.1534 -0.4566
 9488TIP3    H149955   6.271   4.956  12.734 -1.6088 -0.3462  0.1122
 9488TIP3    H249956   6.290   5.093  12.796 -0.0773  0.0228 -1.1143
 9489TIP3   OH249957   4.763   6.582   6.182 -0.5007  0.8788  0.2182
 9489TIP3    H149958   4.733   6.617   6.266 -0.9578  2.9487 -0.7333
 9489TIP3    H249959   4.794   6.659   6.134  0.8741 -0.4219 -1.0718
 9490TIP3   OH249960   0.500   3.818   2.004 -0.1495 -0.0370 -0.4515
 9490TIP3    H149961   0.544   3.772   1.933  0.8771  0.2833 -0.0420
 9490TIP3    H249962   0.561   3.814   2.078 -0.7905  0.4502  0.1259
 9491TIP3   OH249963   1.314   4.036   3.010  0.0602 -0.4674 -0.2329
 9491TIP3    H149964   1.259   4.114   3.017  1.4885  0.4766  1.7651
 9491TIP3    H249965   1.322   4.004   3.100  1.8523 -1.1715 -0.5866
 9492TIP3   OH249966   4.300   2.906  13.217  0.2400 -0.3156  0.1700
 9492TIP3    H149967   4.366   2.907  13.148  1.9373 -1.4047  1.7064
 9492TIP3    H249968   4.237   2.840  13.188  1.0167 -0.8908 -0.2620
 9493TIP3   OH249969   3.020   3.957   2.508  0.4759 -0.1420 -0.4005
 9493TIP3    H149970   3.099   4.000   2.542 -0.5643 -0.2290  2.3110
 9493TIP3    H249971   3.028   3.966   2.413  2.6107  1.8650 -0.1259
 9494TIP3   OH249972   0.649   3.175   0.680  0.6372 -0.5271  0.2055
 9494TIP3    H149973   0.563   3.206   0.710  0.1423 -0.9831 -0.7092
 9494TIP3    H249974   0.707   3.250   0.693 -0.3741  0.5554 -1.2039
 9495TIP3   OH249975   0.049   2.701   5.691  0.1808 -0.6546  0.5357
 9495TIP3    H149976   0.014   2.616   5.666  0.9971 -0.8922  0.1574
 9495TIP3    H249977   0.104   2.684   5.767 -0.9233 -0.1996  1.4672
 9496TIP3   OH249978   0.211   0.339   3.719 -1.0735  0.3445 -0.4076
 9496TIP3    H149979   0.202   0.320   3.626 -1.0311  0.7699 -0.4999
 9496TIP3    H249980   0.276   0.409   3.723 -0.8404  0.1104 -0.0356
 9497TIP3   OH249981   3.134   3.999   5.666  0.1631  0.2011 -0.6417
 9497TIP3    H149982   3.184   4.037   5.593 -0.2386  0.7856 -0.6219
 9497TIP3    H249983   3.138   4.066   5.734 -0.1381 -0.0036 -0.4215
 9498TIP3   OH249984   5.491   5.678   1.373 -0.2637  0.0208 -0.0815
 9498TIP3    H149985   5.456   5.763   1.347 -1.6365 -0.4715  0.0975
 9498TIP3    H249986   5.586   5.687   1.361 -0.4343  1.3746 -0.6195
 9499TIP3   OH249987   3.640   5.846   3.109  0.0803 -0.1323 -0.2474
 9499TIP3    H149988   3.548   5.864   3.087 -0.6783 -2.8985  0.2337
 9499TIP3    H249989   3.646   5.861   3.203 -0.3747 -1.5093  0.0301
 9500TIP3   OH249990   6.412   2.852   5.513  0.2652  0.0227 -0.7905
 9500TIP3    H149991   6.404   2.838   5.608  0.1083  0.3691 -0.7501
 9500TIP3    H249992   6.424   2.764   5.477 -1.2528 -0.2878 -0.6087
 9501TIP3   OH249993   5.009   2.581  11.375  0.0365 -0.5407  0.0346
 9501TIP3    H149994   4.985   2.601  11.285  3.6699  0.9888 -0.7762
 9501TIP3    H249995   4.965   2.648  11.427 -2.6900 -1.8820 -0.4056
 9502TIP3   OH249996   3.604   1.764   0.020  0.0387 -0.4567 -0.0385
 9502TIP3    H149997   3.694   1.758  -0.015  0.3022 -1.1600  0.7228
 9502TIP3    H249998   3.548   1.742  -0.054  0.5067 -0.2107 -0.4716
 9503TIP3   OH249999   6.279   6.547   3.384 -0.4050 -0.1605  0.1842
 9503TIP3    H150000   6.365   6.508   3.400  0.0151  0.6847  0.0289
 9503TIP3    H250001   6.235   6.547   3.469  1.0610  2.5315  1.0597
 9504TIP3   OH250002   5.516   2.494  13.855  0.3972  0.3909  0.4385
 9504TIP3    H150003   5.586   2.550  13.822  0.2397  0.6979  0.6211
 9504TIP3    H250004   5.530   2.410  13.811  0.3369  0.7170 -0.2140
 9505TIP3   OH250005   2.985   3.140   5.612  0.4500 -0.0325 -0.3544
 9505TIP3    H150006   2.894   3.142   5.581  0.2737 -0.6150  0.1176
 9505TIP3    H250007   3.031   3.202   5.554 -0.1546 -0.0565 -0.8752
 9506TIP3   OH250008   4.208   4.277  12.293 -0.0704  0.0448  0.4585
 9506TIP3    H150009   4.147   4.206  12.274  1.3055 -1.3884  1.1394
 9506TIP3    H250010   4.162   4.333  12.356 -1.2217 -0.1695 -0.1764
 9507TIP3   OH250011   6.550   4.629  14.998 -0.3524 -0.1060  0.2622
 9507TIP3    H150012   6.574   4.580  15.077 -1.4362 -1.7036 -0.3390
 9507TIP3    H250013   6.553   4.564  14.928  0.8528  1.3391 -1.1038
 9508TIP3   OH250014   6.766   6.554   2.493  0.1996  0.4049  0.1214
 9508TIP3    H150015   6.775   6.571   2.586  0.1099  2.7625 -0.2398
 9508TIP3    H250016   6.847   6.510   2.468  0.5601  0.4720  1.1437
 9509TIP3   OH250017   5.763   5.723  13.417  0.4679 -0.1016 -0.6198
 9509TIP3    H150018   5.710   5.712  13.338 -1.2790 -0.3541  0.5300
 9509TIP3    H250019   5.777   5.818  13.423 -0.5793  0.0572 -0.5057
 9510TIP3   OH250020   5.880   3.388  16.762 -0.2532 -0.1003  0.4752
 9510TIP3    H150021   5.884   3.425  16.850  1.9150 -1.0942  0.8566
 9510TIP3    H250022   5.847   3.299  16.774  0.2899 -0.3271  0.3361
 9511TIP3   OH250023   1.548   0.849  16.309  0.4240 -0.1152 -0.3022
 9511TIP3    H150024   1.560   0.893  16.393  0.7213 -0.5614 -0.1096
 9511TIP3    H250025   1.455   0.826  16.307  0.7586 -1.6734  0.6945
 9512TIP3   OH250026   3.520   6.598   2.773 -0.0170 -0.5473  0.4222
 9512TIP3    H150027   3.499   6.639   2.690 -0.0878  0.4267  0.9082
 9512TIP3    H250028   3.571   6.664   2.820 -1.7744 -0.2245  2.0007
 9513TIP3   OH250029   0.612   5.645  14.526 -0.6038 -0.1219 -0.7366
 9513TIP3    H150030   0.593   5.644  14.620  0.9624 -0.4278 -0.3835
 9513TIP3    H250031   0.627   5.738  14.505 -4.1196  0.4243 -1.4622
 9514TIP3   OH250032   4.783   0.354   4.749  0.2185  0.1858 -0.3596
 9514TIP3    H150033   4.813   0.277   4.699  0.4172  0.9935 -1.5409
 9514TIP3    H250034   4.775   0.323   4.839 -0.0284 -1.3085 -0.8612
 9515TIP3   OH250035   0.275   2.591   3.968 -0.1388  0.0242  0.6020
 9515TIP3    H150036   0.184   2.595   3.938  0.1204 -0.6884 -0.3157
 9515TIP3    H250037   0.303   2.683   3.974 -0.2225  0.2070 -1.3226
 9516TIP3   OH250038   0.865   3.770   3.017 -0.2024  0.2023 -1.0611
 9516TIP3    H150039   0.878   3.816   2.934  2.4978  2.4956  0.4261
 9516TIP3    H250040   0.937   3.708   3.022 -1.4103 -1.2602 -1.1733
 9517TIP3   OH250041   3.185   4.710  15.844  0.6435 -0.2155  0.6209
 9517TIP3    H150042   3.091   4.715  15.858  0.3859  1.6288 -1.3093
 9517TIP3    H250043   3.196   4.658  15.765  1.0772  1.1841 -0.2743
 9518TIP3   OH250044   0.725   4.315   4.608  0.6567 -0.0424 -0.0296
 9518TIP3    H150045   0.696   4.396   4.651 -1.8316 -0.4737 -0.7216
 9518TIP3    H250046   0.739   4.253   4.680  0.0402  0.2631  0.3578
 9519TIP3   OH250047   6.088   6.113  15.061  0.0005 -0.1729 -0.6434
 9519TIP3    H150048   6.113   6.054  14.990 -0.2670 -1.9990  0.7338
 9519TIP3    H250049   6.170   6.133  15.106 -0.2221 -1.7906  0.5688
 9520TIP3   OH250050   4.833   4.031  15.480 -0.6233  0.0818  0.5027
 9520TIP3    H150051   4.831   3.955  15.422 -2.0634  0.2548  0.2822
 9520TIP3    H250052   4.925   4.056  15.484 -0.2883 -0.9295 -0.3860
 9521TIP3   OH250053   2.101   5.356  11.689  0.0931 -0.0709 -0.1279
 9521TIP3    H150054   2.126   5.308  11.610 -1.1554 -3.0861  1.1468
 9521TIP3    H250055   2.179   5.353  11.745  0.6920  1.2951 -0.8530
 9522TIP3   OH250056   1.556   2.221  16.567 -0.5209  0.3846 -0.3985
 9522TIP3    H150057   1.620   2.168  16.520 -0.3754  0.7092 -0.5676
 9522TIP3    H250058   1.563   2.308  16.528  0.1909  0.8760  0.7664
 9523TIP3   OH250059   5.677   3.385  12.142  0.2043  0.1419  0.0076
 9523TIP3    H150060   5.722   3.331  12.076  0.8355  1.0640 -0.3519
 9523TIP3    H250061   5.664   3.327  12.216 -1.4625 -1.2343 -1.2921
 9524TIP3   OH250062   4.143   0.326   2.353 -0.0271  0.5868  0.4159
 9524TIP3    H150063   4.209   0.390   2.379 -0.1145  0.5170  0.8119
 9524TIP3    H250064   4.095   0.307   2.433  1.5324 -1.7865  0.8647
 9525TIP3   OH250065   3.210   5.327  13.941  0.1041  0.3760 -0.2386
 9525TIP3    H150066   3.230   5.410  13.898  1.3342  0.1379 -0.1552
 9525TIP3    H250067   3.295   5.283  13.950 -0.7474 -2.2622 -3.0890
 9526TIP3   OH250068   6.364   6.304  15.606  0.8033  0.1363 -0.2051
 9526TIP3    H150069   6.316   6.238  15.656  0.2880  0.5094 -0.2050
 9526TIP3    H250070   6.299   6.345  15.550  1.3689 -0.2381 -1.1564
 9527TIP3   OH250071   6.713   5.649   2.884  0.2566  0.1936 -0.5186
 9527TIP3    H150072   6.791   5.628   2.936 -1.0218  1.0701  1.9199
 9527TIP3    H250073   6.655   5.574   2.898 -0.4018  0.7849 -0.0250
 9528TIP3   OH250074   5.257   3.812  16.982 -0.0344  0.0506  0.5027
 9528TIP3    H150075   5.190   3.870  17.017 -0.2836  0.2296 -0.2372
 9528TIP3    H250076   5.255   3.736  17.039  0.6392  0.9638  1.7948
 9529TIP3   OH250077   2.844   2.612   2.686 -0.5766  0.0045  0.1204
 9529TIP3    H150078   2.754   2.643   2.694 -0.8355 -0.7980  0.4427
 9529TIP3    H250079   2.848   2.537   2.745  0.7236  0.9373  1.2991
 9530TIP3   OH250080   0.752   1.992   4.684  0.2210 -0.2932 -0.1214
 9530TIP3    H150081   0.843   1.976   4.661  0.2538  0.7569 -0.8067
 9530TIP3    H250082   0.756   2.047   4.762  0.1622 -0.6287  0.1207
 9531TIP3   OH250083   3.457   3.711  16.888  0.3285  0.5817  0.4268
 9531TIP3    H150084   3.388   3.755  16.938  0.3115 -0.0069  0.9255
 9531TIP3    H250085   3.491   3.780  16.830 -0.7991  0.8307  0.0237
 9532TIP3   OH250086   0.166   6.824  15.438  0.0623 -0.3453 -0.1921
 9532TIP3    H150087   0.102   6.832  15.508 -1.3648  0.7493 -1.5428
 9532TIP3    H250088   0.143   6.743  15.393 -0.6419  0.2258 -0.8914
 9533TIP3   OH250089   2.528   4.873  13.310  0.0733 -0.1439 -0.0617
 9533TIP3    H150090   2.610   4.825  13.307 -0.0292 -0.2724 -1.3735
 9533TIP3    H250091   2.510   4.885  13.404  0.8535 -1.3457  0.2573
 9534TIP3   OH250092   4.089   4.584   5.552 -0.3660  0.3000  0.2754
 9534TIP3    H150093   4.026   4.653   5.532 -1.1281 -0.6510 -0.7345
 9534TIP3    H250094   4.171   4.614   5.514 -0.8609  0.3443 -0.7894
 9535TIP3   OH250095   2.198   3.212  13.130  0.2223 -0.2308  0.4198
 9535TIP3    H150096   2.249   3.290  13.149 -1.6995  1.3890 -0.7474
 9535TIP3    H250097   2.207   3.158  13.209  4.0042 -0.2848  0.1219
 9536TIP3   OH250098   6.389   4.087   0.142 -0.4739  0.0806  0.3184
 9536TIP3    H150099   6.309   4.039   0.159 -1.3709  1.7862  1.1680
 9536TIP3    H250100   6.377   4.124   0.054  0.4357 -1.5609 -0.5590
 9537TIP3   OH250101   1.479   3.046  16.551 -0.1324 -0.4691 -0.2360
 9537TIP3    H150102   1.473   3.118  16.614  0.2052 -0.5427 -0.1183
 9537TIP3    H250103   1.402   3.057  16.495 -0.1046 -0.0378 -0.1972
 9538TIP3   OH250104   1.258   3.719  10.930 -0.1280  0.1405  0.3865
 9538TIP3    H150105   1.192   3.733  10.997 -0.5858 -0.2899  0.0393
 9538TIP3    H250106   1.207   3.704  10.850  0.2793 -2.6626  0.5549
 9539TIP3   OH250107   1.669   5.353   0.462 -0.2593 -0.4007 -0.4975
 9539TIP3    H150108   1.688   5.396   0.545 -1.1718 -0.5702 -0.1880
 9539TIP3    H250109   1.578   5.325   0.470 -0.6652  0.4143 -1.9244
 9540TIP3   OH250110   1.486   6.347  10.668 -0.4459  0.6652 -0.1524
 9540TIP3    H150111   1.391   6.353  10.653 -0.5189 -0.7729 -0.3577
 9540TIP3    H250112   1.524   6.399  10.597 -1.0392  0.0919 -0.9082
 9541TIP3   OH250113   6.718   4.732   5.256 -0.3324 -0.4622 -0.2563
 9541TIP3    H150114   6.666   4.809   5.279  0.1643 -0.2228  0.0786
 9541TIP3    H250115   6.703   4.720   5.163 -1.7283 -0.9582  0.0045
 9542TIP3   OH250116   3.495   4.831   2.484 -0.0867 -0.6434  0.4226
 9542TIP3    H150117   3.400   4.844   2.487 -0.1891 -1.4353  3.1045
 9542TIP3    H250118   3.507   4.737   2.495  1.0186 -0.8235 -1.8227
 9543TIP3   OH250119   3.081   5.200   2.822 -0.3457  0.2982  0.3324
 9543TIP3    H150120   3.034   5.224   2.742  0.7593  0.8264 -0.1684
 9543TIP3    H250121   3.061   5.107   2.834 -0.2711  0.1337 -0.7356
 9544TIP3   OH250122   2.587   0.264  15.164  0.3249  0.8131  0.3915
 9544TIP3    H150123   2.633   0.280  15.247  2.0979  1.1292 -0.5942
 9544TIP3    H250124   2.560   0.351  15.135  0.1075  0.7513  0.4073
 9545TIP3   OH250125   2.828   3.667   1.353 -0.1870 -0.1607  0.1455
 9545TIP3    H150126   2.778   3.598   1.310  0.2276  0.6007 -1.6523
 9545TIP3    H250127   2.764   3.711   1.410 -1.2249 -0.0892 -1.0332
 9546TIP3   OH250128   4.905   4.095  16.264 -0.2427  0.0066 -0.2791
 9546TIP3    H150129   4.965   4.062  16.331 -1.5329  0.4225  1.1441
 9546TIP3    H250130   4.819   4.062  16.291 -0.8428  0.4965 -1.5379
 9547TIP3   OH250131   3.693   4.422  12.214 -0.0579 -0.6939 -0.0893
 9547TIP3    H150132   3.638   4.368  12.158 -0.5975 -0.1214 -0.1216
 9547TIP3    H250133   3.658   4.408  12.302  0.0700 -0.7273 -0.0446
 9548TIP3   OH250134   3.773   1.640   0.876 -0.1955  0.1277  0.9044
 9548TIP3    H150135   3.704   1.622   0.813 -0.4012 -0.1181  1.1973
 9548TIP3    H250136   3.804   1.728   0.854  0.6372 -0.4546 -0.3754
 9549TIP3   OH250137   3.629   6.690   6.960 -0.3241 -0.0581 -0.5081
 9549TIP3    H150138   3.614   6.770   6.910  0.7508  0.1857 -0.4521
 9549TIP3    H250139   3.724   6.681   6.964 -0.1724  1.3659  3.6833
 9550TIP3   OH250140   5.958   0.819  12.879 -0.3105 -0.2157 -0.3856
 9550TIP3    H150141   5.972   0.906  12.917  0.0919 -0.7807  0.7868
 9550TIP3    H250142   5.877   0.828  12.828 -0.5766  0.7071  0.1784
 9551TIP3   OH250143   1.916   5.279   5.939 -0.1317 -0.2077  0.3462
 9551TIP3    H150144   1.911   5.359   5.990 -0.9143 -0.2095  0.2798
 9551TIP3    H250145   1.932   5.210   6.004  0.9150  0.0353  0.3630
 9552TIP3   OH250146   6.429   0.055  12.229  0.0508 -0.7731  0.5434
 9552TIP3    H150147   6.356   0.116  12.218 -0.1838 -1.2153 -0.4608
 9552TIP3    H250148   6.506   0.111  12.238 -0.2254 -0.3190  0.1527
 9553TIP3   OH250149   6.605   3.463  15.822  0.4672  0.7308  0.7617
 9553TIP3    H150150   6.614   3.382  15.772 -1.4202  0.2478  1.1071
 9553TIP3    H250151   6.644   3.443  15.907  0.4061  0.3295  0.6969
 9554TIP3   OH250152   4.308   0.667  12.227 -0.2498 -0.1383  0.1065
 9554TIP3    H150153   4.275   0.638  12.312  0.5622 -0.3422  0.3589
 9554TIP3    H250154   4.375   0.602  12.203  0.2122  0.4514 -0.2332
 9555TIP3   OH250155   3.371   4.729   3.455 -0.1074  0.2859 -0.3115
 9555TIP3    H150156   3.354   4.641   3.423  1.2231 -0.2913  0.4923
 9555TIP3    H250157   3.291   4.778   3.435 -1.5855 -1.5412  0.8551
 9556TIP3   OH250158   3.722   4.319  14.679  0.2500 -0.3381  0.5595
 9556TIP3    H150159   3.744   4.356  14.594 -1.8810 -2.0160 -0.8168
 9556TIP3    H250160   3.793   4.258  14.699  0.8266  0.1583  0.0604
 9557TIP3   OH250161   0.419   5.597  13.122  0.2936  0.1318  0.0472
 9557TIP3    H150162   0.475   5.565  13.193 -0.4209  0.3994  0.7527
 9557TIP3    H250163   0.439   5.541  13.048  0.3644 -0.7753  0.7393
 9558TIP3   OH250164   4.653   0.125  16.524  0.7846  0.8798 -0.1065
 9558TIP3    H150165   4.740   0.093  16.544 -0.0081 -1.4877 -0.1449
 9558TIP3    H250166   4.594   0.069  16.575 -0.8400  0.3926 -2.3570
 9559TIP3   OH250167   4.843   2.651   0.984 -0.4590  0.5116  0.0023
 9559TIP3    H150168   4.749   2.644   0.998 -0.5855  0.2616 -0.8999
 9559TIP3    H250169   4.854   2.639   0.889  0.6181 -1.1279  0.2953
 9560TIP3   OH250170   2.223   6.030  11.542  0.3035 -0.3785 -0.0834
 9560TIP3    H150171   2.263   6.105  11.585 -1.1582  0.0632  0.5765
 9560TIP3    H250172   2.171   6.067  11.471  0.3481 -0.8614 -0.3734
 9561TIP3   OH250173   2.765   0.562  12.849 -0.1352  0.5170 -0.2281
 9561TIP3    H150174   2.751   0.623  12.776 -0.3859 -0.0483 -0.6618
 9561TIP3    H250175   2.695   0.497  12.839 -0.0479  0.3238  0.4035
 9562TIP3   OH250176   6.559   1.195   2.224 -0.5662  0.5019  0.8345
 9562TIP3    H150177   6.601   1.244   2.153 -0.7643 -2.9105 -1.9212
 9562TIP3    H250178   6.623   1.197   2.295  1.7593  0.3004 -1.1210
 9563TIP3   OH250179   4.113   4.216   6.306 -0.3491  0.4990 -0.1783
 9563TIP3    H150180   4.088   4.123   6.308 -0.4179  0.5248  0.2470
 9563TIP3    H250181   4.166   4.228   6.385 -1.0193  1.0132  0.2050
 9564TIP3   OH250182   3.630   1.942   4.807  0.3813 -0.4238  0.2263
 9564TIP3    H150183   3.564   1.890   4.852  1.5379 -1.8474  0.3418
 9564TIP3    H250184   3.582   1.984   4.735 -0.6590 -1.3058  0.3787
 9565TIP3   OH250185   5.573   1.465   5.159 -0.1134 -0.2200 -0.5678
 9565TIP3    H150186   5.641   1.522   5.196 -2.6727  1.2479  2.2901
 9565TIP3    H250187   5.595   1.378   5.191  0.9252  0.0572 -0.4747
 9566TIP3   OH250188   0.446   4.835  16.996 -0.3167  0.5358  0.1691
 9566TIP3    H150189   0.364   4.865  16.956 -0.3630  0.5858  0.2999
 9566TIP3    H250190   0.421   4.811  17.086 -0.1549  0.7063  0.2590
 9567TIP3   OH250191   2.119   4.191   2.292 -0.0740 -0.8314  0.2162
 9567TIP3    H150192   2.145   4.200   2.201 -0.3178 -1.0948  0.1203
 9567TIP3    H250193   2.201   4.200   2.341  0.0385 -0.5541 -0.0167
 9568TIP3   OH250194   1.404   3.061  10.692 -0.5034  0.4190 -0.9950
 9568TIP3    H150195   1.327   3.041  10.744 -0.1288 -0.1932 -0.6691
 9568TIP3    H250196   1.371   3.117  10.621 -0.9978  1.3264 -0.0681
 9569TIP3   OH250197   3.869   5.375   5.240  0.0307 -0.3698  0.0499
 9569TIP3    H150198   3.952   5.397   5.282  0.0748 -1.3414  0.4838
 9569TIP3    H250199   3.847   5.453   5.189  1.3359 -0.2003 -0.2812
 9570TIP3   OH250200   2.626   3.965   3.463  0.1835  0.2226  0.2655
 9570TIP3    H150201   2.580   3.893   3.419 -1.5868  2.5522 -2.0883
 9570TIP3    H250202   2.590   3.966   3.552  0.9101 -2.2618  0.6454
 9571TIP3   OH250203   1.131   3.051  16.874 -0.0542 -0.0629 -0.1025
 9571TIP3    H150204   1.209   3.035  16.821 -0.1036 -1.7632  0.2749
 9571TIP3    H250205   1.165   3.065  16.962 -0.0499  1.5428 -0.3383
 9572TIP3   OH250206   0.371   6.712   1.383  0.1921  0.6994 -0.4122
 9572TIP3    H150207   0.397   6.681   1.296  0.4923  0.2576 -0.1701
 9572TIP3    H250208   0.420   6.656   1.443 -2.0643 -0.8486  0.1021
 9573TIP3   OH250209   0.050   2.097   1.649  0.1691 -0.6270 -0.1847
 9573TIP3    H150210   0.066   2.191   1.655  1.9984 -0.8729 -0.4774
 9573TIP3    H250211   0.061   2.078   1.555 -1.7038 -0.9090 -0.3691
 9574TIP3   OH250212   5.008   3.949  10.305  0.4692 -0.1991  0.1126
 9574TIP3    H150213   4.933   3.899  10.336 -0.2475  0.1253 -1.0375
 9574TIP3    H250214   5.084   3.909  10.348 -0.4121  0.0133  1.9865
 9575TIP3   OH250215   3.193   3.005  14.931 -0.1320  0.2379  0.3052
 9575TIP3    H150216   3.196   3.047  14.845  0.5459  0.3871  0.3964
 9575TIP3    H250217   3.283   3.009  14.962 -0.4543  0.5650  1.2104
 9576TIP3   OH250218   2.367   5.850   4.280 -0.2004  0.3242 -0.4990
 9576TIP3    H150219   2.365   5.908   4.204 -1.1774  1.1725  0.1532
 9576TIP3    H250220   2.397   5.905   4.352 -1.9687  0.2923  0.3097
 9577TIP3   OH250221   4.675   6.035   2.360 -0.7220  0.1024  0.4015
 9577TIP3    H150222   4.581   6.038   2.343 -0.5700  1.2224 -0.3698
 9577TIP3    H250223   4.687   6.091   2.437 -0.8604 -1.3727  1.5440
 9578TIP3   OH250224   4.549   3.652   3.315 -0.2284 -0.2911 -0.0272
 9578TIP3    H150225   4.614   3.653   3.245  0.4582 -0.9057  0.5926
 9578TIP3    H250226   4.465   3.642   3.270 -0.0251  1.5322 -0.9129
 9579TIP3   OH250227   1.949   0.692   4.575 -0.2025 -0.2168  0.1267
 9579TIP3    H150228   1.975   0.784   4.565 -1.9621  0.3521  0.3692
 9579TIP3    H250229   1.864   0.696   4.619  0.4230 -2.0422  1.5997
 9580TIP3   OH250230   3.766   3.296   3.091 -0.2756 -0.0229 -0.1938
 9580TIP3    H150231   3.706   3.239   3.044 -0.9267  0.2345  0.3127
 9580TIP3    H250232   3.795   3.360   3.025 -0.8729  0.0959 -0.3455
 9581TIP3   OH250233   1.711   5.840  14.642  0.3321 -0.0803  0.0904
 9581TIP3    H150234   1.718   5.749  14.672 -0.4334 -0.1402  0.0918
 9581TIP3    H250235   1.690   5.834  14.549  0.7314  0.1051 -0.0164
 9582TIP3   OH250236   6.132   4.686   1.545 -0.1524  0.7436  0.0343
 9582TIP3    H150237   6.223   4.662   1.529 -0.8201 -2.1378  0.0273
 9582TIP3    H250238   6.092   4.690   1.458 -0.5241 -0.4183  0.1294
 9583TIP3   OH250239   2.449   3.997  15.757 -0.2203  0.1249  0.1060
 9583TIP3    H150240   2.473   3.920  15.808 -2.2490 -0.2322  0.6025
 9583TIP3    H250241   2.504   4.067  15.792 -0.0257 -0.5858  1.2533
 9584TIP3   OH250242   1.824   0.777  14.412 -0.0279  0.0104  0.4634
 9584TIP3    H150243   1.834   0.787  14.507 -0.4920 -0.8025  0.6027
 9584TIP3    H250244   1.753   0.714  14.402 -0.8893  1.0839 -0.4410
 9585TIP3   OH250245   2.677   1.752   3.069 -0.0198 -0.1973 -0.1379
 9585TIP3    H150246   2.669   1.794   2.983 -0.9804 -1.6213 -0.8027
 9585TIP3    H250247   2.618   1.801   3.126  0.1082  0.3437 -0.4655
 9586TIP3   OH250248   6.493   2.185  14.620  0.2765 -0.1758 -0.1933
 9586TIP3    H150249   6.554   2.155  14.553  0.1766 -0.1988 -0.2747
 9586TIP3    H250250   6.424   2.118  14.621 -0.2701  0.3500 -0.8126
 9587TIP3   OH250251   3.929   5.133  12.093 -0.2406  0.1585  0.3056
 9587TIP3    H150252   3.862   5.157  12.157 -0.0585 -0.9588  0.9389
 9587TIP3    H250253   3.880   5.095  12.020 -0.2915 -1.5083  1.1521
 9588TIP3   OH250254   4.202   0.053  14.531  0.1644 -0.2695 -0.3519
 9588TIP3    H150255   4.292   0.073  14.556  0.1882  1.5680 -1.7342
 9588TIP3    H250256   4.182   0.113  14.460 -2.1438 -0.7030 -0.1679
 9589TIP3   OH250257   6.365   0.705  12.920  0.2771  0.1433  0.0666
 9589TIP3    H150258   6.363   0.799  12.938 -1.9645  0.4472 -1.3018
 9589TIP3    H250259   6.309   0.667  12.987 -1.1029  0.2055 -0.9896
 9590TIP3   OH250260   4.677   3.837   4.863 -0.1003 -0.9189  0.1060
 9590TIP3    H150261   4.633   3.754   4.880 -1.0060 -0.0264  2.6102
 9590TIP3    H250262   4.748   3.840   4.927  1.5449 -0.8285 -1.6458
 9591TIP3   OH250263   1.252   3.171   2.404  0.4025 -0.1723  0.4805
 9591TIP3    H150264   1.307   3.100   2.370  0.1354 -0.6235  0.9606
 9591TIP3    H250265   1.202   3.130   2.475  1.3111  0.8629  1.7573
 9592TIP3   OH250266   3.009   0.822  15.058 -0.4706  0.1893  0.5737
 9592TIP3    H150267   2.976   0.740  15.093  0.4904  0.0220  1.1315
 9592TIP3    H250268   3.082   0.796  15.001 -2.0578  0.4434 -1.6787
 9593TIP3   OH250269   0.468   6.660  13.131 -0.4421  0.6268 -0.1118
 9593TIP3    H150270   0.486   6.754  13.138  1.4915  0.2062  1.5203
 9593TIP3    H250271   0.388   6.655  13.079 -0.9633  3.2048  0.2938
 9594TIP3   OH250272   5.459   5.048   2.195  0.5118 -0.0071 -0.0600
 9594TIP3    H150273   5.551   5.044   2.223  0.5105  1.5049  0.2626
 9594TIP3    H250274   5.463   5.038   2.100  1.1705  1.2969 -0.2025
 9595TIP3   OH250275   5.147   4.292  15.781  0.0944 -0.3309  0.4239
 9595TIP3    H150276   5.098   4.232  15.837  0.4792 -0.5182  0.5596
 9595TIP3    H250277   5.151   4.374  15.831  0.2879 -0.4455  0.5969
 9596TIP3   OH250278   5.622   6.066  16.018 -0.2608 -0.1526 -0.2359
 9596TIP3    H150279   5.551   6.059  15.955 -0.4607  0.3388 -0.0674
 9596TIP3    H250280   5.580   6.046  16.103 -0.0829 -0.3915 -0.2025
 9597TIP3   OH250281   0.901   5.480   2.540 -0.6050  0.1183 -0.1459
 9597TIP3    H150282   0.814   5.446   2.523 -0.3340  0.0529 -1.5367
 9597TIP3    H250283   0.888   5.573   2.557 -0.7056  0.8933 -3.7225
 9598TIP3   OH250284   0.961   1.967   3.953  0.1834 -0.1025  0.0517
 9598TIP3    H150285   0.992   1.986   3.865 -0.0214  3.5786  0.6360
 9598TIP3    H250286   0.891   1.902   3.941 -0.8460  1.3600 -2.6882
 9599TIP3   OH250287   3.504   2.530   0.580  0.3979  0.4017 -0.1182
 9599TIP3    H150288   3.560   2.462   0.617  1.6124  0.8810 -0.9891
 9599TIP3    H250289   3.419   2.488   0.567  0.8227 -0.6338  0.3389
 9600TIP3   OH250290   2.063   4.236  16.850 -0.0151  0.2742 -0.0181
 9600TIP3    H150291   2.148   4.260  16.812  0.1423 -1.4052 -0.7906
 9600TIP3    H250292   2.085   4.196  16.934 -0.1056  0.6152  0.1678
 9601TIP3   OH250293   2.636   6.502  15.700 -0.1481  0.5370 -0.0365
 9601TIP3    H150294   2.615   6.544  15.616 -1.3122  0.4380  0.1853
 9601TIP3    H250295   2.696   6.563  15.743 -0.6909  1.2992 -0.3291
 9602TIP3   OH250296   5.301   1.339   2.907 -0.6307  0.1638 -0.0495
 9602TIP3    H150297   5.358   1.355   2.832  1.6348 -2.0532  1.0229
 9602TIP3    H250298   5.286   1.244   2.906 -1.5848  0.2551  1.5875
 9603TIP3   OH250299   0.543   2.082  13.884  0.5365 -0.1607  0.1806
 9603TIP3    H150300   0.613   2.094  13.948 -0.1165  2.4642  0.5112
 9603TIP3    H250301   0.480   2.025  13.928  1.8874 -1.6536  0.2937
 9604TIP3   OH250302   0.934   0.290  15.913 -0.0909 -0.0034  0.1413
 9604TIP3    H150303   0.919   0.366  15.856 -1.1786 -0.2844  0.0343
 9604TIP3    H250304   0.876   0.222  15.877  0.2825 -0.6314  0.7206
 9605TIP3   OH250305   4.431   6.551   2.899 -0.0357  0.6003  0.2939
 9605TIP3    H150306   4.338   6.531   2.908  0.5673 -1.8805  1.9511
 9605TIP3    H250307   4.445   6.627   2.956 -0.6198 -0.5995  2.1231
 9606TIP3   OH250308   0.330   0.124  15.071 -0.4861 -0.9811  0.2906
 9606TIP3    H150309   0.250   0.158  15.111  0.4376 -1.1285  2.3950
 9606TIP3    H250310   0.308   0.034  15.047 -0.7380 -1.3167  1.6612
 9607TIP3   OH250311   6.283   1.873  16.036 -0.1083  0.3385 -0.0042
 9607TIP3    H150312   6.317   1.956  16.068  0.3660  0.2380 -0.2232
 9607TIP3    H250313   6.359   1.814  16.039 -0.3668 -0.0032 -0.1246
 9608TIP3   OH250314   6.426   1.565   3.700 -0.7362 -0.1026  0.2317
 9608TIP3    H150315   6.440   1.485   3.649  0.5741 -0.2444  0.7729
 9608TIP3    H250316   6.405   1.534   3.788 -0.1428  0.1352  0.4640
 9609TIP3   OH250317   4.518   6.050   2.833 -0.0874 -0.3280  0.2666
 9609TIP3    H150318   4.601   6.003   2.820 -0.2464 -0.5711  0.1281
 9609TIP3    H250319   4.528   6.093   2.917 -0.1279 -1.0150  0.6293
 9610TIP3   OH250320   6.767   3.392  15.520 -0.4161 -0.5192  0.1884
 9610TIP3    H150321   6.818   3.316  15.547  2.4433  1.4072  0.6189
 9610TIP3    H250322   6.829   3.447  15.472 -2.1994  1.8283  0.3966
 9611TIP3   OH250323   2.690   4.703  12.470  0.0127  0.2296 -0.0808
 9611TIP3    H150324   2.686   4.699  12.566 -1.1155 -0.2416 -0.1313
 9611TIP3    H250325   2.766   4.759  12.452 -1.3069  2.6047  1.1466
 9612TIP3   OH250326   5.562   3.382  14.415  0.4202  0.2574  0.1702
 9612TIP3    H150327   5.558   3.475  14.438 -2.1104  0.5742 -1.1556
 9612TIP3    H250328   5.562   3.381  14.319 -1.4281 -1.0645  0.1189
 9613TIP3   OH250329   1.979   5.489  12.381  0.3379  0.0802 -0.2836
 9613TIP3    H150330   2.053   5.549  12.369 -0.3152  0.6228 -1.8317
 9613TIP3    H250331   1.906   5.545  12.408  0.0380 -0.1841 -0.5397
 9614TIP3   OH250332   5.007   5.911   4.078 -0.1118  0.1981 -0.2230
 9614TIP3    H150333   4.952   5.852   4.026 -0.8760  0.0954  0.6748
 9614TIP3    H250334   4.963   5.916   4.163  1.3516 -0.0262  0.5926
 9615TIP3   OH250335   4.473   4.166   5.029  0.3818  0.8988 -0.7356
 9615TIP3    H150336   4.455   4.101   5.097  0.2486  0.8679 -0.7982
 9615TIP3    H250337   4.471   4.250   5.074 -0.6562  0.9595 -0.8624
 9616TIP3   OH250338   4.253   2.337   5.901  0.0249  0.0160  0.5828
 9616TIP3    H150339   4.239   2.360   5.993 -1.5601  2.7689 -0.2402
 9616TIP3    H250340   4.349   2.337   5.891  0.1966  0.6262  2.0201
 9617TIP3   OH250341   0.519   3.318  11.984  0.3334  0.4753 -0.2988
 9617TIP3    H150342   0.597   3.328  12.040 -1.2782 -0.0855  2.2278
 9617TIP3    H250343   0.528   3.230  11.947  0.6361  0.1634  0.4768
 9618TIP3   OH250344   5.449   0.524  13.077 -0.0551 -0.1203 -0.5743
 9618TIP3    H150345   5.440   0.600  13.134  0.2432 -0.4332 -0.1093
 9618TIP3    H250346   5.543   0.517  13.060 -0.1749  0.1981 -1.4194
 9619TIP3   OH250347   1.545   5.075   5.014  0.3514  0.2625  0.0303
 9619TIP3    H150348   1.517   4.994   5.057  1.7247  0.6064  1.6631
 9619TIP3    H250349   1.468   5.132   5.018 -0.5266 -0.8098 -0.8322
 9620TIP3   OH250350   1.357   0.908   3.440  0.1426 -0.4312  0.4033
 9620TIP3    H150351   1.375   0.912   3.346  2.2824  1.4984  0.7835
 9620TIP3    H250352   1.384   0.820   3.466  1.0203 -0.4646 -0.5489
 9621TIP3   OH250353   6.361   5.856  12.575  0.0346 -0.3062 -0.6112
 9621TIP3    H150354   6.354   5.761  12.571 -1.0793 -0.2201 -1.1912
 9621TIP3    H250355   6.448   5.875  12.540 -0.2618 -1.0481 -1.8293
 9622TIP3   OH250356   0.065   2.802   0.505  0.3798 -0.1480  0.4344
 9622TIP3    H150357   0.145   2.796   0.557 -0.1827 -0.0755  1.3314
 9622TIP3    H250358   0.095   2.820   0.416  1.3916 -0.9167  0.6073
 9623TIP3   OH250359   6.045   2.854  11.822  0.1588 -1.1185 -0.0961
 9623TIP3    H150360   6.009   2.768  11.843  2.4570 -2.2854 -0.5515
 9623TIP3    H250361   6.087   2.883  11.902 -0.2878 -0.5682 -0.0534
 9624TIP3   OH250362   6.190   0.690   3.314  0.3043 -0.6232 -0.3317
 9624TIP3    H150363   6.115   0.643   3.349  0.6789 -1.3100 -0.4274
 9624TIP3    H250364   6.222   0.634   3.243  0.8041 -0.2575 -0.4000
 9625TIP3   OH250365   0.321   6.316  16.254 -0.2546  0.4108  0.1978
 9625TIP3    H150366   0.258   6.264  16.203  1.0607 -1.7274  0.6648
 9625TIP3    H250367   0.350   6.383  16.192 -1.2093 -0.0315 -0.7841
 9626TIP3   OH250368   3.085   4.536   2.739  0.3397  0.1035 -0.1925
 9626TIP3    H150369   3.140   4.543   2.661 -0.0066  0.1245 -0.4413
 9626TIP3    H250370   3.139   4.570   2.810  1.5300 -2.1076  0.0173
 9627TIP3   OH250371   6.272   2.994   4.110 -0.4544  0.5146  0.0913
 9627TIP3    H150372   6.264   2.965   4.018 -0.0818  1.5966 -0.2945
 9627TIP3    H250373   6.351   2.950   4.142 -0.4705  0.2901 -0.1701
 9628TIP3   OH250374   2.840   3.921   0.778  0.1788  0.0221  0.2201
 9628TIP3    H150375   2.873   3.969   0.702 -0.7774  1.5734  0.7371
 9628TIP3    H250376   2.919   3.888   0.822  0.9008  1.4461  0.0396
 9629TIP3   OH250377   3.849   3.473  11.797 -0.2582  0.0398  0.1369
 9629TIP3    H150378   3.930   3.464  11.747  0.5408  1.0672  1.1908
 9629TIP3    H250379   3.817   3.384  11.808  1.4122 -0.5155  0.7991
 9630TIP3   OH250380   5.187   5.950   3.856  0.2176  0.3771  0.3910
 9630TIP3    H150381   5.137   5.939   3.937 -0.6017  0.0297 -0.1440
 9630TIP3    H250382   5.121   5.969   3.790  0.5344 -1.9064 -0.6956
 9631TIP3   OH250383   2.270   5.071   0.374 -0.1626  0.6187  0.2736
 9631TIP3    H150384   2.285   5.027   0.458  0.2578  1.4482  0.6496
 9631TIP3    H250385   2.252   5.000   0.312  0.8234 -0.0958  0.7880
 9632TIP3   OH250386   0.052   4.902  11.906  0.3077 -0.1588  0.0776
 9632TIP3    H150387  -0.027   4.956  11.915 -0.0437 -0.8442  1.5515
 9632TIP3    H250388   0.124   4.963  11.923  0.0221  0.2233 -0.0628
 9633TIP3   OH250389   6.320   1.207  13.112 -0.0293  0.0741  0.5056
 9633TIP3    H150390   6.303   1.239  13.023 -1.1123  0.9068  0.9742
 9633TIP3    H250391   6.409   1.173  13.109 -0.0399  0.1006 -0.8940
 9634TIP3   OH250392   4.096   5.549   6.660 -0.2499  0.4707 -0.3100
 9634TIP3    H150393   4.008   5.511   6.662 -0.4685  0.9767 -0.2012
 9634TIP3    H250394   4.155   5.474   6.670 -0.7067  0.3431  2.0683
 9635TIP3   OH250395   5.834   1.514   1.869  0.1238  0.9988 -0.6832
 9635TIP3    H150396   5.918   1.469   1.861  0.0862  0.7078  0.4109
 9635TIP3    H250397   5.846   1.577   1.941 -0.7379  0.5786 -0.1489
 9636TIP3   OH250398   2.582   6.171  10.864  0.4345 -0.5938 -0.0183
 9636TIP3    H150399   2.658   6.203  10.815 -0.7269  2.1259 -0.2241
 9636TIP3    H250400   2.528   6.127  10.799  0.8790 -0.7427 -0.2897
 9637TIP3   OH250401   6.083   5.035   4.283 -0.3934  0.5246  0.5332
 9637TIP3    H150402   6.159   5.017   4.228 -1.6196 -0.5446 -0.8877
 9637TIP3    H250403   6.093   5.126   4.309  0.0686  1.2119 -1.8201
 9638TIP3   OH250404   4.200   6.281  16.036 -0.1809 -0.0925 -0.4472
 9638TIP3    H150405   4.232   6.340  15.967  0.8403 -1.2552 -0.9909
 9638TIP3    H250406   4.230   6.322  16.117 -0.2447  0.5914 -0.7518
 9639TIP3   OH250407   6.159   5.989  13.753 -0.4307 -0.3523 -0.4462
 9639TIP3    H150408   6.188   5.918  13.811  0.5935  0.7876  0.4942
 9639TIP3    H250409   6.065   5.974  13.743 -0.0918 -2.4183 -1.1100
 9640TIP3   OH250410   1.445   6.521  16.969 -0.9151  0.1365 -0.6268
 9640TIP3    H150411   1.463   6.427  16.973  1.1668  0.3189 -3.0838
 9640TIP3    H250412   1.410   6.542  17.055  1.3558 -2.3470  1.0737
 9641TIP3   OH250413   2.363   5.833   5.603 -0.0452  0.4155  0.0541
 9641TIP3    H150414   2.306   5.893   5.652  1.6433  1.9102  0.2963
 9641TIP3    H250415   2.304   5.765   5.570 -2.2134  2.6456 -0.9611
 9642TIP3   OH250416   3.563   6.391  15.803 -0.3834  0.1122  0.4633
 9642TIP3    H150417   3.652   6.359  15.819 -0.9458 -1.5001  0.5620
 9642TIP3    H250418   3.513   6.312  15.780 -1.4941  1.1608 -0.9280
 9643TIP3   OH250419   2.879   2.190  16.971 -0.6143 -0.4681  0.2687
 9643TIP3    H150420   2.954   2.131  16.967 -1.0248 -0.9539 -0.5488
 9643TIP3    H250421   2.917   2.278  16.969 -0.1055 -0.6880 -1.9492
 9644TIP3   OH250422   0.457   4.141   6.017 -0.0057 -0.2184  0.3043
 9644TIP3    H150423   0.408   4.064   5.988 -1.2518 -0.2035  2.1776
 9644TIP3    H250424   0.547   4.111   6.025  0.0944 -0.6510 -1.7782
 9645TIP3   OH250425   0.451   6.609   0.185 -0.6068 -0.5059  0.0153
 9645TIP3    H150426   0.443   6.690   0.236  0.4916 -1.0703  1.1560
 9645TIP3    H250427   0.494   6.548   0.245  1.7871 -0.8780 -1.9448
 9646TIP3   OH250428   6.647   1.912   4.833 -0.5570  0.1870  0.6655
 9646TIP3    H150429   6.704   1.966   4.888 -0.0664 -0.5708  0.9178
 9646TIP3    H250430   6.559   1.926   4.870 -0.5048  1.1263  0.4602
 9647TIP3   OH250431   1.683   6.151  16.822  0.2951  0.0907 -0.1996
 9647TIP3    H150432   1.741   6.177  16.751  1.4649  2.2078  1.4253
 9647TIP3    H250433   1.742   6.118  16.890 -0.3644  2.0532  1.3922
 9648TIP3   OH250434   2.704   0.382  12.491 -0.4538 -0.3055  0.0537
 9648TIP3    H150435   2.720   0.307  12.548 -0.3031 -1.4350 -1.4350
 9648TIP3    H250436   2.790   0.422  12.479 -0.5658  0.2626  1.0122
 9649TIP3   OH250437   2.955   4.965   3.777 -0.1125 -0.0601 -0.3714
 9649TIP3    H150438   3.011   5.002   3.709 -1.0624  0.8139 -0.7206
 9649TIP3    H250439   2.883   5.028   3.785 -1.2336 -1.3113 -0.2008
 9650TIP3   OH250440   4.600   4.060  14.571 -0.1434  0.0831 -0.6109
 9650TIP3    H150441   4.564   3.991  14.627  0.1870 -0.4061 -0.9940
 9650TIP3    H250442   4.528   4.083  14.513 -0.1110 -0.2747 -0.7964
 9651TIP3   OH250443   1.884   4.516  12.635  0.1491  0.5993 -0.5416
 9651TIP3    H150444   1.938   4.436  12.634 -1.7056 -0.7274 -0.2703
 9651TIP3    H250445   1.869   4.536  12.543  2.5976  2.1221 -0.6947
 9652TIP3   OH250446   1.380   1.985   2.344 -0.2971 -0.5561  0.1147
 9652TIP3    H150447   1.331   2.026   2.272 -0.2266 -0.1002  0.3215
 9652TIP3    H250448   1.352   2.032   2.422  0.9276  0.1483  0.1597
 9653TIP3   OH250449   5.181   1.331  13.183  0.6476  0.7866 -0.3191
 9653TIP3    H150450   5.190   1.305  13.274 -2.2522  1.6183  0.2950
 9653TIP3    H250451   5.218   1.419  13.179  1.7477  0.3375 -0.2150
 9654TIP3   OH250452   2.084   2.094   1.020 -0.1420 -0.4035  0.3977
 9654TIP3    H150453   2.164   2.079   0.969  0.1973  0.9925  0.4787
 9654TIP3    H250454   2.094   2.183   1.054 -1.8097 -0.1359  0.2680
 9655TIP3   OH250455   0.125   4.230  10.501  0.1269 -0.7042 -0.3284
 9655TIP3    H150456   0.217   4.209  10.484 -0.1158 -0.8558 -1.5289
 9655TIP3    H250457   0.101   4.293  10.433  0.2372  1.9875  1.9015
 9656TIP3   OH250458   0.113   3.652   2.848  0.3849 -0.0689 -0.5171
 9656TIP3    H150459   0.114   3.727   2.789  1.3001  1.1939  1.0321
 9656TIP3    H250460   0.205   3.634   2.866  0.1336  0.5409  1.6519
 9657TIP3   OH250461   6.532   3.123  12.017 -0.0491 -0.1222 -0.0543
 9657TIP3    H150462   6.625   3.137  12.032 -0.4598  1.7489  1.1046
 9657TIP3    H250463   6.493   3.124  12.104 -1.2052 -0.5661 -0.5406
 9658TIP3   OH250464   4.322   6.246  14.842  0.4310  0.1800 -0.4175
 9658TIP3    H150465   4.269   6.179  14.800  0.6712 -0.0862 -0.2972
 9658TIP3    H250466   4.410   6.232  14.808  0.8442 -0.6832  0.9082
 9659TIP3   OH250467   0.715   5.638   6.102 -0.1213  0.3742  0.1081
 9659TIP3    H150468   0.789   5.586   6.133 -0.4310  0.0922  0.3844
 9659TIP3    H250469   0.642   5.577   6.102 -0.1817  0.4384 -0.9548
 9660TIP3   OH250470   5.689   1.668  13.232  0.3274 -0.5612  0.0748
 9660TIP3    H150471   5.767   1.614  13.248 -0.1593 -1.0159  0.9372
 9660TIP3    H250472   5.714   1.723  13.158  1.1333 -1.3789 -0.2857
 9661TIP3   OH250473   1.070   2.145   4.602 -0.2064 -0.0644 -0.2159
 9661TIP3    H150474   1.032   2.223   4.642 -0.6337  0.0058 -0.7409
 9661TIP3    H250475   1.150   2.128   4.652 -1.6611 -1.1044  1.8844
 9662TIP3   OH250476   0.984   2.309   1.600  0.4705  0.0067 -0.1791
 9662TIP3    H150477   0.912   2.286   1.657  2.0619  0.0091  1.9393
 9662TIP3    H250478   1.035   2.229   1.591  2.9489  1.0894  2.6164
 9663TIP3   OH250479   2.312   1.717  16.970  0.2695  0.7543 -0.2425
 9663TIP3    H150480   2.220   1.692  16.981 -0.4787  3.0530 -0.7735
 9663TIP3    H250481   2.356   1.684  17.049 -0.7808 -1.2404 -0.4397
 9664TIP3   OH250482   4.146   0.598   6.553  0.3778  0.3681  0.8746
 9664TIP3    H150483   4.074   0.572   6.610 -0.1689  1.7304  0.8265
 9664TIP3    H250484   4.159   0.522   6.495 -0.2632 -0.3102  1.6013
 9665TIP3   OH250485   5.562   5.172   3.047 -0.3685  0.2151  0.2002
 9665TIP3    H150486   5.655   5.164   3.067 -0.4603  0.9399  0.9863
 9665TIP3    H250487   5.558   5.177   2.952  0.5089  1.2741  0.1966
 9666TIP3   OH250488   2.376   0.709  10.729 -0.0889 -0.1379  0.4874
 9666TIP3    H150489   2.374   0.802  10.706 -0.2110 -0.0814  0.7192
 9666TIP3    H250490   2.331   0.704  10.813 -2.7162 -0.7833 -0.8500
 9667TIP3   OH250491   2.798   5.526   1.168  0.1651  0.4329 -0.1341
 9667TIP3    H150492   2.719   5.556   1.123  0.9732  1.3162 -1.0137
 9667TIP3    H250493   2.837   5.462   1.108 -0.8484 -1.4674  1.1457
 9668TIP3   OH250494   4.856   5.541  11.505 -0.2693 -0.1340 -0.0775
 9668TIP3    H150495   4.805   5.522  11.427 -1.9632  0.3058  0.8656
 9668TIP3    H250496   4.947   5.532  11.478 -0.8462 -2.0473 -1.5527
 9669TIP3   OH250497   0.730   1.895  15.172  0.4850 -0.2955 -0.5339
 9669TIP3    H150498   0.701   1.804  15.171 -2.3716  0.5008 -0.0284
 9669TIP3    H250499   0.691   1.932  15.251  2.1753  1.2433 -0.3379
 9670TIP3   OH250500   0.770   2.427  15.901 -0.3438 -0.0972  0.2639
 9670TIP3    H150501   0.816   2.373  15.965  1.5418 -0.4460 -1.3166
 9670TIP3    H250502   0.695   2.373  15.874  0.2026 -0.9510  0.4197
 9671TIP3   OH250503   2.094   5.403   3.318 -0.3514 -0.2472 -0.0443
 9671TIP3    H150504   2.188   5.406   3.333 -0.3278 -0.3197 -0.1773
 9671TIP3    H250505   2.055   5.399   3.405 -0.2616  0.6761  0.0505
 9672TIP3   OH250506   3.225   4.402   5.248  0.0448  0.5208 -0.5479
 9672TIP3    H150507   3.190   4.399   5.159  0.2375  0.3371 -0.6160
 9672TIP3    H250508   3.159   4.452   5.297 -1.6331 -2.0034 -0.0716
 9673TIP3   OH250509   2.379   0.902   1.582  0.0587  0.3321 -0.4528
 9673TIP3    H150510   2.300   0.929   1.629 -1.3342  1.0967 -3.0804
 9673TIP3    H250511   2.349   0.842   1.514  2.0131 -0.8068 -0.4173
 9674TIP3   OH250512   3.496   0.336   2.640 -0.1702  0.2276 -0.1748
 9674TIP3    H150513   3.403   0.313   2.628 -0.2213 -0.9176  1.8777
 9674TIP3    H250514   3.531   0.339   2.551 -2.0923  0.3384 -0.9880
 9675TIP3   OH250515   4.029   3.250   1.677 -0.4275  0.0517 -0.2346
 9675TIP3    H150516   3.948   3.298   1.691  0.1090  0.9771 -0.2287
 9675TIP3    H250517   4.010   3.161   1.708 -0.7200  0.8162  1.9465
 9676TIP3   OH250518   6.529   2.590   4.939 -0.4145 -0.2014 -0.8504
 9676TIP3    H150519   6.558   2.644   5.013  0.0064  0.6348 -1.6101
 9676TIP3    H250520   6.434   2.597   4.941 -0.3648  0.6318 -0.9770
 9677TIP3   OH250521   5.205   6.209  15.720 -0.1217  0.4757  0.1566
 9677TIP3    H150522   5.226   6.288  15.768  1.3708  1.2006 -1.5531
 9677TIP3    H250523   5.113   6.193  15.738  0.0124  1.5279  2.0033
 9678TIP3   OH250524   2.560   5.689   3.274 -0.6869 -0.4989 -0.4150
 9678TIP3    H150525   2.485   5.707   3.331 -0.5539 -0.8978 -0.1138
 9678TIP3    H250526   2.601   5.612   3.312  0.7037  0.5285  0.2328
 9679TIP3   OH250527   0.844   0.930   0.551  0.1102  0.1694 -0.0636
 9679TIP3    H150528   0.848   0.837   0.529 -0.6443  0.4268 -1.3876
 9679TIP3    H250529   0.835   0.974   0.467 -2.2421  1.2698  0.6875
 9680TIP3   OH250530   4.965   1.373  14.133 -0.2253  0.6479 -0.8537
 9680TIP3    H150531   4.994   1.297  14.083 -1.4294  0.0612 -0.6782
 9680TIP3    H250532   5.004   1.448  14.087 -0.0203  0.0145 -1.7326
 9681TIP3   OH250533   5.458   5.577   1.057 -0.4821 -0.2819 -0.1990
 9681TIP3    H150534   5.372   5.556   1.095  0.0922 -0.2511  1.1528
 9681TIP3    H250535   5.505   5.494   1.057  0.6069  0.2852  2.0534
 9682TIP3   OH250536   2.239   6.449   5.190  0.4642 -0.6262 -0.3819
 9682TIP3    H150537   2.309   6.476   5.250  1.5178 -0.6173 -1.5562
 9682TIP3    H250538   2.243   6.353   5.190 -1.0717 -0.7477  1.2598
 9683TIP3   OH250539   2.864   6.192  13.944  0.0435 -0.1882 -0.1559
 9683TIP3    H150540   2.801   6.144  13.890  0.5399  0.2661 -1.1660
 9683TIP3    H250541   2.915   6.244  13.881  0.8192  0.1496  0.7282
 9684TIP3   OH250542   5.588   3.822   5.407 -0.6267  0.6344  0.5693
 9684TIP3    H150543   5.647   3.758   5.368 -0.1837  2.3047 -1.6944
 9684TIP3    H250544   5.645   3.881   5.456 -0.4973  1.6307 -0.7397
 9685TIP3   OH250545   2.405   4.634   0.777  0.5461  0.3569  0.0634
 9685TIP3    H150546   2.401   4.719   0.820  0.8770  0.6893 -0.5460
 9685TIP3    H250547   2.440   4.574   0.843  2.0506  1.0694 -0.0403
 9686TIP3   OH250548   3.885   5.027   4.686  0.4562  0.5582  0.0484
 9686TIP3    H150549   3.858   4.995   4.773  0.0289  0.0362 -0.2677
 9686TIP3    H250550   3.803   5.043   4.640  0.6821  0.9357 -0.2292
 9687TIP3   OH250551   4.205   3.260   5.280 -0.1616  0.5069  0.1216
 9687TIP3    H150552   4.160   3.337   5.247  0.8913  0.8739 -0.4942
 9687TIP3    H250553   4.211   3.201   5.205  0.7735  0.6590  0.0562
 9688TIP3   OH250554   3.111   4.298   3.357  0.0413 -0.2939  0.0433
 9688TIP3    H150555   3.181   4.236   3.379 -1.3084 -2.6600 -1.8211
 9688TIP3    H250556   3.119   4.312   3.263 -2.4042 -1.3500 -0.4175
 9689TIP3   OH250557   1.601   3.976  16.529 -0.0255  0.0667  0.2391
 9689TIP3    H150558   1.551   3.906  16.487  0.9777 -1.0485  0.8069
 9689TIP3    H250559   1.559   3.987  16.614 -0.1476  0.1018  0.1749
 9690TIP3   OH250560   4.800   6.052  15.235  0.3763  0.1561  0.0040
 9690TIP3    H150561   4.727   6.018  15.287  0.6111  0.9359  0.8593
 9690TIP3    H250562   4.758   6.094  15.160 -0.2092  2.2746  1.4301
 9691TIP3   OH250563   0.104   0.268  11.007 -0.3484  0.0103  0.2533
 9691TIP3    H150564   0.122   0.224  11.089 -0.2974 -0.0003  0.2367
 9691TIP3    H250565   0.190   0.295  10.974 -0.2893 -0.6816 -0.1859
 9692TIP3   OH250566   0.141   1.522  14.936  0.4771 -0.1506 -0.7082
 9692TIP3    H150567   0.193   1.562  15.005  1.6451 -3.5103  0.5677
 9692TIP3    H250568   0.051   1.526  14.967  0.8469 -0.5188  0.4364
 9693TIP3   OH250569   5.272   5.313   0.883 -0.1274 -0.3311 -0.6059
 9693TIP3    H150570   5.270   5.372   0.959 -0.8170 -0.3877 -0.5699
 9693TIP3    H250571   5.310   5.365   0.813 -1.9125  0.6304 -0.9347
 9694TIP3   OH250572   3.798   5.507   2.483 -0.1691  0.1530 -0.0978
 9694TIP3    H150573   3.862   5.561   2.436  0.1314  0.9970  1.2443
 9694TIP3    H250574   3.715   5.552   2.469 -0.2241 -0.0648 -0.5035
 9695TIP3   OH250575   2.697   1.826   6.363  0.5952  0.0082 -0.0092
 9695TIP3    H150576   2.640   1.820   6.440  0.3969  1.5645 -0.0086
 9695TIP3    H250577   2.778   1.782   6.389  0.5079  0.4691  1.0728
 9696TIP3   OH250578   5.468   2.361  13.482 -0.7481  0.5025 -0.1870
 9696TIP3    H150579   5.486   2.333  13.392 -0.2357  1.6877 -0.4674
 9696TIP3    H250580   5.553   2.393  13.514 -1.1368  0.9599  0.3904
 9697TIP3   OH250581   0.423   6.329  15.024 -0.0717  0.4151 -0.2927
 9697TIP3    H150582   0.473   6.275  14.963  2.2882  0.7244  1.2002
 9697TIP3    H250583   0.347   6.358  14.975  0.3484 -1.4678 -2.2074
 9698TIP3   OH250584   3.016   1.128   0.162  0.2466  0.0574  0.6757
 9698TIP3    H150585   3.012   1.108   0.256 -0.2790  0.5751  0.7685
 9698TIP3    H250586   3.019   1.223   0.157  2.1774  0.0131  0.2120
 9699TIP3   OH250587   1.380   0.129  14.335 -0.0812 -0.3966  0.9354
 9699TIP3    H150588   1.305   0.158  14.284  0.7880 -0.6314 -0.5349
 9699TIP3    H250589   1.449   0.192  14.314  0.4043 -0.7047  1.5604
 9700TIP3   OH250590   5.818   0.308   4.503 -0.1735 -0.2370 -0.0228
 9700TIP3    H150591   5.737   0.335   4.460  0.3878 -0.2649 -1.1575
 9700TIP3    H250592   5.871   0.388   4.505  0.1818 -0.4614 -0.2989
 9701TIP3   OH250593   5.015   0.222   5.320 -0.3968 -0.0645  0.3106
 9701TIP3    H150594   4.943   0.279   5.293  1.2392  0.9771 -2.2309
 9701TIP3    H250595   5.078   0.281   5.361 -1.3194 -1.1320  3.6052
 9702TIP3   OH250596   1.420   1.270   2.018 -0.8006  0.6147  0.4769
 9702TIP3    H150597   1.385   1.314   2.096 -2.7407  2.7906 -1.4578
 9702TIP3    H250598   1.377   1.314   1.944  0.3945 -1.7988 -1.8353
 9703TIP3   OH250599   5.032   2.379  15.926 -0.3242 -0.1094 -0.4167
 9703TIP3    H150600   5.034   2.368  15.831 -1.1128 -2.7707 -0.2134
 9703TIP3    H250601   4.943   2.406  15.946 -0.5028 -0.7299 -0.3589
 9704TIP3   OH250602   6.744   0.607  12.931  0.5188 -0.4258 -0.2649
 9704TIP3    H150603   6.825   0.569  12.899  2.0529  1.5257  1.0374
 9704TIP3    H250604   6.733   0.569  13.019  0.0526 -0.6192 -0.4031
 9705TIP3   OH250605   2.097   1.451  10.782  0.3223  0.7347  0.1487
 9705TIP3    H150606   2.173   1.426  10.729  0.1890  0.5424  0.0477
 9705TIP3    H250607   2.099   1.392  10.857 -0.3481 -0.0184 -0.4032
 9706TIP3   OH250608   1.169   2.069  11.320  0.5665 -0.4387 -0.9447
 9706TIP3    H150609   1.077   2.058  11.295  0.0332  1.2334  0.1096
 9706TIP3    H250610   1.166   2.131  11.394  2.5625 -0.0956 -1.1121
 9707TIP3   OH250611   3.857   1.415   5.205 -0.5855 -0.0023  0.1910
 9707TIP3    H150612   3.861   1.493   5.150 -0.5513  0.7271  1.1952
 9707TIP3    H250613   3.767   1.414   5.239 -0.7947 -0.7906 -0.3460
 9708TIP3   OH250614   3.661   1.781  13.936  0.0793  0.1765  0.0299
 9708TIP3    H150615   3.750   1.746  13.933 -0.0439 -0.1064 -0.3921
 9708TIP3    H250616   3.610   1.716  13.985  0.1306  0.4015  0.3862
 9709TIP3   OH250617   3.629   1.077  16.979  0.1734  0.2572  0.3264
 9709TIP3    H150618   3.720   1.045  16.980  0.5561  1.3149  0.5832
 9709TIP3    H250619   3.625   1.138  17.053 -1.4587 -1.6494  1.9251
 9710TIP3   OH250620   5.017   4.176   1.631  0.6989 -0.1396  0.0384
 9710TIP3    H150621   5.063   4.251   1.592 -0.2752 -0.6397 -2.1936
 9710TIP3    H250622   4.926   4.204   1.637  0.1368 -1.4161 -1.7295
 9711TIP3   OH250623   5.662   2.638  11.696 -0.7397  0.6492 -0.2681
 9711TIP3    H150624   5.687   2.727  11.671  1.4612 -0.1904 -1.3333
 9711TIP3    H250625   5.659   2.589  11.614  0.5177 -0.7889  0.4897
 9712TIP3   OH250626   1.126   2.055   0.943  0.0980  0.2827  0.5834
 9712TIP3    H150627   1.219   2.038   0.953  0.2020 -0.1070 -0.9189
 9712TIP3    H250628   1.088   1.970   0.925 -0.2328  0.7440 -0.9915
 9713TIP3   OH250629   5.189   1.142  13.883  0.2781  0.5553 -0.1274
 9713TIP3    H150630   5.229   1.124  13.968 -0.1868  0.7563  0.1435
 9713TIP3    H250631   5.130   1.068  13.869 -1.1774  1.4951  0.7004
 9714TIP3   OH250632   2.540   3.688   5.052 -0.0509 -0.5797  0.4352
 9714TIP3    H150633   2.547   3.729   5.138 -0.0552  0.8960 -0.2413
 9714TIP3    H250634   2.446   3.687   5.033  0.0145 -0.0222  0.0522
 9715TIP3   OH250635   2.560   4.330  15.211  0.4464 -0.0107 -0.6131
 9715TIP3    H150636   2.620   4.296  15.145 -1.5643 -0.3308 -2.3659
 9715TIP3    H250637   2.558   4.261  15.279  1.8219 -0.0966 -0.6359
 9716TIP3   OH250638   3.897   1.843   5.265 -0.6806 -0.7129  0.1975
 9716TIP3    H150639   3.862   1.926   5.230 -0.5806 -0.9465 -0.4626
 9716TIP3    H250640   3.842   1.776   5.225 -0.7265 -0.9696  0.6939
 9717TIP3   OH250641   3.629   1.610   0.472  0.4504  0.3589 -0.6267
 9717TIP3    H150642   3.657   1.547   0.538  1.4720 -0.5332 -1.8544
 9717TIP3    H250643   3.534   1.598   0.467  0.5453 -0.6147 -0.3522
 9718TIP3   OH250644   2.458   3.942   5.778 -0.2492 -0.2431 -0.0786
 9718TIP3    H150645   2.419   3.932   5.865 -0.9533 -1.5493 -0.5190
 9718TIP3    H250646   2.416   3.874   5.725 -0.8655  1.4255 -1.8199
 9719TIP3   OH250647   0.005   3.617   4.057 -0.2856  0.1438 -0.1059
 9719TIP3    H150648  -0.072   3.610   4.002  0.5361  0.9791 -1.4165
 9719TIP3    H250649  -0.002   3.543   4.118 -2.3841  0.5330  0.2007
 9720TIP3   OH250650   5.745   4.184   1.874  0.0127 -0.1856  0.8903
 9720TIP3    H150651   5.753   4.234   1.955 -2.0243 -0.6186  1.3935
 9720TIP3    H250652   5.667   4.131   1.885  0.6683 -1.5802 -0.6763
 9721TIP3   OH250653   0.472   6.642   3.102 -0.1345  0.2184 -0.2928
 9721TIP3    H150654   0.462   6.575   3.170 -1.5443  1.0355  0.3544
 9721TIP3    H250655   0.386   6.645   3.059  0.4879  0.3077 -1.5584
 9722TIP3   OH250656   5.284   1.279   5.901  0.0850  0.6721  0.1936
 9722TIP3    H150657   5.304   1.372   5.897 -0.5902  0.7950 -3.0502
 9722TIP3    H250658   5.193   1.273   5.873  0.0721 -0.9678  0.4935
 9723TIP3   OH250659   3.194   6.146  15.438 -0.1629  0.8355 -0.1072
 9723TIP3    H150660   3.123   6.109  15.385  0.0694  0.4663 -0.1648
 9723TIP3    H250661   3.216   6.077  15.500  2.7539 -0.6772 -2.5290
 9724TIP3   OH250662   3.479   4.469  13.706 -0.2764 -0.3514 -0.1251
 9724TIP3    H150663   3.518   4.532  13.768  2.0920 -1.8700  0.0634
 9724TIP3    H250664   3.404   4.432  13.752 -0.1382  0.4594  0.7795
 9725TIP3   OH250665   4.250   2.503   4.729 -0.0803  0.4393  0.0910
 9725TIP3    H150666   4.299   2.427   4.699 -1.1708 -0.1629 -0.2534
 9725TIP3    H250667   4.294   2.577   4.688  0.0711 -0.1444 -0.8543
 9726TIP3   OH250668   6.726   5.351  17.164 -0.1464 -0.2483 -0.3185
 9726TIP3    H150669   6.641   5.381  17.133 -0.7141  0.0715  1.4454
 9726TIP3    H250670   6.736   5.391  17.250  1.8429 -0.2059 -0.5156
 9727TIP3   OH250671   6.045   1.790   1.528  0.2748 -0.2228  0.8612
 9727TIP3    H150672   6.118   1.823   1.475  0.9556 -0.7753  1.4324
 9727TIP3    H250673   6.088   1.746   1.602 -0.5752 -2.9322 -0.1508
 9728TIP3   OH250674   4.994   5.625  16.290 -0.8768  0.5760 -0.3795
 9728TIP3    H150675   5.020   5.547  16.340  1.6657  2.2360  1.1298
 9728TIP3    H250676   4.914   5.655  16.333 -0.3148  0.3556  0.8744
 9729TIP3   OH250677   4.731   0.462  13.665  0.3699 -0.4112 -0.1400
 9729TIP3    H150678   4.825   0.454  13.650  0.6049  1.3059  0.1185
 9729TIP3    H250679   4.724   0.485  13.758 -0.3815 -1.3831  0.0640
 9730TIP3   OH250680   5.758   6.276   3.126  0.1683  0.0490 -0.6892
 9730TIP3    H150681   5.812   6.344   3.086  1.2481 -1.1793 -1.4245
 9730TIP3    H250682   5.669   6.300   3.102  0.6044  0.6428 -1.8438
 9731TIP3   OH250683   3.463   4.769  15.029  0.3524 -0.0030  0.0310
 9731TIP3    H150684   3.413   4.773  14.948  0.1968  1.5652  0.1739
 9731TIP3    H250685   3.528   4.839  15.021  0.4539  0.0576  1.1763
 9732TIP3   OH250686   3.893   4.738   0.065 -0.0938  0.0205 -0.2275
 9732TIP3    H150687   3.819   4.797   0.075 -0.1460 -0.0697 -0.0813
 9732TIP3    H250688   3.966   4.795   0.040  0.3584  0.4517  1.9220
 9733TIP3   OH250689   2.657   3.304   2.973  0.3418  0.3072 -0.0430
 9733TIP3    H150690   2.723   3.351   2.923  0.9975 -0.4503  0.0913
 9733TIP3    H250691   2.604   3.372   3.014 -0.7932  1.0054 -2.4406
 9734TIP3   OH250692   6.674   4.584   4.766 -0.2185 -0.1329 -0.3978
 9734TIP3    H150693   6.740   4.526   4.729  1.7652  0.1384  2.4455
 9734TIP3    H250694   6.609   4.524   4.804 -0.6595 -0.4129 -1.5615
 9735TIP3   OH250695   3.600   0.842  16.730 -0.1452  0.6656 -0.0605
 9735TIP3    H150696   3.687   0.876  16.709 -0.2649  0.9051 -0.1672
 9735TIP3    H250697   3.616   0.775  16.796  0.1261  0.6782 -0.1116
 9736TIP3   OH250698   1.332   3.304  10.584 -0.7063  0.0348  0.3954
 9736TIP3    H150699   1.344   3.380  10.640 -0.5074  1.1844 -1.1234
 9736TIP3    H250700   1.245   3.316  10.545 -0.3353 -0.0520 -0.4989
 9737TIP3   OH250701   5.625   5.048  15.498 -0.1382  0.6755  0.1122
 9737TIP3    H150702   5.696   5.027  15.559 -0.5647  1.5921  0.9439
 9737TIP3    H250703   5.545   5.035  15.548 -0.6418 -1.0057 -1.0132
 9738TIP3   OH250704   2.436   2.663  17.235 -0.0627 -0.1199  0.4258
 9738TIP3    H150705   2.431   2.661  17.330 -1.6616  1.3577  0.4187
 9738TIP3    H250706   2.524   2.630  17.215 -0.1713 -1.7491  2.3115
 9739TIP3   OH250707   5.590   6.371   5.306 -0.6110  0.3517  0.8328
 9739TIP3    H150708   5.553   6.394   5.220  1.3019  1.2234  0.1940
 9739TIP3    H250709   5.555   6.284   5.324 -0.1971 -0.3279 -1.3589
 9740TIP3   OH250710   4.363   2.448   4.062  0.1852  0.0888 -0.7688
 9740TIP3    H150711   4.397   2.411   4.144  0.7103  0.1811 -0.9450
 9740TIP3    H250712   4.277   2.407   4.052  1.4431 -2.5220 -1.8945
 9741TIP3   OH250713   2.674   6.763   3.718 -0.1119  0.2924 -0.0542
 9741TIP3    H150714   2.668   6.725   3.805  0.8684 -0.9121 -0.4750
 9741TIP3    H250715   2.764   6.796   3.713  0.3217 -0.9325 -1.0698
 9742TIP3   OH250716   4.601   0.106   3.902 -0.8922 -0.0957 -0.2477
 9742TIP3    H150717   4.648   0.096   3.819  0.8001  0.6437  0.5801
 9742TIP3    H250718   4.632   0.033   3.956  0.6074  1.2657  0.8524
 9743TIP3   OH250719   1.169   0.549  16.417  0.4201 -0.0769  0.2707
 9743TIP3    H150720   1.121   0.507  16.346 -0.1731 -0.0203  0.6354
 9743TIP3    H250721   1.121   0.525  16.496  0.8039  0.2509  0.6067
 9744TIP3   OH250722   1.131   2.328  14.666 -0.1290 -0.5269  0.2258
 9744TIP3    H150723   1.088   2.407  14.634 -0.4395 -1.0271 -0.6087
 9744TIP3    H250724   1.148   2.276  14.588  1.2988 -0.6929  0.6125
 9745TIP3   OH250725   3.678   3.386   2.318  0.6358  0.6247  0.4186
 9745TIP3    H150726   3.724   3.309   2.287  0.1826  0.3941  0.3065
 9745TIP3    H250727   3.714   3.458   2.266  1.3257  0.5507  0.7847
 9746TIP3   OH250728   4.631   3.656  11.607 -0.3373  0.0888 -0.7784
 9746TIP3    H150729   4.618   3.738  11.654  1.9848  0.7319 -1.1532
 9746TIP3    H250730   4.639   3.590  11.677  0.2267  0.5714 -0.3786
 9747TIP3   OH250731   0.367   0.723  15.082  0.0529 -0.6242 -0.1757
 9747TIP3    H150732   0.381   0.801  15.136 -0.4688 -0.3896 -0.3670
 9747TIP3    H250733   0.451   0.709  15.038  0.1404 -0.1401 -0.1739
 9748TIP3   OH250734   1.059   3.022  12.370 -0.3881  0.1568 -0.5708
 9748TIP3    H150735   0.983   2.964  12.359  1.1337 -1.4716 -4.4051
 9748TIP3    H250736   1.118   2.974  12.427 -1.6699  0.9777  1.5828
 9749TIP3   OH250737   0.812   6.145   0.104 -0.6118  0.0479  0.8581
 9749TIP3    H150738   0.784   6.130   0.195  1.3472 -2.0187  1.2268
 9749TIP3    H250739   0.908   6.149   0.109 -0.5104  0.9334 -1.0194
 9750TIP3   OH250740   2.377   0.149   5.844  0.0736  0.0796  0.6104
 9750TIP3    H150741   2.432   0.114   5.775 -2.0728  0.4765 -1.4076
 9750TIP3    H250742   2.341   0.072   5.888  2.3992 -0.2018  2.2546
 9751TIP3   OH250743   6.487   3.888  16.475 -0.0496 -0.2773 -0.1375
 9751TIP3    H150744   6.414   3.919  16.422  1.0618  0.6154 -1.1924
 9751TIP3    H250745   6.447   3.866  16.559 -1.5721 -0.0840 -0.7760
 9752TIP3   OH250746   5.604   5.152  16.279 -0.0421  0.1986  0.7032
 9752TIP3    H150747   5.591   5.068  16.323  1.4150  0.1476  1.0887
 9752TIP3    H250748   5.674   5.135  16.216  0.2379  1.0999  0.7562
 9753TIP3   OH250749   2.364   3.465   0.146 -0.1502 -0.7283  0.9721
 9753TIP3    H150750   2.275   3.492   0.168 -0.4917 -0.5760 -0.4547
 9753TIP3    H250751   2.420   3.512   0.208 -0.9971  0.0478  1.1672
 9754TIP3   OH250752   2.771   1.742   1.427 -0.2000 -0.0099  0.2817
 9754TIP3    H150753   2.717   1.689   1.484  1.0275 -2.1743 -0.4443
 9754TIP3    H250754   2.861   1.722   1.453  0.3372  0.3656 -1.1716
 9755TIP3   OH250755   3.875   1.568   5.749  0.9924  0.0396  0.6036
 9755TIP3    H150756   3.825   1.515   5.688  0.9051  1.5950 -0.7378
 9755TIP3    H250757   3.945   1.607   5.696 -0.0447  2.7252  1.0203
 9756TIP3   OH250758   1.390   0.658   4.136 -0.2969 -0.1265 -0.0878
 9756TIP3    H150759   1.380   0.732   4.077  1.7050  1.0185  0.9050
 9756TIP3    H250760   1.458   0.604   4.096 -0.1430 -0.2355  0.3133
 9757TIP3   OH250761   1.016   4.605   1.370 -0.1483  0.0193 -0.0998
 9757TIP3    H150762   1.112   4.605   1.372 -0.0953 -1.1002  3.7035
 9757TIP3    H250763   0.991   4.519   1.402 -2.4892  0.4119 -0.6662
 9758TIP3   OH250764   5.234   1.634   0.243  0.3022 -0.1738  0.5515
 9758TIP3    H150765   5.296   1.669   0.178  0.8851 -0.6853  0.8161
 9758TIP3    H250766   5.164   1.595   0.191  1.3987 -1.7278  0.1712
 9759TIP3   OH250767   2.915   2.124   2.028  0.3595  0.1501 -0.5550
 9759TIP3    H150768   2.859   2.192   1.990 -0.9521 -1.1529 -1.0158
 9759TIP3    H250769   2.942   2.160   2.113 -0.2515  1.2693 -0.8208
 9760TIP3   OH250770   5.221   2.442  15.633 -0.4749  0.2047  0.0585
 9760TIP3    H150771   5.179   2.528  15.645  0.2765  0.9271 -2.1355
 9760TIP3    H250772   5.268   2.428  15.715 -0.7510  1.8146  0.5390
 9761TIP3   OH250773   1.229   1.505   1.933  0.2735 -0.6892  0.0207
 9761TIP3    H150774   1.248   1.522   2.025  0.9072 -0.4147 -0.1488
 9761TIP3    H250775   1.140   1.472   1.932 -0.0633  0.1507  0.6460
 9762TIP3   OH250776   3.664   2.230  12.620  0.3283  0.1932 -0.2770
 9762TIP3    H150777   3.697   2.202  12.706 -0.8018 -1.2083 -0.2664
 9762TIP3    H250778   3.727   2.296  12.591  1.2845 -0.0235  1.1863
 9763TIP3   OH250779   4.416   4.400   0.227 -0.1499  0.1044 -0.4090
 9763TIP3    H150780   4.477   4.445   0.168  0.2356  1.1983  0.7876
 9763TIP3    H250781   4.343   4.374   0.170  0.8810 -0.2083 -1.6422
 9764TIP3   OH250782   3.862   4.482   2.374  0.2258 -0.3011 -0.1165
 9764TIP3    H150783   3.902   4.440   2.298 -2.3686 -0.9076 -1.2660
 9764TIP3    H250784   3.893   4.431   2.449 -0.0564 -2.0638 -1.1466
 9765TIP3   OH250785   3.832   3.899  11.361  0.2425  0.3025  0.3530
 9765TIP3    H150786   3.842   3.914  11.267  1.5502 -1.8771  0.0689
 9765TIP3    H250787   3.879   3.971  11.403  1.1398  0.3545 -0.7175
 9766TIP3   OH250788   5.020   5.981  16.272  0.1262  0.4638 -0.8618
 9766TIP3    H150789   5.089   5.917  16.284 -0.5484 -0.1852 -0.3462
 9766TIP3    H250790   4.977   5.986  16.358 -1.7505 -0.6577 -1.6924
 9767TIP3   OH250791   3.863   0.673   3.267  0.0525  0.3103  0.1721
 9767TIP3    H150792   3.898   0.725   3.195 -1.4093  1.0175 -0.0589
 9767TIP3    H250793   3.925   0.687   3.339  1.1395  0.1742 -0.6967
 9768TIP3   OH250794   2.354   6.227  15.952  0.3586 -0.3363  0.8295
 9768TIP3    H150795   2.397   6.275  16.023  2.4448 -1.4343  0.3907
 9768TIP3    H250796   2.344   6.292  15.882  1.3036 -0.0442  0.9560
 9769TIP3   OH250797   1.291   1.720   2.345 -0.0345  0.0537 -0.2844
 9769TIP3    H150798   1.343   1.768   2.411  2.1908 -1.4456 -0.8246
 9769TIP3    H250799   1.255   1.789   2.290  0.6756  1.2332  0.6574
 9770TIP3   OH250800   5.679   3.027  13.359 -0.1901 -0.7025 -0.3884
 9770TIP3    H150801   5.629   2.946  13.370  1.2821 -1.9445 -2.3059
 9770TIP3    H250802   5.756   3.014  13.414 -1.9036  1.3632  2.8681
 9771TIP3   OH250803   3.957   5.957   4.432 -0.2729  0.3929 -0.1598
 9771TIP3    H150804   3.944   6.009   4.511 -0.2995 -1.2016  0.9260
 9771TIP3    H250805   3.881   5.900   4.428 -0.0605  0.1599 -1.1200
 9772TIP3   OH250806   2.372   1.713  15.621  0.9000  0.7249  0.6817
 9772TIP3    H150807   2.369   1.725  15.716  1.0410 -0.5786  0.8768
 9772TIP3    H250808   2.465   1.706  15.601  0.8276 -0.2765  0.6450
 9773TIP3   OH250809   5.097   5.087  14.832 -0.1738  0.2856  0.0669
 9773TIP3    H150810   5.126   5.003  14.798  0.5025  0.1840  0.8691
 9773TIP3    H250811   5.008   5.072  14.862  0.0716 -0.2356  0.5364
 9774TIP3   OH250812   2.369   4.483   4.693 -0.3208  0.4411  0.5888
 9774TIP3    H150813   2.404   4.420   4.631 -0.1430  1.7231 -0.6564
 9774TIP3    H250814   2.313   4.431   4.751  0.7804 -1.0330  0.3715
 9775TIP3   OH250815   2.049   5.361  12.705  0.1992  0.2030 -0.5596
 9775TIP3    H150816   2.120   5.318  12.656 -0.9357  0.2897 -2.3868
 9775TIP3    H250817   2.056   5.453  12.680  0.0645  0.3828  0.0644
 9776TIP3   OH250818   2.196   6.744   3.078  0.2330 -0.5769  0.2734
 9776TIP3    H150819   2.276   6.715   3.034 -0.4093 -1.3749 -0.4000
 9776TIP3    H250820   2.224   6.768   3.166  1.2612 -0.5592 -0.0482
 9777TIP3   OH250821   1.061   4.230   0.334  0.0623  0.2467  0.5358
 9777TIP3    H150822   0.979   4.277   0.319  0.0050  0.3268  1.0901
 9777TIP3    H250823   1.100   4.221   0.246 -2.0102 -2.5445 -0.2432
 9778TIP3   OH250824   6.275   3.748  13.657 -0.0529 -0.3132 -0.2851
 9778TIP3    H150825   6.351   3.702  13.622  1.0462  0.8307  0.4938
 9778TIP3    H250826   6.306   3.787  13.739 -1.1826  1.0246 -0.4389
 9779TIP3   OH250827   1.928   6.453   2.311  0.0141  0.2601  0.2241
 9779TIP3    H150828   1.994   6.384   2.309 -0.6491 -0.3717 -0.0648
 9779TIP3    H250829   1.933   6.488   2.400  0.2787 -0.2290  0.4038
 9780TIP3   OH250830   6.202   5.250  15.383 -0.2111  0.5322 -0.0155
 9780TIP3    H150831   6.167   5.169  15.418  1.6430 -0.9801 -1.4690
 9780TIP3    H250832   6.165   5.257  15.295  0.0413  0.9977 -0.0892
 9781TIP3   OH250833   6.298   1.868  15.149 -0.1414  0.0884  0.3801
 9781TIP3    H150834   6.209   1.903  15.142 -0.6923 -1.0778  1.1778
 9781TIP3    H250835   6.329   1.899  15.234  1.0519  2.2266 -0.7471
 9782TIP3   OH250836   6.275   2.381   3.157  0.0636 -0.0050 -0.1976
 9782TIP3    H150837   6.278   2.448   3.089  1.1427  0.9578  0.7593
 9782TIP3    H250838   6.312   2.303   3.115  1.8807  0.9183 -0.3816
 9783TIP3   OH250839   2.205   4.526  16.706 -0.1460 -0.0114  1.1180
 9783TIP3    H150840   2.198   4.556  16.797 -1.5257  0.5666  0.8362
 9783TIP3    H250841   2.116   4.501  16.682 -0.4069  2.5170 -0.9529
 9784TIP3   OH250842   0.301   0.158  12.469  0.2318 -0.5161  0.0399
 9784TIP3    H150843   0.347   0.242  12.466 -3.1094  1.6962  2.8679
 9784TIP3    H250844   0.256   0.152  12.385  0.2618  0.6995 -0.0826
 9785TIP3   OH250845   5.407   4.917  16.982 -0.2158 -0.2691 -0.1274
 9785TIP3    H150846   5.421   5.009  17.003 -0.6395 -0.5086  1.3323
 9785TIP3    H250847   5.459   4.870  17.047 -1.0812 -1.0560  0.0206
 9786TIP3   OH250848   4.534   0.019  15.041 -0.2401  0.0510 -0.4539
 9786TIP3    H150849   4.609  -0.037  15.021 -0.4879 -0.4993  0.1410
 9786TIP3    H250850   4.461  -0.041  15.054 -0.6489  0.5469 -0.4075
 9787TIP3   OH250851   1.847   5.466  15.936 -0.2832  0.2521 -0.6377
 9787TIP3    H150852   1.798   5.397  15.892 -0.2047 -0.3427  0.1779
 9787TIP3    H250853   1.885   5.422  16.012 -1.4051  1.5059  0.6981
 9788TIP3   OH250854   5.704   5.464  14.412 -0.5689  0.4512  0.6097
 9788TIP3    H150855   5.622   5.418  14.395  0.3940 -2.3647  2.9120
 9788TIP3    H250856   5.689   5.511  14.494  0.2602 -0.5998  1.3878
 9789TIP3   OH250857   4.001   2.682   4.542 -0.3735  0.4328 -0.0754
 9789TIP3    H150858   4.088   2.720   4.554 -0.3567  0.1390  0.8627
 9789TIP3    H250859   3.961   2.686   4.630  0.0826 -2.7751  0.3887
 9790TIP3   OH250860   2.037   6.318   1.776 -1.1718  0.2701  0.5089
 9790TIP3    H150861   2.057   6.225   1.785  0.7185  0.4636 -1.0094
 9790TIP3    H250862   2.121   6.362   1.788 -2.0534  1.8360  1.3645
 9791TIP3   OH250863   3.956   1.746   2.863  0.7391 -0.6457  0.0361
 9791TIP3    H150864   3.875   1.731   2.912  1.8656  0.4938  2.4023
 9791TIP3    H250865   4.002   1.662   2.868 -0.1046 -1.1919 -1.0155
 9792TIP3   OH250866   1.218   1.718  14.142 -0.1875  0.3944  0.0894
 9792TIP3    H150867   1.234   1.781  14.212 -0.3509  1.4799 -0.8379
 9792TIP3    H250868   1.291   1.656  14.148  0.3926  1.1107  0.5261
 9793TIP3   OH250869   6.234   6.109  12.633  0.7286 -0.2149 -0.2775
 9793TIP3    H150870   6.265   6.155  12.711 -0.3921 -1.0944  0.7187
 9793TIP3    H250871   6.297   6.039  12.619 -0.0341 -1.1826  0.9536
 9794TIP3   OH250872   5.898   0.870   3.977 -0.4917  0.3768 -0.4103
 9794TIP3    H150873   5.909   0.854   4.071 -1.8340 -3.2078 -0.7217
 9794TIP3    H250874   5.811   0.838   3.957 -0.0120  0.4643 -3.0330
 9795TIP3   OH250875   0.923   1.622  11.640  0.0177  0.0367 -0.4634
 9795TIP3    H150876   0.937   1.607  11.546  0.4583  1.0928 -0.5818
 9795TIP3    H250877   0.939   1.537  11.681 -0.6484 -0.5513 -1.3879
 9796TIP3   OH250878   1.502   0.185   2.685 -0.5179  0.0169  0.3247
 9796TIP3    H150879   1.567   0.249   2.658  0.2333 -1.2977 -1.1384
 9796TIP3    H250880   1.488   0.202   2.778 -2.4806  4.1075 -0.5039
 9797TIP3   OH250881   5.385   6.170  10.969  0.6092  0.5162 -0.3611
 9797TIP3    H150882   5.392   6.232  11.042 -2.1328  2.0651 -1.2794
 9797TIP3    H250883   5.402   6.223  10.891 -2.6377  0.5097 -1.2337
 9798TIP3   OH250884   4.925   4.192   0.912  0.2561 -0.5480  0.2343
 9798TIP3    H150885   4.923   4.102   0.880 -1.5861 -0.0037 -1.3622
 9798TIP3    H250886   5.003   4.230   0.873 -0.4187 -0.7241 -1.3344
 9799TIP3   OH250887   3.190   6.653   4.421 -0.4001 -0.4095  0.2929
 9799TIP3    H150888   3.167   6.565   4.453 -0.0478 -0.7760 -0.4429
 9799TIP3    H250889   3.139   6.712   4.476  1.6968 -0.8722  2.9554
 9800TIP3   OH250890   2.629   1.813  14.119 -0.5841  0.0095 -0.8134
 9800TIP3    H150891   2.544   1.856  14.127 -0.6391 -0.4759  2.9443
 9800TIP3    H250892   2.693   1.884  14.128 -0.5862  0.0858 -1.3506
 9801TIP3   OH250893   6.566   0.212  15.511 -0.3688 -0.0945  0.7825
 9801TIP3    H150894   6.541   0.181  15.424 -1.1365 -0.5671  1.1574
 9801TIP3    H250895   6.599   0.301  15.496 -2.5586  0.6936  0.2444
 9802TIP3   OH250896   4.039   1.902   3.648  0.1399 -0.1874  0.3182
 9802TIP3    H150897   3.975   1.960   3.608  1.0284 -0.4017 -1.5238
 9802TIP3    H250898   4.114   1.958   3.665 -0.5647  0.1233  2.7223
 9803TIP3   OH250899   2.245   1.396   3.412 -0.8876 -0.0529  0.6473
 9803TIP3    H150900   2.269   1.477   3.455 -1.2283 -0.5287  1.7604
 9803TIP3    H250901   2.326   1.365   3.371 -0.5244  0.3380  1.0648
 9804TIP3   OH250902   0.935   3.068   0.281 -0.1564 -0.3741 -0.3293
 9804TIP3    H150903   0.906   3.026   0.362  1.9435  1.2148  1.3922
 9804TIP3    H250904   1.031   3.061   0.283 -0.0358 -2.9629 -4.3028
 9805TIP3   OH250905   6.787   0.957  16.180  0.3825  0.1942 -0.4795
 9805TIP3    H150906   6.882   0.970  16.179  0.1606  2.2698 -0.1330
 9805TIP3    H250907   6.751   1.044  16.200 -1.6102 -0.4440 -1.0076
 9806TIP3   OH250908   2.810   5.559  16.292 -0.3597  0.6022 -0.2841
 9806TIP3    H150909   2.787   5.645  16.257 -0.9374  0.9967  0.9935
 9806TIP3    H250910   2.837   5.576  16.383 -1.2983 -0.6461  0.2581
 9807TIP3   OH250911   0.659   6.737   2.929 -0.5255 -0.6640  0.0351
 9807TIP3    H150912   0.638   6.666   2.869  2.4684  0.2006 -2.3013
 9807TIP3    H250913   0.644   6.700   3.016 -0.1021 -3.8144 -1.1063
 9808TIP3   OH250914   6.230   5.251   3.891 -0.2342 -0.4109  0.5280
 9808TIP3    H150915   6.305   5.303   3.861 -2.0091  2.3573  0.5415
 9808TIP3    H250916   6.244   5.164   3.853  0.7715  1.1813 -3.2039
 9809TIP3   OH250917   1.997   4.110   0.550 -0.3715 -0.6578  0.1555
 9809TIP3    H150918   1.980   4.196   0.589 -0.6952 -1.2563  1.3881
 9809TIP3    H250919   1.932   4.052   0.590 -1.8563 -1.0157 -2.5713
 9810TIP3   OH250920   4.135   4.015  17.156  0.1302 -0.0972  0.4049
 9810TIP3    H150921   4.200   4.023  17.086 -1.6412  0.6008 -1.2054
 9810TIP3    H250922   4.068   3.957  17.120 -1.5390  1.4433  0.9509
 9811TIP3   OH250923   1.219   4.447   3.989  0.0620 -0.3587  0.3152
 9811TIP3    H150924   1.244   4.359   3.961 -0.2031 -0.5304  0.6046
 9811TIP3    H250925   1.249   4.453   4.080  2.2517  0.7265 -0.4106
 9812TIP3   OH250926   3.081   5.217  11.080 -0.4424  0.2549  0.1272
 9812TIP3    H150927   3.129   5.291  11.118  2.9788 -1.6243 -0.0805
 9812TIP3    H250928   3.116   5.210  10.991  0.2788 -2.2246  0.5146
 9813TIP3   OH250929   1.827   2.369   4.524  0.0202 -0.1956  0.2712
 9813TIP3    H150930   1.864   2.408   4.444  0.7531  0.1107  0.7486
 9813TIP3    H250931   1.877   2.288   4.536  0.9247  0.4768  1.2053
 9814TIP3   OH250932   1.074   5.793  16.630 -0.3821  0.6042  0.2790
 9814TIP3    H150933   1.050   5.721  16.572 -1.2504  0.6682  0.5492
 9814TIP3    H250934   1.125   5.751  16.700  1.0406  0.5868 -0.7190
 9815TIP3   OH250935   0.908   1.419   2.900 -0.1452  0.1805  0.2470
 9815TIP3    H150936   0.872   1.507   2.890  0.2863  0.4902  1.2644
 9815TIP3    H250937   0.886   1.394   2.990  0.0472 -0.6090  0.0850
 9816TIP3   OH250938   0.514   0.671   4.219 -0.2817  0.3312  0.1349
 9816TIP3    H150939   0.540   0.597   4.275 -0.2087 -0.1665 -0.5464
 9816TIP3    H250940   0.579   0.739   4.237  0.1718 -0.0911  0.1099
 9817TIP3   OH250941   3.684   1.237  11.118 -0.8512  0.2983 -0.2272
 9817TIP3    H150942   3.772   1.207  11.142 -0.1507  1.4058 -1.3440
 9817TIP3    H250943   3.661   1.299  11.186 -1.7773 -1.6816  1.3757
 9818TIP3   OH250944   0.082   1.260   6.771  0.2202  0.3503  0.1115
 9818TIP3    H150945   0.090   1.353   6.794  1.5837  0.7045 -1.5909
 9818TIP3    H250946   0.006   1.257   6.712  1.4320  0.8029 -1.5495
 9819TIP3   OH250947   3.325   1.030  15.559  0.1650  0.3924  0.2986
 9819TIP3    H150948   3.403   1.084  15.544  1.6041 -1.4484  0.8618
 9819TIP3    H250949   3.266   1.052  15.487  1.1261  1.9366 -0.0493
 9820TIP3   OH250950   4.832   2.846  14.262  0.8948  0.0354 -1.0688
 9820TIP3    H150951   4.818   2.933  14.223  1.3093  0.7452  0.2972
 9820TIP3    H250952   4.928   2.836  14.264  0.9127  0.3714  0.4828
 9821TIP3   OH250953   3.550   5.154   2.097 -0.1843 -0.4211  0.3594
 9821TIP3    H150954   3.481   5.214   2.069  0.3258  0.0398  0.0770
 9821TIP3    H250955   3.546   5.156   2.193 -0.4628 -0.2799  0.3456
 9822TIP3   OH250956   5.673   6.621  14.528  0.4446  0.1547 -0.7814
 9822TIP3    H150957   5.642   6.695  14.475 -0.2775 -0.9243 -1.9292
 9822TIP3    H250958   5.633   6.544  14.487 -0.5772 -0.7226  1.6398
 9823TIP3   OH250959   0.799   0.012  11.971 -0.2902 -0.0172 -0.1409
 9823TIP3    H150960   0.869   0.037  11.911 -0.7751 -1.4086 -1.3531
 9823TIP3    H250961   0.842  -0.040  12.038 -0.0577 -0.2845 -0.4947
 9824TIP3   OH250962   6.570   0.652  12.007  0.1779  0.2398 -0.1393
 9824TIP3    H150963   6.526   0.627  12.089  1.5761  0.6463  0.7652
 9824TIP3    H250964   6.605   0.569  11.973 -0.0136  0.1363 -0.0860
 9825TIP3   OH250965   0.853   0.575  16.808 -0.6619 -0.0638 -0.2760
 9825TIP3    H150966   0.779   0.608  16.757 -1.0568 -0.6172 -0.0790
 9825TIP3    H250967   0.874   0.646  16.868 -1.7226 -0.2767  0.3789
 9826TIP3   OH250968   3.747   4.274   3.399 -0.6656  0.2967 -0.4496
 9826TIP3    H150969   3.785   4.259   3.486  1.0838 -0.7507 -1.3393
 9826TIP3    H250970   3.694   4.353   3.409  1.2812  1.4846  1.0405
 9827TIP3   OH250971   6.189   1.744   1.808  0.2772  0.0183 -0.3927
 9827TIP3    H150972   6.175   1.660   1.764  1.7565 -0.4466 -0.0191
 9827TIP3    H250973   6.257   1.727   1.872 -1.8120  0.6453  2.1890
 9828TIP3   OH250974   5.662   5.975  12.527  0.9177  0.1087  0.0735
 9828TIP3    H150975   5.616   5.994  12.609 -0.6226  0.1729 -0.7508
 9828TIP3    H250976   5.610   6.020  12.460  0.8790 -1.6707 -1.1693
 9829TIP3   OH250977   3.813   1.415   0.040  0.2284  0.4942 -0.8048
 9829TIP3    H150978   3.822   1.501  -0.001 -0.2088  0.1540 -1.6532
 9829TIP3    H250979   3.752   1.428   0.113  0.7262  1.0397 -0.4865
 9830TIP3   OH250980   6.757   1.752  12.364  0.4360  0.0916 -1.1037
 9830TIP3    H150981   6.805   1.715  12.290  0.6088 -0.1732 -0.8666
 9830TIP3    H250982   6.796   1.838  12.377  0.0127  0.3779 -1.6773
 9831TIP3   OH250983   6.307   2.477   2.259 -0.3318  0.1990  0.5144
 9831TIP3    H150984   6.374   2.421   2.218 -1.0949 -1.8594  1.9225
 9831TIP3    H250985   6.293   2.547   2.195 -0.3371 -1.9656 -2.0436
 9832TIP3   OH250986   5.352   1.055   4.834 -0.2371 -0.6096  0.6894
 9832TIP3    H150987   5.280   1.049   4.897 -0.1991 -0.1529  0.7770
 9832TIP3    H250988   5.430   1.068   4.887 -0.2697  0.2817  0.5261
 9833TIP3   OH250989   5.234   4.526  13.421  0.3502 -0.4162  0.2550
 9833TIP3    H150990   5.290   4.553  13.493  0.4913  0.8002 -0.2789
 9833TIP3    H250991   5.293   4.518  13.346 -0.0860  0.3290 -0.1839
 9834TIP3   OH250992   2.341   1.680  13.544 -0.0195 -0.6203 -0.1835
 9834TIP3    H150993   2.408   1.638  13.597  0.0894 -2.5066 -1.6997
 9834TIP3    H250994   2.258   1.645  13.579 -0.0227 -0.7564 -0.3237
 9835TIP3   OH250995   5.028   5.881  15.347 -0.2389 -0.5959 -0.1792
 9835TIP3    H150996   4.945   5.925  15.328 -1.0146 -1.3418  1.2971
 9835TIP3    H250997   5.034   5.881  15.443  1.1930 -1.0719 -0.2393
 9836TIP3   OH250998   6.483   3.419  12.888 -0.9504  0.3763  0.3022
 9836TIP3    H150999   6.499   3.404  12.981  0.1049 -0.0357  0.0637
 9836TIP3    H251000   6.522   3.344  12.844  2.7916  2.6901 -0.8019
 9837TIP3   OH251001   5.411   3.184   2.203  0.7939 -0.2147  0.5145
 9837TIP3    H151002   5.326   3.182   2.158  0.1120  0.6876  1.7025
 9837TIP3    H251003   5.390   3.209   2.292  2.3366  0.0347  0.8317
 9838TIP3   OH251004   6.380   2.701   1.128  0.6842 -0.2804  0.0185
 9838TIP3    H151005   6.285   2.695   1.119  0.6652 -0.7991  0.5493
 9838TIP3    H251006   6.413   2.695   1.038  0.1992  0.2942 -0.2026
 9839TIP3   OH251007   6.243   0.491  14.043 -0.6896  0.1406 -0.0627
 9839TIP3    H151008   6.151   0.500  14.068 -0.4322  0.5798  0.7733
 9839TIP3    H251009   6.261   0.398  14.052 -0.5621  0.2901  1.6664
 9840TIP3   OH251010   4.696   1.774  14.954 -0.3708 -0.2592  0.7157
 9840TIP3    H151011   4.769   1.715  14.973  0.3510  0.4713  0.2667
 9840TIP3    H251012   4.677   1.816  15.037  1.1412  1.1036  0.4170
 9841TIP3   OH251013   1.268   1.172  13.642  0.1524  0.3523 -0.0060
 9841TIP3    H151014   1.229   1.085  13.638 -0.2843  0.5033  0.8004
 9841TIP3    H251015   1.353   1.159  13.685  0.2129  0.2901 -0.1424
 9842TIP3   OH251016   5.814   3.529   0.293  0.0898 -0.0107 -0.0844
 9842TIP3    H151017   5.901   3.553   0.326  0.3272 -0.9055 -0.0352
 9842TIP3    H251018   5.831   3.479   0.214 -0.4281  0.7308 -0.6799
 9843TIP3   OH251019   3.349   1.322  12.422 -0.0663 -0.5087  0.2165
 9843TIP3    H151020   3.333   1.296  12.512  0.7013 -2.7583 -0.2306
 9843TIP3    H251021   3.432   1.281  12.399 -0.6342 -0.6934 -1.7524
 9844TIP3   OH251022   4.027   3.728  12.730  0.0092  0.1295 -0.4101
 9844TIP3    H151023   4.099   3.725  12.668  0.3112  1.4280 -0.1393
 9844TIP3    H251024   3.976   3.805  12.706 -0.0676  0.4544  0.7099
 9845TIP3   OH251025   3.951   6.763   2.999 -0.1038  0.0042  0.6394
 9845TIP3    H151026   3.860   6.789   3.012 -0.5011 -0.7229 -0.4556
 9845TIP3    H251027   3.946   6.672   2.970  0.9749 -0.0570  0.5808
 9846TIP3   OH251028   2.893   5.316  14.007  0.3504  0.3135 -0.2275
 9846TIP3    H151029   2.954   5.372  14.055  0.7119 -0.3046  0.0421
 9846TIP3    H251030   2.923   5.321  13.916  2.5967 -2.1539  0.2393
 9847TIP3   OH251031   6.313   6.297   2.171 -0.4990  0.5364 -0.1173
 9847TIP3    H151032   6.262   6.355   2.114 -0.7588 -0.2827 -0.7373
 9847TIP3    H251033   6.403   6.330   2.165 -0.4035  0.1036 -1.5091
 9848TIP3   OH251034   3.370   0.126   0.806  0.2045  0.0641  0.0346
 9848TIP3    H151035   3.327   0.184   0.744  1.4158 -0.2417 -1.1352
 9848TIP3    H251036   3.348   0.038   0.775  0.1926 -0.0921  0.4855
 9849TIP3   OH251037   2.237   5.954   3.237  0.4766  0.3199 -0.4832
 9849TIP3    H151038   2.172   5.940   3.169  1.3732  2.3694 -1.8512
 9849TIP3    H251039   2.207   6.030   3.286 -0.6286 -1.6315  2.1421
 9850TIP3   OH251040   5.505   3.875  16.370 -0.3824  0.6604  0.3046
 9850TIP3    H151041   5.520   3.847  16.280 -0.9706 -0.8188  0.6233
 9850TIP3    H251042   5.491   3.793  16.418  1.1244  1.3252  1.9752
 9851TIP3   OH251043   0.614   0.354   0.489  0.2080  0.0017  0.3155
 9851TIP3    H151044   0.626   0.275   0.437 -0.6840 -0.8693  1.3982
 9851TIP3    H251045   0.542   0.334   0.548 -0.1705  1.7001  0.4788
 9852TIP3   OH251046   6.132   1.115   1.076 -0.1220 -0.2505 -0.0757
 9852TIP3    H151047   6.178   1.170   1.012 -1.5736 -0.4571 -1.3845
 9852TIP3    H251048   6.170   1.028   1.064 -1.6597 -0.7281 -2.1275
 9853TIP3   OH251049   3.629   5.570  16.961 -0.1525  0.0318 -0.0504
 9853TIP3    H151050   3.677   5.639  16.916 -0.2450  0.1394  0.0161
 9853TIP3    H251051   3.686   5.493  16.955 -0.1093  0.0798 -0.2389
 9854TIP3   OH251052   4.476   2.504  15.113  0.1905 -0.8407 -0.3819
 9854TIP3    H151053   4.389   2.465  15.110 -0.2870  0.2373 -0.8555
 9854TIP3    H251054   4.461   2.597  15.128  1.1315 -0.2173 -2.8725
 9855TIP3   OH251055   4.835   5.193  11.823 -0.3921  0.2221 -0.2901
 9855TIP3    H151056   4.762   5.173  11.766  0.4786 -3.0254 -0.4682
 9855TIP3    H251057   4.802   5.176  11.912 -0.0177 -0.9505 -0.3507
 9856TIP3   OH251058   2.150   3.418   5.402  0.2827  0.2811  0.8112
 9856TIP3    H151059   2.088   3.368   5.349  1.5946 -0.6168  0.0468
 9856TIP3    H251060   2.127   3.510   5.386  0.3013  0.0203 -0.9249
 9857TIP3   OH251061   0.566   2.894  10.814 -0.1306 -0.0621 -0.2077
 9857TIP3    H151062   0.529   2.877  10.727  1.0999  1.7924 -1.1752
 9857TIP3    H251063   0.583   2.807  10.851  0.0050 -0.9162 -2.1405
 9858TIP3   OH251064   0.128   5.842   3.477  0.6095 -0.1691  0.3391
 9858TIP3    H151065   0.217   5.812   3.497 -0.4328 -3.5376  0.5462
 9858TIP3    H251066   0.084   5.766   3.439 -2.5989  0.9179  1.4755
 9859TIP3   OH251067   6.522   0.149  14.602 -0.6233 -0.4086  0.0604
 9859TIP3    H151068   6.468   0.224  14.575 -0.3626 -0.2845 -0.1240
 9859TIP3    H251069   6.463   0.094  14.652 -0.4674  0.6150  1.4302
 9860TIP3   OH251070   2.002   0.508   5.349 -0.0960 -0.2920 -0.0482
 9860TIP3    H151071   1.977   0.510   5.441  0.7204  1.2977  0.1610
 9860TIP3    H251072   2.075   0.568   5.342  1.0597 -1.7548 -1.4168
 9861TIP3   OH251073   5.347   3.685   5.637 -0.0706  0.1816 -0.1322
 9861TIP3    H151074   5.409   3.745   5.679  1.4387 -1.9329  0.8234
 9861TIP3    H251075   5.401   3.615   5.602 -1.7210 -0.3583 -1.7987
 9862TIP3   OH251076   4.739   1.967  13.522  0.1080  0.3248 -0.2666
 9862TIP3    H151077   4.763   2.019  13.445  0.5342 -1.2967 -1.2814
 9862TIP3    H251078   4.822   1.955  13.569  0.3742 -0.9023 -1.0004
 9863TIP3   OH251079   3.031   4.506   5.411  0.5073 -0.0393 -0.4539
 9863TIP3    H151080   2.954   4.563   5.405 -0.2655 -0.7716  1.6369
 9863TIP3    H251081   3.072   4.529   5.494  2.6994  0.4225 -1.5599
 9864TIP3   OH251082   1.522   0.170  11.492 -0.0149  0.2483 -0.1004
 9864TIP3    H151083   1.504   0.082  11.459 -0.9063 -1.1761  3.6606
 9864TIP3    H251084   1.617   0.176  11.495  0.0602 -0.3743 -0.8831
 9865TIP3   OH251085   2.759   4.955  13.671 -0.3573 -0.4733  0.1855
 9865TIP3    H151086   2.714   4.976  13.753 -0.7049 -0.3237 -0.0419
 9865TIP3    H251087   2.774   5.041  13.630 -0.1068 -0.5419  0.1329
 9866TIP3   OH251088   4.309   4.407   2.235 -0.1171 -0.9255 -0.2733
 9866TIP3    H151089   4.262   4.479   2.193  1.0553 -0.4998 -0.8685
 9866TIP3    H251090   4.360   4.449   2.304 -0.2396 -1.3354  0.0752
 9867TIP3   OH251091   4.082   2.406   3.662  0.0588 -0.4918 -0.1940
 9867TIP3    H151092   4.080   2.501   3.645 -1.3513 -0.0577  1.9207
 9867TIP3    H251093   4.147   2.372   3.601  1.1300  1.9473 -0.5490
 9868TIP3   OH251094   1.867   0.801   1.212 -0.1711 -0.0341 -0.4091
 9868TIP3    H151095   1.844   0.830   1.124  1.5212  1.0359 -0.5545
 9868TIP3    H251096   1.791   0.824   1.266 -1.1242 -0.4742 -1.5390
 9869TIP3   OH251097   5.477   2.620  12.106  0.2756 -0.0398 -0.8138
 9869TIP3    H151098   5.502   2.590  12.019  1.7007 -1.5801  0.0706
 9869TIP3    H251099   5.487   2.543  12.162 -0.6576  0.8991  0.7162
 9870TIP3   OH251100   5.254   1.339   4.404 -0.4686  0.0212  0.0362
 9870TIP3    H151101   5.317   1.402   4.437  0.9848 -1.3714  0.0185
 9870TIP3    H251102   5.182   1.341   4.466  0.7293 -0.1544  1.4783
 9871TIP3   OH251103   0.551   5.071  10.625 -0.2383  0.0612 -0.2439
 9871TIP3    H151104   0.577   5.037  10.539  2.3154  2.2590 -0.4776
 9871TIP3    H251105   0.615   5.036  10.686 -0.6844  0.3164  0.3869
 9872TIP3   OH251106   1.805   0.836   0.128  0.0100 -0.2726 -0.1127
 9872TIP3    H151107   1.898   0.854   0.144 -0.1967  0.8002 -0.0093
 9872TIP3    H251108   1.774   0.913   0.079 -1.0626 -0.1125  0.7841
 9873TIP3   OH251109   1.357   1.624  13.882 -0.1125  0.1188  0.3788
 9873TIP3    H151110   1.313   1.553  13.835 -1.0537  0.3500  0.8822
 9873TIP3    H251111   1.287   1.685  13.904  0.2877  0.0469  2.0325
 9874TIP3   OH251112   0.189   6.060  13.345 -0.4007 -0.0431  0.2134
 9874TIP3    H151113   0.282   6.073  13.328 -0.6120  0.0258 -1.0505
 9874TIP3    H251114   0.162   5.994  13.280 -1.3658  0.4313  0.1159
 9875TIP3   OH251115   1.189   4.628  13.082 -0.0417  0.1423 -0.2044
 9875TIP3    H151116   1.157   4.573  13.011  1.2546 -0.3168 -0.4455
 9875TIP3    H251117   1.235   4.568  13.141  0.3479  0.7781  0.1551
 9876TIP3   OH251118   6.635   2.456   1.090 -0.4664 -0.6026 -0.3525
 9876TIP3    H151119   6.674   2.488   1.171  0.4676 -1.5834 -0.3876
 9876TIP3    H251120   6.597   2.533   1.049 -2.2518 -0.2982  1.6881
 9877TIP3   OH251121   5.846   5.921  15.185  0.2775  0.3722 -0.2539
 9877TIP3    H151122   5.831   5.920  15.091  0.3365  2.8485 -0.3365
 9877TIP3    H251123   5.760   5.907  15.224  0.3364 -1.2185 -0.6307
 9878TIP3   OH251124   3.762   1.796  15.555 -0.3272  0.5313  0.0536
 9878TIP3    H151125   3.679   1.821  15.596 -0.4325 -0.2278  0.3135
 9878TIP3    H251126   3.787   1.715  15.598  0.3745  0.5638 -0.2778
 9879TIP3   OH251127   6.390   2.729  15.894 -0.2237  0.5679 -0.1297
 9879TIP3    H151128   6.408   2.699  15.982 -0.6242  0.9836  0.1006
 9879TIP3    H251129   6.300   2.762  15.897  0.2042  1.8517 -0.3337
 9880TIP3   OH251130   6.084   0.401   4.966  0.6160 -0.0323 -0.3992
 9880TIP3    H151131   5.989   0.404   4.950  0.3725  0.0081  0.9791
 9880TIP3    H251132   6.105   0.308   4.969  0.9234 -0.0592 -2.2708
 9881TIP3   OH251133   3.313   1.731   5.453  0.2231  0.8941  0.0102
 9881TIP3    H151134   3.407   1.747   5.465  0.0846  0.8534  1.2856
 9881TIP3    H251135   3.285   1.691   5.535 -0.7598  0.1768 -0.6585
 9882TIP3   OH251136   5.787   4.356  14.778  0.2582 -0.3609 -0.2179
 9882TIP3    H151137   5.699   4.386  14.756 -0.4194 -1.0692  1.3294
 9882TIP3    H251138   5.812   4.299  14.705  0.6555  2.0477 -2.0741
 9883TIP3   OH251139   6.658   5.020  15.586 -0.9573  0.1381 -0.1751
 9883TIP3    H151140   6.680   4.972  15.665 -0.8639  2.0767  1.0382
 9883TIP3    H251141   6.569   4.992  15.565 -0.6568 -1.0666  0.0475
 9884TIP3   OH251142   2.973   0.263  15.268  0.5608 -0.4237  0.7169
 9884TIP3    H151143   2.911   0.229  15.333 -0.0355 -0.2063  0.2777
 9884TIP3    H251144   2.944   0.353  15.252  1.1940 -0.2100  0.7427
 9885TIP3   OH251145   4.043   5.595  14.669 -0.1589 -0.0934 -0.5306
 9885TIP3    H151146   3.979   5.531  14.635 -1.9254  1.8507 -1.0737
 9885TIP3    H251147   4.041   5.582  14.764 -1.0671 -0.3673 -0.5748
 9886TIP3   OH251148   6.095   4.535  14.279  0.0803  0.4623  0.5315
 9886TIP3    H151149   6.046   4.599  14.331 -1.8196 -1.2519  0.9921
 9886TIP3    H251150   6.077   4.559  14.188 -1.3384  0.0943  0.6985
 9887TIP3   OH251151   3.052   3.894  11.445  0.5967 -0.1556  0.1199
 9887TIP3    H151152   3.140   3.882  11.480  0.7562 -2.9750 -0.9780
 9887TIP3    H251153   2.994   3.855  11.511  0.0953  1.6511  0.8206
 9888TIP3   OH251154   2.897   0.164  14.779  0.0395  0.2503 -0.3386
 9888TIP3    H151155   2.905   0.178  14.685 -2.0417 -0.5927 -0.6975
 9888TIP3    H251156   2.803   0.171  14.796  0.4567  1.2907  1.8490
 9889TIP3   OH251157   2.699   4.272  10.776  0.6101 -0.0921 -0.2101
 9889TIP3    H151158   2.751   4.194  10.757  0.5490  0.3832 -2.6652
 9889TIP3    H251159   2.657   4.293  10.693 -2.3176  0.4369  1.2757
 9890TIP3   OH251160   0.198   1.522  13.498  0.2286  0.8878 -0.2846
 9890TIP3    H151161   0.192   1.590  13.565  0.1043  0.4344  0.1629
 9890TIP3    H251162   0.158   1.445  13.537  1.6836  0.1257 -0.2220
 9891TIP3   OH251163   5.599   3.927  14.541 -0.0731 -0.3108  0.2950
 9891TIP3    H151164   5.520   3.978  14.526  0.3947  0.0698 -1.0155
 9891TIP3    H251165   5.578   3.872  14.616 -2.5731 -2.1902 -1.6216
 9892TIP3   OH251166   6.141   5.974  16.665 -0.6341 -0.2685 -0.3008
 9892TIP3    H151167   6.112   5.887  16.636  0.5948 -0.1440 -2.0457
 9892TIP3    H251168   6.093   5.989  16.746 -2.0124 -1.9359 -0.7447
 9893TIP3   OH251169   1.880   5.413  11.384 -0.1783  0.7345 -0.0303
 9893TIP3    H151170   1.890   5.366  11.467 -0.7313  0.0683 -0.3313
 9893TIP3    H251171   1.966   5.450  11.367  0.5433 -0.9659 -0.2574
 9894TIP3   OH251172   1.376   3.488   0.503  0.4480  0.1272 -0.1417
 9894TIP3    H151173   1.363   3.534   0.421 -1.6131  1.6807  0.9561
 9894TIP3    H251174   1.437   3.542   0.553  0.1803  0.2303  0.0802
 9895TIP3   OH251175   6.774   2.007   5.536 -0.1462 -0.0284 -0.1733
 9895TIP3    H151176   6.869   1.999   5.544  0.0295  2.5215  1.3525
 9895TIP3    H251177   6.750   1.942   5.470  2.6605 -0.6177 -0.7407
 9896TIP3   OH251178   5.894   1.528  15.226  0.5469 -0.1789  0.3258
 9896TIP3    H151179   5.851   1.528  15.141 -0.1859 -1.4662  0.6517
 9896TIP3    H251180   5.900   1.620  15.250  1.2110  0.2299 -1.3147
 9897TIP3   OH251181   6.713   2.686   5.986  0.4537 -0.1398  0.4567
 9897TIP3    H151182   6.803   2.680   5.954 -0.1499 -0.1404 -1.3636
 9897TIP3    H251183   6.718   2.740   6.064  2.0953 -0.5503  0.6661
 9898TIP3   OH251184   6.330   1.428   7.033  0.0961  0.2359 -0.1557
 9898TIP3    H151185   6.313   1.421   7.127  0.3280  0.3527 -0.1048
 9898TIP3    H251186   6.325   1.337   7.001  1.1667  0.0537  0.1677
 9899TIP3   OH251187   2.944   0.219  14.363 -0.2215 -0.4281  0.3279
 9899TIP3    H151188   2.992   0.175  14.293 -0.8201  0.6436 -0.7881
 9899TIP3    H251189   2.870   0.160  14.382 -1.0569  0.0775 -1.1977
 9900TIP3   OH251190   2.005   6.643  16.493 -0.6172 -0.1389  0.1960
 9900TIP3    H151191   1.968   6.707  16.432 -0.3759 -0.6652 -0.5152
 9900TIP3    H251192   2.044   6.696  16.562 -1.4880  0.4565  0.2577
 9901TIP3   OH251193   0.191   6.128  12.303 -0.0520 -0.3404 -0.2192
 9901TIP3    H151194   0.152   6.201  12.350  0.8893 -0.1231  0.2499
 9901TIP3    H251195   0.182   6.151  12.211 -2.0846 -0.8590 -0.1904
 9902TIP3   OH251196   1.378   3.992   1.181  0.4861 -0.5178  0.2826
 9902TIP3    H151197   1.423   4.077   1.174 -1.7296  0.6184 -1.5445
 9902TIP3    H251198   1.301   4.011   1.234  0.4856 -1.6657  0.7091
 9903TIP3   OH251199   4.243   4.111   2.549  0.4458 -0.4773  0.9809
 9903TIP3    H151200   4.328   4.146   2.575  0.7208  0.0809 -0.5588
 9903TIP3    H251201   4.232   4.032   2.602  0.2007  1.3994  3.9393
 9904TIP3   OH251202   4.289   2.507  10.724  0.2904 -0.2815  0.2779
 9904TIP3    H151203   4.250   2.434  10.773 -1.7670  0.8870  0.4746
 9904TIP3    H251204   4.377   2.515  10.760 -0.2708 -1.1467  1.9663
 9905TIP3   OH251205   2.730   1.336  13.320  0.0879  0.4047  0.4599
 9905TIP3    H151206   2.790   1.337  13.245  0.5474  2.5148  0.8012
 9905TIP3    H251207   2.692   1.424  13.322 -1.8538 -0.3931  1.2166
 9906TIP3   OH251208   4.112   0.208  13.774  0.0023 -0.5100  0.1562
 9906TIP3    H151209   4.151   0.122  13.788  3.7965  1.4174  3.3774
 9906TIP3    H251210   4.041   0.213  13.838  0.5478 -0.8508  0.7938
 9907TIP3   OH251211   2.544   2.576  12.641  0.7266 -0.3395  0.0931
 9907TIP3    H151212   2.626   2.585  12.592  1.1992 -0.3129  0.8654
 9907TIP3    H251213   2.533   2.661  12.684 -0.0883 -0.0987 -0.5615
 9908TIP3   OH251214   4.322   5.897   5.507  0.3236  0.5719 -0.4066
 9908TIP3    H151215   4.365   5.823   5.464  0.3263 -0.6597  1.5889
 9908TIP3    H251216   4.274   5.858   5.580 -0.6865  2.4187 -0.0251
 9909TIP3   OH251217   5.010   0.486   4.994 -0.4504 -0.1898 -0.3494
 9909TIP3    H151218   4.978   0.533   4.918  0.5358 -0.5731 -1.0255
 9909TIP3    H251219   5.103   0.471   4.976 -0.2386 -0.4478  0.8457
 9910TIP3   OH251220   2.975   1.113   5.120  0.5711 -0.6176  0.2835
 9910TIP3    H151221   3.053   1.088   5.170  0.0536 -1.6322  0.6175
 9910TIP3    H251222   2.922   1.163   5.181  1.2093  0.5810 -0.1196
 9911TIP3   OH251223   1.150   2.125  14.488 -0.3758  0.1380 -0.1589
 9911TIP3    H151224   1.102   2.142  14.408 -1.4927 -0.4605  0.3656
 9911TIP3    H251225   1.090   2.073  14.542  0.1310  1.0015  1.2906
 9912TIP3   OH251226   2.549   5.791  11.583 -0.3674 -0.1123 -0.3704
 9912TIP3    H151227   2.537   5.698  11.604 -1.6446  0.0278 -0.4108
 9912TIP3    H251228   2.638   5.796  11.548 -0.4310 -1.4065 -0.7758
 9913TIP3   OH251229   6.188   5.601  15.706 -0.0057 -0.1868 -0.4104
 9913TIP3    H151230   6.217   5.517  15.670 -2.6025 -1.5041  0.3263
 9913TIP3    H251231   6.249   5.619  15.778  0.1463 -1.8614 -0.0826
 9914TIP3   OH251232   5.078   3.199  16.913 -0.7140 -0.4197 -0.3531
 9914TIP3    H151233   5.122   3.181  16.996  0.5045 -0.2811 -0.9425
 9914TIP3    H251234   5.066   3.113  16.872 -0.0986 -0.3897 -0.6133
 9915TIP3   OH251235   1.843   1.103   6.571  0.5563  0.3191  0.1275
 9915TIP3    H151236   1.857   1.191   6.607  1.0068 -0.3220  1.5781
 9915TIP3    H251237   1.931   1.069   6.554  0.4062 -0.0893  0.1612
 9916TIP3   OH251238   6.719   3.999  13.254  0.1744  0.2212 -0.7702
 9916TIP3    H151239   6.659   4.050  13.199  0.7690 -1.2192 -2.9045
 9916TIP3    H251240   6.797   3.988  13.200  1.6581  0.4570  1.2214
 9917TIP3   OH251241   2.363   4.085   4.966 -0.4746 -0.2142 -0.2160
 9917TIP3    H151242   2.276   4.117   4.989 -0.6189 -1.0775  0.4770
 9917TIP3    H251243   2.409   4.078   5.050  1.1359  2.5710 -0.7314
 9918TIP3   OH251244   6.049   2.676   5.622 -0.3075  0.4426  0.2151
 9918TIP3    H151245   6.139   2.681   5.654 -0.3694  0.8311  0.3314
 9918TIP3    H251246   6.052   2.609   5.554 -0.2419 -0.6176  1.2296
 9919TIP3   OH251247   2.041   1.310   1.538  0.0902 -0.1464 -0.0901
 9919TIP3    H151248   2.122   1.337   1.581 -0.7988 -0.8776  2.1943
 9919TIP3    H251249   1.972   1.335   1.599 -1.2285 -1.7205 -0.8586
 9920TIP3   OH251250   4.838   1.348  16.919  0.6679 -0.0902 -0.9353
 9920TIP3    H151251   4.774   1.418  16.929  2.4374  1.4889 -0.0971
 9920TIP3    H251252   4.786   1.273  16.890 -1.6878  0.8437  0.5243
 9921TIP3   OH251253   2.314   3.477   4.554  0.1767  0.1852 -0.4900
 9921TIP3    H151254   2.226   3.514   4.556  0.1147  0.0283 -0.2362
 9921TIP3    H251255   2.340   3.472   4.646  0.6766  0.7581 -0.5962
 9922TIP3   OH251256   3.359   0.434  15.454 -0.2259 -0.4004  0.0848
 9922TIP3    H151257   3.322   0.384  15.381 -2.1142  2.9552 -1.4732
 9922TIP3    H251258   3.448   0.455  15.425  0.0039 -1.3827  0.0264
 9923TIP3   OH251259   6.145   6.559  10.879 -0.3817 -0.5209 -0.0442
 9923TIP3    H151260   6.182   6.567  10.791  0.7326  0.7517  0.5121
 9923TIP3    H251261   6.092   6.638  10.890  0.3713 -0.1248  0.8202
 9924TIP3   OH251262   5.923   6.053  15.513 -0.3142  0.3476 -0.4080
 9924TIP3    H151263   5.857   6.044  15.581 -0.4666  1.5794 -0.3726
 9924TIP3    H251264   5.935   5.964  15.479 -0.0159 -0.3326  1.4027
 9925TIP3   OH251265   5.045   0.959   1.223  0.1824 -0.2587 -0.9026
 9925TIP3    H151266   4.968   1.016   1.232 -0.0586 -0.6884 -0.1416
 9925TIP3    H251267   5.011   0.871   1.235  0.9258 -0.3971  0.4156
 9926TIP3   OH251268   0.974   5.237   4.687 -0.2372  0.0741  0.2821
 9926TIP3    H151269   0.952   5.205   4.774  0.4806  1.5293  1.0395
 9926TIP3    H251270   1.068   5.218   4.677 -0.1291  0.6554  0.1683
 9927TIP3   OH251271   1.538   1.448  15.077 -0.0522  0.6841  0.5465
 9927TIP3    H151272   1.587   1.509  15.132 -0.8790  2.3914 -0.5377
 9927TIP3    H251273   1.448   1.453  15.110 -0.1898  0.2768  0.2382
 9928TIP3   OH251274   1.721   4.127   3.898 -0.5949 -0.0283 -0.2034
 9928TIP3    H151275   1.732   4.033   3.916 -0.0067  0.3139  1.3669
 9928TIP3    H251276   1.782   4.170   3.957 -2.3016  1.4475  0.5585
 9929TIP3   OH251277   0.414   5.357  12.219  0.1312  0.5788  0.0916
 9929TIP3    H151278   0.403   5.317  12.133 -0.0301  0.4577  0.1665
 9929TIP3    H251279   0.341   5.322  12.271  1.2251 -0.7787  0.8004
 9930TIP3   OH251280   2.605   3.109  12.701 -0.1315 -0.0568  0.0027
 9930TIP3    H151281   2.662   3.086  12.774  1.5182  1.7077 -0.6415
 9930TIP3    H251282   2.518   3.119  12.740  0.3312 -1.0261  1.3514
 9931TIP3   OH251283   2.802   6.045  11.400  0.0384 -0.0525  1.2011
 9931TIP3    H151284   2.741   5.976  11.373 -0.1270  0.9109 -1.1305
 9931TIP3    H251285   2.745   6.119  11.422  0.2732  1.0246 -1.4941
 9932TIP3   OH251286   3.546   2.517  13.872  0.2991 -0.4186  0.2678
 9932TIP3    H151287   3.558   2.612  13.881  1.4371 -0.5533  0.3271
 9932TIP3    H251288   3.539   2.503  13.777 -0.0302 -0.2614  0.2664
 9933TIP3   OH251289   5.334   5.803   2.886  0.2400 -0.2155  0.1161
 9933TIP3    H151290   5.294   5.877   2.840 -2.3438 -1.2931  0.4552
 9933TIP3    H251291   5.400   5.843   2.942 -0.1778  1.6865 -0.6403
 9934TIP3   OH251292   3.021   6.244   1.356  0.3622  0.2926  0.1250
 9934TIP3    H151293   3.101   6.193   1.366  0.7270  0.6623 -0.7889
 9934TIP3    H251294   3.050   6.335   1.366 -0.4303  0.3366  2.7273
 9935TIP3   OH251295   2.712   2.868   2.389  0.4116 -0.3775 -0.6108
 9935TIP3    H151296   2.781   2.806   2.413  0.7331  0.1097 -0.2822
 9935TIP3    H251297   2.638   2.812   2.365  0.2684 -0.9016  0.9409
 9936TIP3   OH251298   5.393   0.948  13.772 -0.0197  0.0908 -0.3392
 9936TIP3    H151299   5.310   0.985  13.803 -0.5703  0.1259 -1.7646
 9936TIP3    H251300   5.430   1.016  13.716  0.2332 -0.5030 -0.9077
 9937TIP3   OH251301   3.229   6.705  13.053  0.0494  0.0313 -0.1310
 9937TIP3    H151302   3.258   6.661  12.974 -0.8059 -1.2613  0.2476
 9937TIP3    H251303   3.172   6.775  13.022  0.1105 -0.1588 -0.6746
 9938TIP3   OH251304   1.278   1.269  15.217  0.1373  0.5405  0.2002
 9938TIP3    H151305   1.318   1.194  15.172  0.0539  1.3462 -1.2757
 9938TIP3    H251306   1.187   1.243  15.231  0.2450  0.1568  0.1948
 9939TIP3   OH251307   3.300   4.097   3.382  0.1935  0.2828 -0.2920
 9939TIP3    H151308   3.335   4.056   3.303 -0.4111 -0.0899 -0.3679
 9939TIP3    H251309   3.233   4.037   3.413 -0.6541  1.1672 -0.3626
 9940TIP3   OH251310   5.000   4.970   3.970  0.0975 -0.0338 -0.1091
 9940TIP3    H151311   4.917   4.922   3.961 -1.4166  2.5459 -1.0997
 9940TIP3    H251312   5.067   4.902   3.977 -1.7713 -2.3006 -2.3916
 9941TIP3   OH251313   2.204   2.152   4.546 -0.0691 -0.2347 -0.0136
 9941TIP3    H151314   2.124   2.127   4.502  0.2208 -1.0463 -0.0946
 9941TIP3    H251315   2.184   2.237   4.586 -1.2420 -0.8054  0.6758
 9942TIP3   OH251316   4.946   1.959  14.182  0.3787 -0.1445  0.1895
 9942TIP3    H151317   5.039   1.975  14.163  0.2645 -0.6829 -0.9062
 9942TIP3    H251318   4.925   2.023  14.250  1.3503  0.5344 -0.1115
 9943TIP3   OH251319   3.533   1.288  16.189 -0.1714  0.0487  0.3666
 9943TIP3    H151320   3.540   1.193  16.198  0.3300 -0.0687 -1.0326
 9943TIP3    H251321   3.564   1.322  16.273  0.5225 -1.0041  0.5571
 9944TIP3   OH251322   2.581   0.919   1.984  0.4114  0.5005  0.0118
 9944TIP3    H151323   2.585   0.827   1.958  1.0768  0.6913 -0.5648
 9944TIP3    H251324   2.656   0.932   2.042  0.0645  0.5757  0.4540
 9945TIP3   OH251325   1.667   6.544  14.872 -0.2475  0.3573 -0.4296
 9945TIP3    H151326   1.709   6.466  14.908 -2.5005 -1.1302 -0.8250
 9945TIP3    H251327   1.695   6.615  14.930 -0.2128 -1.1898  1.5615
 9946TIP3   OH251328   1.108   3.968  14.338  0.2310 -0.3115  0.4239
 9946TIP3    H151329   1.037   4.022  14.374  2.1053  1.7646  1.2223
 9946TIP3    H251330   1.084   3.956  14.246 -0.8444  0.9083  0.5130
 9947TIP3   OH251331   2.263   1.712   6.404  0.5405 -0.1598  0.3161
 9947TIP3    H151332   2.269   1.805   6.428  0.8468  0.0198 -0.4392
 9947TIP3    H251333   2.310   1.667   6.474  3.5151  0.5470 -1.0404
 9948TIP3   OH251334   0.634   1.391   5.065  0.4653  1.5868 -0.5242
 9948TIP3    H151335   0.726   1.385   5.038  0.2317  2.4994 -1.6246
 9948TIP3    H251336   0.623   1.483   5.090  0.0902  1.2526  0.5733
 9949TIP3   OH251337   1.258   6.548  15.458 -0.1876 -0.0261 -0.4705
 9949TIP3    H151338   1.250   6.590  15.543 -0.6589 -0.1971 -0.4271
 9949TIP3    H251339   1.214   6.608  15.397 -1.0469 -0.5380 -0.3747
 9950TIP3   OH251340   1.477   2.580  15.329 -0.1676  0.0156 -0.3467
 9950TIP3    H151341   1.384   2.590  15.352 -0.0014 -0.1129  0.4285
 9950TIP3    H251342   1.520   2.654  15.373 -0.3221  2.2636 -3.6382
 9951TIP3   OH251343   1.464   2.187  10.992  0.6673  0.1701 -0.1806
 9951TIP3    H151344   1.443   2.114  10.934 -0.1218 -0.2397  0.5743
 9951TIP3    H251345   1.533   2.235  10.948 -0.5841  0.4576 -1.9277
 9952TIP3   OH251346   2.480   4.892  13.577 -0.0585 -0.0820  0.3179
 9952TIP3    H151347   2.443   4.980  13.586  0.1654  0.2238 -1.4575
 9952TIP3    H251348   2.574   4.904  13.584 -0.0330 -0.2007  0.1815
 9953TIP3   OH251349   2.055   2.025  14.378 -0.1935 -0.3966  0.2640
 9953TIP3    H151350   2.120   1.975  14.427  1.0442 -0.6496 -1.5199
 9953TIP3    H251351   2.098   2.109  14.360  0.3494 -1.1195 -2.2542
 9954TIP3   OH251352   0.047   1.436  15.388 -0.2179 -0.5285  0.1484
 9954TIP3    H151353  -0.030   1.493  15.398  0.0524  0.0347 -0.8377
 9954TIP3    H251354   0.122   1.495  15.395  0.0659 -0.7317 -0.9083
 9955TIP3   OH251355   3.365   0.406   0.546 -0.5957 -0.3794 -0.5045
 9955TIP3    H151356   3.411   0.335   0.500 -0.7157 -1.4444  0.9441
 9955TIP3    H251357   3.298   0.361   0.597 -0.9384  0.8291  0.1350
 9956TIP3   OH251358   4.155   3.760  13.310  0.0408 -0.4364  0.1792
 9956TIP3    H151359   4.218   3.831  13.323  2.1781 -2.5676  2.2413
 9956TIP3    H251360   4.151   3.748  13.215  1.8101  0.5405 -0.0501
 9957TIP3   OH251361   1.038   4.284  15.290  0.2585  0.2810  0.4870
 9957TIP3    H151362   0.987   4.363  15.271 -0.5309 -0.2609  0.2775
 9957TIP3    H251363   1.058   4.247  15.205  1.4822  0.7668  0.5491
 9958TIP3   OH251364   2.428   0.143  15.976 -0.1915  0.0087  0.0360
 9958TIP3    H151365   2.466   0.166  16.061  2.6953  3.4758 -1.9152
 9958TIP3    H251366   2.348   0.193  15.970  0.5486  1.2293  0.0643
 9959TIP3   OH251367   6.159   2.948   5.491 -0.1190 -0.0579 -0.7761
 9959TIP3    H151368   6.125   2.990   5.570 -0.4716  0.4400 -1.1814
 9959TIP3    H251369   6.246   2.917   5.516  0.1648  0.9441 -0.4624
 9960TIP3   OH251370   6.265   4.032   0.956 -0.5495 -0.2978 -0.6087
 9960TIP3    H151371   6.283   3.938   0.965  0.9398  0.0726  0.6792
 9960TIP3    H251372   6.265   4.047   0.862 -0.9235 -1.5959 -0.8449
 9961TIP3   OH251373   3.699   5.575  14.409  0.0791 -0.2413 -0.1695
 9961TIP3    H151374   3.692   5.668  14.389 -0.6995  0.0818  1.4623
 9961TIP3    H251375   3.612   5.549  14.438  0.1470 -1.6248 -1.1124
 9962TIP3   OH251376   1.785   4.429   0.947  0.3084  0.7628 -0.2115
 9962TIP3    H151377   1.880   4.419   0.957  0.3543 -0.1637 -1.3224
 9962TIP3    H251378   1.752   4.432   1.037  1.2116 -0.9958  0.2309
 9963TIP3   OH251379   0.464   1.389   2.665  0.1089  0.0537 -0.2601
 9963TIP3    H151380   0.497   1.313   2.617  0.4950  1.0093 -1.5548
 9963TIP3    H251381   0.379   1.408   2.625  0.0626  0.3641 -0.0169
 9964TIP3   OH251382   5.639   2.280   0.020 -0.1894  0.2308 -0.1195
 9964TIP3    H151383   5.639   2.206   0.081 -3.0575 -0.5181 -0.8958
 9964TIP3    H251384   5.730   2.309   0.019  0.6460 -1.9572  1.7943
 9965TIP3   OH251385   5.099   5.860  15.087  0.1427 -0.8914  0.6107
 9965TIP3    H151386   5.074   5.862  15.180 -1.7755  1.1570  0.1367
 9965TIP3    H251387   5.165   5.928  15.078 -0.2721 -0.5229  0.3345
 9966TIP3   OH251388   5.373   1.387   4.051  0.1040 -0.1898  0.3394
 9966TIP3    H151389   5.279   1.406   4.055 -0.1229 -1.3904  1.3530
 9966TIP3    H251390   5.407   1.417   4.136  0.5420 -0.1832  0.1614
 9967TIP3   OH251391   1.972   3.901   5.824 -0.3422  0.5532  0.2061
 9967TIP3    H151392   1.981   3.808   5.808 -0.2757  0.6657 -0.4310
 9967TIP3    H251393   1.984   3.911   5.919 -1.8968 -0.2577  0.5098
 9968TIP3   OH251394   5.340   5.062   0.691  0.8843 -0.0875  0.5681
 9968TIP3    H151395   5.274   5.132   0.691 -1.1996 -1.8913 -1.4593
 9968TIP3    H251396   5.395   5.081   0.768 -0.2068  3.1169  0.7126
 9969TIP3   OH251397   1.907   2.118   3.699  0.0461  0.0635  0.9572
 9969TIP3    H151398   1.929   2.141   3.789  0.4649 -0.7218  1.0674
 9969TIP3    H251399   1.823   2.161   3.683  1.1953  2.3938  0.8330
 9970TIP3   OH251400   2.542   1.844  14.689  0.2522 -0.4325  0.0918
 9970TIP3    H151401   2.581   1.809  14.769  0.6825 -1.1919 -0.4481
 9970TIP3    H251402   2.579   1.792  14.619 -0.3151  0.0678 -0.5930
 9971TIP3   OH251403   6.098   4.657  15.278 -0.0089  0.3862  0.0339
 9971TIP3    H151404   6.182   4.619  15.301  0.2795 -0.0656 -1.6097
 9971TIP3    H251405   6.074   4.711  15.353  0.9324 -0.7990  1.2130
 9972TIP3   OH251406   6.793   2.513  15.122  0.2922  0.1903 -0.0349
 9972TIP3    H151407   6.749   2.460  15.188  0.3497  1.8790  1.4347
 9972TIP3    H251408   6.738   2.506  15.044 -0.6597 -0.5318  0.6863
 9973TIP3   OH251409   1.083   4.482  10.809  0.3100 -0.2892  0.6717
 9973TIP3    H151410   1.106   4.458  10.719 -1.2719  2.2655 -0.5492
 9973TIP3    H251411   1.120   4.569  10.820  0.2579 -0.4681  2.4439
 9974TIP3   OH251412   4.335   0.721  12.859 -0.0544  0.6020 -0.1176
 9974TIP3    H151413   4.315   0.779  12.786  1.0257  0.8537 -0.2264
 9974TIP3    H251414   4.408   0.667  12.827 -0.4933 -0.2532  0.2791
 9975TIP3   OH251415   1.226   0.511   4.952 -0.8043  0.0752  0.0020
 9975TIP3    H151416   1.187   0.559   5.026  0.8484 -0.9818  1.6627
 9975TIP3    H251417   1.208   0.419   4.972 -0.6856 -0.2148 -1.1609
 9976TIP3   OH251418   6.680   6.423   1.732  0.0263  0.3973  0.4178
 9976TIP3    H151419   6.733   6.374   1.669 -0.4303 -0.7467  0.8887
 9976TIP3    H251420   6.702   6.515   1.716 -1.8293  0.4056 -3.0722
 9977TIP3   OH251421   0.414   3.112   2.476  0.8539  0.2491  0.1993
 9977TIP3    H151422   0.465   3.032   2.482  0.7460  0.2322  1.1527
 9977TIP3    H251423   0.474   3.178   2.442  2.1095  0.6785  2.9720
 9978TIP3   OH251424   1.146   3.205   5.206  0.3688  0.5600 -0.0406
 9978TIP3    H151425   1.063   3.173   5.242 -0.0674  1.6321 -0.0570
 9978TIP3    H251426   1.186   3.252   5.279  1.5701 -0.9904  0.3532
 9979TIP3   OH251427   0.928   2.269   3.721  0.3913 -0.1601  0.3699
 9979TIP3    H151428   0.918   2.335   3.652  1.2996  0.7518  1.0660
 9979TIP3    H251429   0.869   2.198   3.696  0.5420  0.2414 -1.2224
 9980TIP3   OH251430   0.659   5.925   5.234  0.0683 -0.0683  0.2271
 9980TIP3    H151431   0.627   6.014   5.222 -0.2333 -0.4168 -1.8291
 9980TIP3    H251432   0.753   5.935   5.250 -0.3886  0.7437  2.9572
 9981TIP3   OH251433   2.872   4.944  14.907 -0.1755 -0.7863  0.4073
 9981TIP3    H151434   2.864   4.914  14.817  0.9464 -1.4453  0.5088
 9981TIP3    H251435   2.837   4.873  14.960  0.6895 -1.1080  0.5594
 9982TIP3   OH251436   2.186   2.595   5.499  0.1043 -0.1680  0.1226
 9982TIP3    H151437   2.276   2.584   5.530 -0.1296 -0.9404  0.5334
 9982TIP3    H251438   2.132   2.584   5.577 -0.2597  2.4555  0.3363
 9983TIP3   OH251439   1.397   1.692   3.565  0.1038 -0.7526 -0.0293
 9983TIP3    H151440   1.363   1.608   3.535 -2.3194  0.1556 -0.0095
 9983TIP3    H251441   1.383   1.691   3.660  0.8384 -0.6204  0.0914
 9984TIP3   OH251442   6.183   1.671   2.491  0.1469  0.0752 -0.1923
 9984TIP3    H151443   6.122   1.741   2.513 -0.2443 -0.2119 -0.3475
 9984TIP3    H251444   6.172   1.606   2.561 -0.5900 -0.5184 -0.8538
 9985TIP3   OH251445   1.425   3.639   4.190 -0.1689 -0.6762 -0.2964
 9985TIP3    H151446   1.378   3.568   4.233 -0.3204 -0.3579  0.0708
 9985TIP3    H251447   1.513   3.605   4.176 -0.5734 -1.3786 -1.2371
 9986TIP3   OH251448   1.591   1.842   1.122 -0.3520  0.4383 -0.2296
 9986TIP3    H151449   1.646   1.921   1.124 -0.3967  0.5117 -1.1612
 9986TIP3    H251450   1.554   1.836   1.210 -0.7378  1.7311 -0.2772
 9987TIP3   OH251451   5.435   0.336   5.306 -0.5666  0.1737 -0.0549
 9987TIP3    H151452   5.464   0.281   5.234 -0.1122  0.1097  0.1716
 9987TIP3    H251453   5.496   0.316   5.377 -1.7610 -0.7060  0.7662
 9988TIP3   OH251454   2.839   3.486  14.475 -0.1744  0.6118 -0.2240
 9988TIP3    H151455   2.868   3.576  14.456  0.0963  0.6820  0.5166
 9988TIP3    H251456   2.915   3.444  14.514 -0.5861  0.3344  0.2898
 9989TIP3   OH251457   6.335   3.177   0.469 -0.4640  0.1509  0.3978
 9989TIP3    H151458   6.272   3.111   0.443 -0.3841 -0.3788  1.4932
 9989TIP3    H251459   6.283   3.256   0.482 -0.9375 -0.2849  1.3117
 9990TIP3   OH251460   0.794   4.833   1.574  0.0535 -0.1353  0.2565
 9990TIP3    H151461   0.723   4.860   1.516 -0.3274  1.3640  1.3595
 9990TIP3    H251462   0.863   4.898   1.560  1.0595 -1.3081 -0.4535
 9991TIP3   OH251463   0.643   4.941   3.198  0.0970 -0.1029 -0.1104
 9991TIP3    H151464   0.623   5.001   3.270  1.4159  3.4328 -2.3636
 9991TIP3    H251465   0.559   4.902   3.175 -1.5282  3.0462 -0.1221
 9992TIP3   OH251466   2.548   0.383  14.432  0.1290  0.7080  0.3403
 9992TIP3    H151467   2.533   0.290  14.416  0.7861  0.4221  1.2742
 9992TIP3    H251468   2.497   0.403  14.510  0.8802  0.8509  0.8023
 9993TIP3   OH251469   2.974   5.743  11.034  0.5786  0.7909  0.2514
 9993TIP3    H151470   3.040   5.731  11.103  0.5370 -0.8183  0.0609
 9993TIP3    H251471   3.023   5.735  10.952  0.5106  1.9949  0.0776
 9994TIP3   OH251472   5.467   4.492   0.357 -0.0394 -0.2971  0.3251
 9994TIP3    H151473   5.376   4.493   0.328 -0.5579  2.9710  1.6265
 9994TIP3    H251474   5.462   4.470   0.450  0.0900  2.6424  1.1168
 9995TIP3   OH251475   6.445   3.137   2.107 -0.3250 -0.3853  0.0775
 9995TIP3    H151476   6.481   3.189   2.179 -0.8075 -0.4235  0.3493
 9995TIP3    H251477   6.511   3.070   2.091 -0.0750 -0.1894  0.2809
 9996TIP3   OH251478   3.058   0.147   1.425  0.3134  0.1218 -0.3448
 9996TIP3    H151479   3.058   0.115   1.515  1.3488  0.8300 -0.0711
 9996TIP3    H251480   3.131   0.101   1.384  0.3767  0.4327 -0.5803
 9997TIP3   OH251481   6.299   3.181  14.493 -0.3250 -0.3414 -0.3573
 9997TIP3    H151482   6.357   3.154  14.423 -1.2083 -0.8569 -0.9058
 9997TIP3    H251483   6.281   3.273  14.475  1.1255  0.1222  0.4090
 9998TIP3   OH251484   0.741   4.945   3.798 -0.1302 -0.3707 -0.0477
 9998TIP3    H151485   0.722   5.038   3.785  0.9569 -0.3328 -1.7067
 9998TIP3    H251486   0.766   4.913   3.711  2.3011 -1.5207  0.9695
 9999TIP3   OH251487   1.365   1.805   4.698  0.2511  0.3281 -0.2884
 9999TIP3    H151488   1.359   1.901   4.693  0.5055  0.2929 -1.4964
 9999TIP3    H251489   1.290   1.780   4.751  0.2385  1.2026  0.1368
10000TIP3   OH251490   1.588   3.497  12.819  0.2637 -0.2083 -0.2677
10000TIP3    H151491   1.649   3.428  12.847 -1.0086 -1.3381 -0.1649
10000TIP3    H251492   1.645   3.567  12.785  1.6814 -0.4090  1.5506
10001TIP3   OH251493   2.876   3.406  11.629 -0.4530 -0.3206  0.5870
10001TIP3    H151494   2.843   3.318  11.609 -0.4790 -0.1231 -0.2437
10001TIP3    H251495   2.819   3.436  11.701  1.3175 -2.0597  2.8999
10002TIP3   OH251496   4.767   5.964   3.036 -0.4897 -0.1473 -0.8778
10002TIP3    H151497   4.780   5.896   2.969  0.5617 -0.0326 -0.8101
10002TIP3    H251498   4.770   6.046   2.987 -0.2148 -0.0870 -0.7636
10003TIP3   OH251499   6.131   4.221   4.172  0.0336 -0.2003  0.4206
10003TIP3    H151500   6.113   4.310   4.142  0.1300 -0.6465 -1.0529
10003TIP3    H251501   6.089   4.215   4.258  0.4534  1.4032  0.7586
10004TIP3   OH251502   5.818   2.094   4.275  0.1613 -1.2530  0.1926
10004TIP3    H151503   5.762   2.151   4.327 -1.5594 -2.2297 -0.5168
10004TIP3    H251504   5.758   2.035   4.229  1.6395 -1.0048 -2.2399
10005TIP3   OH251505   5.604   5.734  15.059 -0.3643  0.4807 -0.1188
10005TIP3    H151506   5.607   5.735  15.155  0.1786  1.3909 -0.1315
10005TIP3    H251507   5.560   5.652  15.037 -0.4235  0.2237  0.9076
10006TIP3   OH251508   6.455   5.171  12.049 -0.0644  0.6309  0.0796
10006TIP3    H151509   6.439   5.254  12.004 -1.6263  0.1126 -0.3763
10006TIP3    H251510   6.517   5.194  12.119  2.0089  1.5665 -1.9235
10007TIP3   OH251511   6.666   3.994   2.771 -0.1077  0.1515  0.4074
10007TIP3    H151512   6.746   3.955   2.737 -0.4745 -0.9618  0.7666
10007TIP3    H251513   6.681   4.089   2.768  1.3352 -0.0543  0.7770
10008TIP3   OH251514   3.047   1.785   4.064  1.0331  0.3064 -0.3761
10008TIP3    H151515   2.999   1.710   4.100 -0.0029  0.1413 -1.9966
10008TIP3    H251516   3.045   1.851   4.134 -1.2530  0.1587 -0.2318
10009TIP3   OH251517   4.546   5.640   0.477  0.6459  0.0641 -0.3856
10009TIP3    H151518   4.465   5.628   0.426 -0.2020 -0.7034  1.0845
10009TIP3    H251519   4.548   5.565   0.536  1.4913  1.0369  0.8599
10010TIP3   OH251520   2.475   1.114  14.764  0.3608  0.5391 -0.3597
10010TIP3    H151521   2.381   1.113  14.780  0.3237 -0.9251 -0.4831
10010TIP3    H251522   2.514   1.132  14.849 -0.0318  2.5867 -0.5676
10011TIP3   OH251523   6.018   2.215  15.044  0.1138 -0.3199 -0.1843
10011TIP3    H151524   5.957   2.253  14.980  2.2506 -0.4962 -2.4792
10011TIP3    H251525   6.066   2.289  15.079 -1.3109 -0.1846  1.6005
10012TIP3   OH251526   0.748   5.666   4.384  0.4958 -0.3225  0.3539
10012TIP3    H151527   0.794   5.584   4.403 -0.1374 -0.5636  0.8977
10012TIP3    H251528   0.734   5.706   4.470 -0.0023 -0.0878  0.1722
10013TIP3   OH251529   0.336   1.653  15.909 -0.3367  0.1684 -0.1449
10013TIP3    H151530   0.403   1.720  15.898 -0.2647  0.1314  0.0663
10013TIP3    H251531   0.265   1.697  15.954  0.4495 -0.3434  1.7031
10014TIP3   OH251532   0.522   3.998  13.647  0.0680 -0.2761 -0.3509
10014TIP3    H151533   0.489   4.082  13.676  1.0562 -0.4506  1.4299
10014TIP3    H251534   0.589   3.974  13.712  0.3323 -2.0867 -1.2062
10015TIP3   OH251535   4.561   1.182  15.738 -0.9504  0.0360 -0.2896
10015TIP3    H151536   4.533   1.091  15.745  1.4442 -0.7230  0.6744
10015TIP3    H251537   4.583   1.208  15.827  1.1536  0.5337 -0.8727
10016TIP3   OH251538   3.654   3.513   1.116  0.1632  0.5164  0.2708
10016TIP3    H151539   3.585   3.547   1.059 -0.4555  0.3921  0.9244
10016TIP3    H251540   3.715   3.586   1.127  1.2617  0.0188 -1.9697
10017TIP3   OH251541   0.950   0.013   1.534 -0.1227 -0.3092 -0.5565
10017TIP3    H151542   0.943  -0.020   1.445 -0.9137 -1.0361 -0.2392
10017TIP3    H251543   0.859   0.025   1.563  0.1047  1.9407 -0.5665
10018TIP3   OH251544   5.824   5.340  13.294  0.7131 -0.6512  0.4981
10018TIP3    H151545   5.750   5.356  13.353 -0.0643  0.3779 -0.6758
10018TIP3    H251546   5.901   5.340  13.351 -0.0919 -0.6995  1.6250
10019TIP3   OH251547   2.442   2.720   1.721 -0.2544 -0.2707  0.4341
10019TIP3    H151548   2.456   2.668   1.642 -2.1415 -0.8021  0.4090
10019TIP3    H251549   2.524   2.711   1.770 -0.0783 -2.2899 -0.1270
10020TIP3   OH251550   5.868   3.357   3.696 -0.0180 -0.4365 -0.5285
10020TIP3    H151551   5.803   3.341   3.765 -2.4103 -0.1643 -2.5620
10020TIP3    H251552   5.883   3.451   3.699 -0.8972 -0.2689 -0.9840
10021TIP3   OH251553   6.525   2.588   2.787 -0.0581 -0.0072 -0.2712
10021TIP3    H151554   6.553   2.555   2.702  0.1032  0.0496 -0.2407
10021TIP3    H251555   6.556   2.679   2.789  0.3216 -0.1423  0.0271
10022TIP3   OH251556   1.861   2.305  14.658 -0.5165  0.8759 -0.1680
10022TIP3    H151557   1.884   2.213  14.673 -0.8448  0.4160 -2.1837
10022TIP3    H251558   1.817   2.332  14.739 -0.3007 -0.7036  0.5197
10023TIP3   OH251559   2.720   1.843   4.603 -0.0692 -0.4574  0.1860
10023TIP3    H151560   2.639   1.835   4.654 -0.9618  0.8874 -0.9420
10023TIP3    H251561   2.720   1.764   4.548  1.0854 -2.1011  2.3995
10024TIP3   OH251562   5.744   3.118   5.669  0.3027 -0.1151  0.7490
10024TIP3    H151563   5.662   3.104   5.621  0.3942 -0.8483  0.7886
10024TIP3    H251564   5.800   3.166   5.609  0.0771 -0.1934  0.4747
10025TIP3   OH251565   2.767   1.180   4.828  0.6129 -0.2953  0.3173
10025TIP3    H151566   2.771   1.157   4.735  2.0883 -0.6347  0.4400
10025TIP3    H251567   2.859   1.187   4.855  0.2084  0.5706  1.5644
10026TIP3   OH251568   4.694   6.023   0.460 -0.4835  0.6103  0.5318
10026TIP3    H151569   4.738   6.057   0.537  0.0839 -0.7993  0.8473
10026TIP3    H251570   4.764   6.008   0.396 -0.9910  2.2109 -0.4759
10027TIP3   OH251571   2.201   3.666   0.201 -0.6017 -0.1355  0.6366
10027TIP3    H151572   2.264   3.681   0.131 -0.6812 -0.7422  0.4307
10027TIP3    H251573   2.203   3.747   0.253  0.7246 -0.3386  0.9297
10028TIP3   OH251574   5.119   4.341   4.462 -0.0859 -0.1579  0.1130
10028TIP3    H151575   5.163   4.268   4.505 -1.7919 -1.0697  0.3750
10028TIP3    H251576   5.170   4.356   4.382 -0.3113 -2.3739 -0.5098
10029TIP3   OH251577   3.174   0.515  15.652 -0.1412  0.4737 -0.1541
10029TIP3    H151578   3.204   0.480  15.736 -1.3822  0.5946  0.3699
10029TIP3    H251579   3.198   0.448  15.588 -0.0024 -0.0506  0.4361
10030TIP3   OH251580   4.861   1.603  16.459  0.2226 -0.1342  0.5974
10030TIP3    H151581   4.891   1.548  16.531  0.1287 -0.8455  0.1141
10030TIP3    H251582   4.826   1.540  16.395 -2.5315  0.6516  1.2128
10031TIP3   OH251583   6.688   0.245  12.954 -0.2244 -0.2663  1.1127
10031TIP3    H151584   6.636   0.166  12.942 -0.6143 -0.0551  1.3962
10031TIP3    H251585   6.626   0.317  12.943 -0.3054 -0.0378  2.8254
10032TIP3   OH251586   5.734   1.090   2.907 -0.0646  0.1577 -0.3367
10032TIP3    H151587   5.695   1.137   2.832  1.6592  0.7018 -0.9381
10032TIP3    H251588   5.747   1.158   2.973  2.2312  0.5430 -1.1240
10033TIP3   OH251589   6.775   6.581  13.302  0.1303 -0.5644  0.5064
10033TIP3    H151590   6.848   6.536  13.259  0.4825  0.7082 -0.3026
10033TIP3    H251591   6.785   6.673  13.275 -1.6750 -0.3330  0.5186
10034TIP3   OH251592   6.647   5.061  17.066  0.3495  0.0552 -0.7266
10034TIP3    H151593   6.697   5.142  17.071 -1.8001  1.5447 -1.6832
10034TIP3    H251594   6.709   4.996  17.035  1.6516  1.8365 -2.0338
10035TIP3   OH251595   3.204   3.956   1.507 -0.3460  0.5966  0.0245
10035TIP3    H151596   3.276   3.967   1.569  0.1534  1.2112 -0.6490
10035TIP3    H251597   3.175   3.866   1.519 -0.9503  0.9928  1.8798
10036TIP3   OH251598   2.102   0.548  15.645 -0.2072  0.2208 -0.0334
10036TIP3    H151599   2.133   0.502  15.723  0.3988  1.2979  0.3808
10036TIP3    H251600   2.056   0.481  15.594 -0.4390 -0.5418  1.1485
10037TIP3   OH251601   0.268   4.270   4.387  0.4001 -0.4090 -0.1975
10037TIP3    H151602   0.286   4.180   4.361  1.0622 -0.1656 -0.5922
10037TIP3    H251603   0.349   4.301   4.427  0.2377  0.0789 -0.2399
10038TIP3   OH251604   3.287   5.357  10.625 -0.2534 -0.6675  0.6078
10038TIP3    H151605   3.219   5.293  10.606  1.1879 -2.0278 -0.1584
10038TIP3    H251606   3.315   5.389  10.540 -1.0211  1.1080  0.9849
10039TIP3   OH251607   2.244   0.369  14.219 -0.0965  0.6508 -0.1672
10039TIP3    H151608   2.263   0.370  14.125 -1.9773  0.3698 -0.5974
10039TIP3    H251609   2.317   0.322  14.259  0.0018 -0.5244 -1.6744
10040TIP3   OH251610   3.969   1.701   1.474  0.5170  0.3136 -0.0584
10040TIP3    H151611   3.875   1.696   1.457  0.3730 -0.4236  0.9054
10040TIP3    H251612   3.994   1.614   1.504  1.5749  0.4208 -0.5446
10041TIP3   OH251613   1.005   6.739  17.299 -0.2793  0.1413 -0.1893
10041TIP3    H151614   1.013   6.817  17.354 -0.5997 -0.0176  0.0928
10041TIP3    H251615   1.023   6.769  17.210 -0.4342  0.5426 -0.0845
10042TIP3   OH251616   4.821   3.435  16.063 -0.0485  0.2215 -0.1132
10042TIP3    H151617   4.765   3.389  16.126 -1.2325  1.7903  0.0612
10042TIP3    H251618   4.822   3.379  15.985  0.3304 -1.0977  0.8121
10043TIP3   OH251619   2.830   5.894   2.792  0.5457 -0.7141 -0.1957
10043TIP3    H151620   2.777   5.954   2.845 -1.3305 -1.1154 -1.5140
10043TIP3    H251621   2.851   5.945   2.714  0.4651 -1.1900 -0.5295
10044TIP3   OH251622   1.332   0.161  15.716 -0.2684 -0.0097 -0.3043
10044TIP3    H151623   1.338   0.197  15.628  0.2968 -0.2320 -0.3595
10044TIP3    H251624   1.265   0.093  15.710  0.9026 -1.1451 -0.9540
10045TIP3   OH251625   6.640   1.949  13.705 -0.1335 -0.2855  0.6159
10045TIP3    H151626   6.702   1.938  13.777  0.5545  0.5374  0.1592
10045TIP3    H251627   6.556   1.966  13.748  0.1747 -0.2702  1.2219
10046TIP3   OH251628   1.334   4.520  13.311 -0.0063  0.1172  0.1695
10046TIP3    H151629   1.251   4.536  13.356 -0.7655 -1.5055 -0.5564
10046TIP3    H251630   1.391   4.591  13.339 -1.0502  0.2277  2.1537
10047TIP3   OH251631   2.150   0.515   4.278  0.0615  0.0093  0.3634
10047TIP3    H151632   2.212   0.566   4.330  0.5627 -1.8636  1.6960
10047TIP3    H251633   2.203   0.445   4.239 -0.9414 -0.7419  0.2887
10048TIP3   OH251634   0.827   2.930   5.013  0.0203  0.1458 -0.1880
10048TIP3    H151635   0.902   2.873   4.992  1.1998  1.5261  0.0861
10048TIP3    H251636   0.751   2.874   5.003  1.1350 -1.5329  0.2610
10049TIP3   OH251637   0.358   5.681  12.195 -0.3965  0.2167  0.0399
10049TIP3    H151638   0.340   5.622  12.268  0.2959 -0.1598 -0.0805
10049TIP3    H251639   0.305   5.758  12.213 -1.5816 -0.5734  0.0213
10050TIP3   OH251640   1.400   3.286  13.000 -0.0034 -0.3011 -0.2672
10050TIP3    H151641   1.393   3.292  13.096 -0.8073  0.1810 -0.3562
10050TIP3    H251642   1.369   3.370  12.968  1.9052  0.2206 -0.8928
10051TIP3   OH251643   4.793   4.727  17.271 -0.1435  0.0835 -0.4640
10051TIP3    H151644   4.751   4.753  17.354 -0.5737  0.0397 -0.6633
10051TIP3    H251645   4.857   4.661  17.296 -0.5920 -0.2625 -0.2152
10052TIP3   OH251646   0.013   1.849  13.546  0.3899  0.5672 -0.2480
10052TIP3    H151647  -0.060   1.892  13.592  0.5782  1.3069 -0.6346
10052TIP3    H251648   0.036   1.775  13.603 -0.9675  0.0240 -0.3390
10053TIP3   OH251649   2.910   1.773   3.737 -0.1805 -0.0999  0.0104
10053TIP3    H151650   2.937   1.832   3.667 -1.5116  0.6564  0.0983
10053TIP3    H251651   2.830   1.732   3.705  0.6455 -1.7714  0.0165
10054TIP3   OH251652   6.439   5.413  17.163  0.0214  0.7721  0.5107
10054TIP3    H151653   6.393   5.442  17.242 -1.5421  1.4280 -0.5941
10054TIP3    H251654   6.397   5.331  17.139  0.1447  0.8433  0.0549
10055TIP3   OH251655   2.483   1.853   3.458  0.2261  0.2682  0.5731
10055TIP3    H151656   2.505   1.873   3.367  0.8220 -0.0660  0.6430
10055TIP3    H251657   2.489   1.758   3.464 -0.0666  0.2691  0.8970
10056TIP3   OH251658   2.167   5.141   3.288  0.6706 -0.5745 -0.2955
10056TIP3    H151659   2.167   5.236   3.271  1.4219  0.0459  2.6676
10056TIP3    H251660   2.080   5.123   3.324  0.8024 -0.8718 -0.1300
10057TIP3   OH251661   2.618   0.035  11.828 -0.1808  0.3998  0.3445
10057TIP3    H151662   2.649   0.046  11.738 -1.2200 -0.3855 -0.1344
10057TIP3    H251663   2.633   0.120  11.869  2.5676  0.0729  0.1679
10058TIP3   OH251664   3.270   3.408  10.952 -0.5561 -0.4904 -0.5218
10058TIP3    H151665   3.320   3.368  10.881 -0.4210  0.4091 -0.9553
10058TIP3    H251666   3.316   3.490  10.970 -0.8506 -0.5031  0.3027
10059TIP3   OH251667   2.752   5.479   2.607  0.0701 -0.1304 -0.3494
10059TIP3    H151668   2.787   5.517   2.526 -0.5481  1.9871  0.3081
10059TIP3    H251669   2.660   5.459   2.586  0.1623 -0.4722 -0.4364
10060TIP3   OH251670   1.411   2.680   4.167  0.0796  0.3091 -0.1507
10060TIP3    H151671   1.326   2.723   4.177 -0.6175 -1.2269  0.9913
10060TIP3    H251672   1.406   2.636   4.083 -0.9217 -1.0834  0.6011
10061TIP3   OH251673   0.134   4.315   3.260  0.1340 -0.3570  0.4212
10061TIP3    H151674   0.129   4.403   3.222  1.3998 -0.4173  0.0523
10061TIP3    H251675   0.221   4.312   3.301 -0.2007 -1.1789  1.1028
10062TIP3   OH251676   4.495   0.218  13.219  0.0719  0.0171 -0.2566
10062TIP3    H151677   4.543   0.287  13.264 -2.4560  0.7822  1.5366
10062TIP3    H251678   4.478   0.152  13.286 -1.9815  0.1744 -0.5372
10063TIP3   OH251679   2.552   0.126   5.344  0.0992  0.3851  0.4639
10063TIP3    H151680   2.480   0.080   5.301  1.5445 -0.0687 -1.5797
10063TIP3    H251681   2.575   0.197   5.284  2.2543 -0.3148  0.3794
10064TIP3   OH251682   5.700   3.359   3.930 -0.2933 -0.1751 -0.3407
10064TIP3    H151683   5.608   3.332   3.932 -0.2975 -0.0983  1.2817
10064TIP3    H251684   5.712   3.412   4.009  0.8867  0.7144 -1.0760
10065TIP3   OH251685   3.523   4.109   5.731  0.1705  0.2323 -0.2629
10065TIP3    H151686   3.502   4.135   5.821 -0.9394  0.6555 -0.6245
10065TIP3    H251687   3.480   4.174   5.676  1.6664  0.5496 -1.1111
10066TIP3   OH251688   4.710   0.373  12.715  0.1046 -0.4169 -0.6838
10066TIP3    H151689   4.774   0.313  12.752 -0.3624 -0.9665 -0.7436
10066TIP3    H251690   4.644   0.315  12.676  0.4579  0.1418 -2.1535
10067TIP3   OH251691   5.649   5.618   3.461  0.1871 -0.0564  0.2109
10067TIP3    H151692   5.629   5.557   3.390 -0.8815 -0.5116  0.8804
10067TIP3    H251693   5.585   5.688   3.452  0.1220 -0.0547  0.6446
10068TIP3   OH251694   0.583   0.304   3.580 -0.3621  0.0257 -0.0114
10068TIP3    H151695   0.552   0.357   3.507  1.2017  0.4590 -0.3945
10068TIP3    H251696   0.542   0.343   3.657  1.1203  2.1467 -0.2185
10069TIP3   OH251697   0.966   1.475  13.995  0.2659  0.1111  0.4692
10069TIP3    H151698   0.931   1.563  13.981  1.1327  0.3858 -0.0666
10069TIP3    H251699   0.969   1.436  13.908  1.1551  0.0581  0.5115
10070TIP3   OH251700   0.609   4.006  16.499 -0.1330  0.1073 -0.3346
10070TIP3    H151701   0.598   3.962  16.583 -0.3838 -0.2167 -0.5328
10070TIP3    H251702   0.695   4.047  16.504  0.8808 -1.8397 -0.7815
10071TIP3   OH251703   0.498   3.902   4.289  0.1821  0.4451 -0.3119
10071TIP3    H151704   0.475   3.845   4.216  0.9930 -1.6307  0.9582
10071TIP3    H251705   0.588   3.879   4.310 -0.6886 -0.7543  2.7383
10072TIP3   OH251706   4.422   1.243  11.787 -0.2442  0.0335 -0.2099
10072TIP3    H151707   4.436   1.160  11.832 -1.1443 -0.5866 -1.0408
10072TIP3    H251708   4.338   1.233  11.743 -0.3996  1.4168 -0.2711
10073TIP3   OH251709   2.051   2.485  16.039 -0.2977 -0.5824 -0.5477
10073TIP3    H151710   2.085   2.449  15.958  2.7363  0.0361  0.3160
10073TIP3    H251711   2.034   2.577  16.019  0.2270 -0.4849 -0.5565
10074TIP3   OH251712   2.716   5.543  14.039 -0.4576 -0.0484 -0.6202
10074TIP3    H151713   2.679   5.539  14.127  0.9137  1.0687  0.0469
10074TIP3    H251714   2.796   5.492  14.044 -0.1105  0.4379 -1.0643
10075TIP3   OH251715   3.398   4.753  11.467 -0.2016 -0.0686 -0.1474
10075TIP3    H151716   3.437   4.718  11.548 -1.5140  0.3104  0.6757
10075TIP3    H251717   3.308   4.720  11.468 -0.7033  1.2486 -0.6421
10076TIP3   OH251718   3.350   2.417   2.689  0.4453 -0.1513 -0.1796
10076TIP3    H151719   3.255   2.428   2.690  0.4405 -0.0216 -0.9640
10076TIP3    H251720   3.385   2.506   2.687  0.5745 -0.2028 -0.2284
10077TIP3   OH251721   2.032   5.579   0.994  0.1637 -0.5633  0.1550
10077TIP3    H151722   2.042   5.651   1.057  3.3530 -1.1570  0.4969
10077TIP3    H251723   2.063   5.501   1.042 -0.1577 -1.5632 -1.2124
10078TIP3   OH251724   3.603   3.340  13.366 -0.0314  0.0304  0.4437
10078TIP3    H151725   3.553   3.411  13.407  0.3870  0.8439 -0.4358
10078TIP3    H251726   3.617   3.368  13.276  0.4393 -1.0201  0.1691
10079TIP3   OH251727   4.426   5.899  13.863  0.2521  0.2679  0.1500
10079TIP3    H151728   4.407   5.811  13.829 -0.2999  0.4849 -0.1097
10079TIP3    H251729   4.365   5.909  13.936  0.7334  0.2040  0.5681
10080TIP3   OH251730   3.138   2.546  11.201 -0.3378  0.8053  0.5955
10080TIP3    H151731   3.088   2.537  11.120 -1.5198 -1.7709  1.5059
10080TIP3    H251732   3.078   2.587  11.263 -0.5436 -0.1075  1.0196
10081TIP3   OH251733   6.692   5.628   6.260  0.3933 -0.2416  0.6640
10081TIP3    H151734   6.673   5.714   6.299  0.1203 -0.0932  0.2049
10081TIP3    H251735   6.622   5.571   6.292  0.3754 -0.2074  0.6859
10082TIP3   OH251736   6.346   6.479  12.710  0.2984 -0.1758 -0.6643
10082TIP3    H151737   6.259   6.495  12.672  0.9351  4.5313 -0.8054
10082TIP3    H251738   6.400   6.454  12.636 -0.3624 -0.2019 -1.1538
10083TIP3   OH251739   2.637   3.933   3.929  0.6123  0.0331 -0.0107
10083TIP3    H151740   2.563   3.960   3.984  0.7898  0.3879  0.0594
10083TIP3    H251741   2.661   4.013   3.882  0.7590 -0.1562 -0.2563
10084TIP3   OH251742   6.412   0.588   5.451  0.0204  0.1139 -0.2905
10084TIP3    H151743   6.454   0.516   5.499 -0.0586  0.3350  0.1180
10084TIP3    H251744   6.478   0.617   5.388 -0.4619 -1.2757 -1.4677
10085TIP3   OH251745   4.866   2.983   3.171  0.0207 -0.1757 -0.2194
10085TIP3    H151746   4.893   2.992   3.080 -0.7643 -0.3911 -0.4848
10085TIP3    H251747   4.903   2.899   3.199  1.3746  0.4903  0.0822
10086TIP3   OH251748   0.216   4.708  14.794  0.6474  0.1879 -0.4758
10086TIP3    H151749   0.227   4.652  14.871 -1.3786  0.8667  0.3744
10086TIP3    H251750   0.139   4.672  14.750  0.2528  1.3562 -0.7576
10087TIP3   OH251751   6.263   0.563  13.143  0.0312  0.0098 -0.1883
10087TIP3    H151752   6.236   0.475  13.115  0.9222 -0.3490  0.0324
10087TIP3    H251753   6.181   0.611  13.156 -0.5291 -1.1817  0.9551
10088TIP3   OH251754   2.467   4.948   5.024  0.9977  0.0782 -0.0395
10088TIP3    H151755   2.525   5.021   5.043  0.4668  0.2019  1.1786
10088TIP3    H251756   2.523   4.870   5.033  1.0821  0.2193  0.7843
10089TIP3   OH251757   1.253   3.929   6.015  0.1461  0.7566 -0.0194
10089TIP3    H151758   1.217   3.902   6.100 -0.3966  0.9862 -0.1732
10089TIP3    H251759   1.185   3.984   5.977 -0.3970 -0.8427 -1.4319
10090TIP3   OH251760   5.596   1.017   5.118  0.4832  0.4931 -0.6767
10090TIP3    H151761   5.679   1.044   5.156  1.3418  0.1854 -2.2773
10090TIP3    H251762   5.536   1.090   5.137  1.2091  0.8824  0.1587
10091TIP3   OH251763   2.492   4.553  11.361 -1.0574 -0.3161  0.0954
10091TIP3    H151764   2.535   4.609  11.297  0.0138 -1.2042  0.0013
10091TIP3    H251765   2.542   4.565  11.442 -1.1455 -0.7219  0.2157
10092TIP3   OH251766   3.790   4.481  12.490 -0.0123  0.3827 -0.4601
10092TIP3    H151767   3.777   4.567  12.448 -0.4270  0.9230  0.7290
10092TIP3    H251768   3.727   4.480  12.561  0.7732 -0.4443  0.2467
10093TIP3   OH251769   4.047   1.264   2.413  0.3761  0.0267 -0.0172
10093TIP3    H151770   4.029   1.357   2.424 -0.9437 -0.2554  0.4418
10093TIP3    H251771   4.071   1.254   2.321 -1.4709  0.5470 -0.5966
10094TIP3   OH251772   6.099   3.521  10.561 -0.3949  0.1475 -0.1404
10094TIP3    H151773   6.127   3.438  10.600 -0.6170  0.3266  0.4074
10094TIP3    H251774   6.003   3.515  10.559 -0.5867  1.3981  2.2356
10095TIP3   OH251775   2.150   5.384   1.698  0.3342 -0.0222  0.4017
10095TIP3    H151776   2.120   5.451   1.636  2.2803  0.4283 -0.1420
10095TIP3    H251777   2.145   5.426   1.784  0.5477  0.4596  0.1817
10096TIP3   OH251778   0.358   4.377  11.553  0.2944 -0.3918 -0.5310
10096TIP3    H151779   0.400   4.463  11.549  0.9725 -0.7591 -3.5262
10096TIP3    H251780   0.415   4.320  11.500 -0.0135 -2.7883  1.5173
10097TIP3   OH251781   0.948   1.207  16.620  0.0965 -0.3858 -0.2428
10097TIP3    H151782   0.892   1.283  16.632 -0.1088 -0.5669 -0.0382
10097TIP3    H251783   0.928   1.176  16.532  0.5716  0.1119 -0.5293
10098TIP3   OH251784   3.738   5.903  11.444 -0.3057 -0.2114  0.4611
10098TIP3    H151785   3.762   5.814  11.420 -0.3227  0.4796 -2.4697
10098TIP3    H251786   3.658   5.921  11.394  0.6855  2.0325 -0.4369
10099TIP3   OH251787   6.560   2.579  12.153  0.2190  0.3688 -0.4306
10099TIP3    H151788   6.476   2.624  12.156  0.3799  0.6784 -0.5530
10099TIP3    H251789   6.580   2.571  12.059  0.3496  0.3439 -0.4015
10100TIP3   OH251790   0.684   2.639  14.195 -0.1630  0.6589  0.1705
10100TIP3    H151791   0.671   2.724  14.154 -1.5682  0.2083 -0.3908
10100TIP3    H251792   0.697   2.579  14.121  1.2668  0.4392  0.5722
10101TIP3   OH251793   4.590   5.255   2.701  0.1688 -1.0897 -0.1314
10101TIP3    H151794   4.662   5.215   2.751  1.3949 -0.0611 -0.9982
10101TIP3    H251795   4.591   5.209   2.617  0.3381 -0.5640 -0.4245
10102TIP3   OH251796   4.510   2.585  16.732  0.3521 -0.7818 -0.2412
10102TIP3    H151797   4.480   2.648  16.666  0.4980 -0.6852 -0.2137
10102TIP3    H251798   4.436   2.526  16.743  0.0037 -0.2770  0.1528
10103TIP3   OH251799   5.988   4.965  16.789 -0.6433  0.4664 -0.1206
10103TIP3    H151800   6.018   4.918  16.711 -2.2774  1.5571 -1.4665
10103TIP3    H251801   5.932   5.035  16.755 -2.3838  0.2492  2.1066
10104TIP3   OH251802   4.579   4.880   0.752  0.0157  1.3174  0.3774
10104TIP3    H151803   4.497   4.833   0.735  0.2439  1.4415 -1.2816
10104TIP3    H251804   4.626   4.875   0.669  1.5509  1.5484  1.2050
10105TIP3   OH251805   0.129   6.107   1.438  0.8811 -0.0440 -0.3135
10105TIP3    H151806   0.172   6.193   1.440  0.8149  0.0102 -1.0782
10105TIP3    H251807   0.166   6.060   1.513  1.6013  0.3296 -0.4267
10106TIP3   OH251808   1.776   1.826  14.672 -0.1656 -0.1910  0.7088
10106TIP3    H151809   1.712   1.833  14.743 -0.0751 -2.1378  1.0489
10106TIP3    H251810   1.773   1.734  14.646  1.8325 -0.1381  0.1038
10107TIP3   OH251811   2.367   5.192   3.016  0.1140 -0.4160 -0.0474
10107TIP3    H151812   2.310   5.253   3.063  1.1973 -2.3763  4.4002
10107TIP3    H251813   2.312   5.116   2.999  0.3834 -0.7929  0.7032
10108TIP3   OH251814   4.165   5.994   4.924  0.0778 -0.2899 -0.5923
10108TIP3    H151815   4.158   6.079   4.968 -0.6748 -1.0667  0.8650
10108TIP3    H251816   4.234   5.948   4.971  0.1323 -0.6860 -1.0510
10109TIP3   OH251817   5.670   1.191   4.502  0.4148  0.0341 -0.2306
10109TIP3    H151818   5.578   1.174   4.522  0.6202  0.1958  0.8906
10109TIP3    H251819   5.717   1.163   4.580  1.2991  0.1619 -0.7114
10110TIP3   OH251820   6.430   0.315   1.119 -0.6290 -0.1042 -0.0067
10110TIP3    H151821   6.446   0.328   1.212 -0.4807  3.6269 -0.3872
10110TIP3    H251822   6.343   0.275   1.115 -0.8838  0.1866  1.7215
10111TIP3   OH251823   3.177   0.581   2.578 -0.1138 -0.7852  0.1512
10111TIP3    H151824   3.135   0.539   2.503 -1.2512 -0.0539  0.3554
10111TIP3    H251825   3.127   0.551   2.654 -0.2026  0.0043  0.4175
10112TIP3   OH251826   1.891   2.069   5.222  0.3513 -0.3217 -0.0355
10112TIP3    H151827   1.817   2.009   5.210  2.0149 -2.2839 -1.2672
10112TIP3    H251828   1.955   2.018   5.271  0.6641  1.6033  1.6906
10113TIP3   OH251829   0.565   6.251   3.793 -0.2152 -0.0406 -0.3617
10113TIP3    H151830   0.580   6.161   3.762 -0.6053 -0.3916  0.4261
10113TIP3    H251831   0.471   6.264   3.780 -0.7277 -0.7841  2.0779
10114TIP3   OH251832   3.132   1.615   1.004 -0.0599 -0.5462  0.0960
10114TIP3    H151833   3.206   1.599   1.063 -0.1695 -1.0148  0.1066
10114TIP3    H251834   3.056   1.620   1.061  0.2108  2.0687  0.3326
10115TIP3   OH251835   4.237   4.439   1.916 -0.3952  0.4736  0.1032
10115TIP3    H151836   4.329   4.457   1.933  0.3851 -1.9810 -0.9944
10115TIP3    H251837   4.209   4.384   1.989 -1.0803  1.3949  0.5531
10116TIP3   OH251838   6.253   2.049  12.612  0.7371 -0.5117  0.2085
10116TIP3    H151839   6.168   2.093  12.612  1.0411  0.2277 -1.8579
10116TIP3    H251840   6.231   1.956  12.603  0.1382 -0.3719  0.1406
10117TIP3   OH251841   1.599   1.920  12.461  0.3396  0.2271 -0.1543
10117TIP3    H151842   1.560   1.925  12.548  0.0471  1.1007 -0.3198
10117TIP3    H251843   1.524   1.921  12.401  0.5555  0.2004 -0.4266
10118TIP3   OH251844   5.020   2.362   3.392  0.4009  0.3321  0.2590
10118TIP3    H151845   5.107   2.340   3.425  0.1356 -1.5901 -0.2191
10118TIP3    H251846   4.962   2.348   3.467  0.5342  2.5270  0.8686
10119TIP3   OH251847   3.337   5.546   3.635 -0.6702 -0.0309  0.3264
10119TIP3    H151848   3.422   5.537   3.676 -1.2003  0.1081  1.5028
10119TIP3    H251849   3.348   5.619   3.573  0.4666 -1.0451 -0.7221
10120TIP3   OH251850   3.959   1.420   1.549  0.2503 -0.4130  0.2307
10120TIP3    H151851   3.985   1.348   1.606  0.0840  0.8955  2.0450
10120TIP3    H251852   3.869   1.401   1.524 -0.0857 -0.4142  1.4177
10121TIP3   OH251853   4.786   3.864  12.602 -0.3213  0.1507  0.0329
10121TIP3    H151854   4.771   3.801  12.673  0.7156  0.0025  0.1285
10121TIP3    H251855   4.873   3.843  12.569 -0.2853  1.0370 -0.4561
10122TIP3   OH251856   4.036   3.258  15.240  0.1490  0.0798 -0.2780
10122TIP3    H151857   4.028   3.208  15.321  0.9696  0.3998  0.0126
10122TIP3    H251858   4.052   3.348  15.268 -1.4254  0.5508 -0.7947
10123TIP3   OH251859   0.720   4.924   6.084 -0.0937 -0.8734  0.3847
10123TIP3    H151860   0.800   4.913   6.136 -0.4073 -1.1090  0.8160
10123TIP3    H251861   0.715   5.018   6.067  0.5211 -0.9119 -0.0313
10124TIP3   OH251862   5.069   1.566  14.523 -0.4580 -0.1462  0.0721
10124TIP3    H151863   4.999   1.516  14.565  1.9244 -2.2398  1.9448
10124TIP3    H251864   5.077   1.646  14.574 -0.6300 -0.5282  0.7023
10125TIP3   OH251865   1.917   2.117  15.728  0.3004 -0.2373  0.3744
10125TIP3    H151866   1.952   2.205  15.716 -1.8242  0.6955  0.4654
10125TIP3    H251867   1.931   2.074  15.643 -1.7436  1.4350 -0.9338
10126TIP3   OH251868   1.566   1.123  15.393  0.9146 -0.2879  0.2033
10126TIP3    H151869   1.527   1.051  15.343  1.6933 -0.7136  0.1971
10126TIP3    H251870   1.529   1.202  15.353  0.7679 -0.6547 -0.4064
10127TIP3   OH251871   2.293   3.211   2.993 -0.3923 -0.0014  0.0112
10127TIP3    H151872   2.252   3.292   3.025 -0.6447 -0.3002  0.4677
10127TIP3    H251873   2.233   3.179   2.925  0.4014  0.8977 -1.1238
10128TIP3   OH251874   3.514   0.466   4.600 -0.0962  0.4151  0.4067
10128TIP3    H151875   3.456   0.395   4.574 -2.4328  1.5952  1.9341
10128TIP3    H251876   3.544   0.442   4.688 -0.4489  1.0167  0.7024
10129TIP3   OH251877   4.393   4.353   5.471  0.6437 -0.4941 -0.0006
10129TIP3    H151878   4.333   4.336   5.398 -0.7442 -0.9351  1.1954
10129TIP3    H251879   4.338   4.394   5.538  1.6300 -1.1087  1.2185
10130TIP3   OH251880   3.117   5.312   0.843  0.1415  0.9595  0.2685
10130TIP3    H151881   3.192   5.337   0.897  1.0688 -0.6207 -0.2063
10130TIP3    H251882   3.151   5.243   0.786 -1.5121  0.6917 -0.4491
10131TIP3   OH251883   1.593   1.753  13.726 -0.6514 -0.7740  0.0597
10131TIP3    H151884   1.543   1.685  13.679 -0.8822 -0.5277 -0.0558
10131TIP3    H251885   1.549   1.760  13.811 -0.8417 -0.5271 -0.0580
10132TIP3   OH251886   4.071   3.975  13.063  0.5780 -0.7228  0.4052
10132TIP3    H151887   3.983   3.974  13.101  0.0339 -0.2629 -0.7764
10132TIP3    H251888   4.089   3.884  13.041 -0.5904 -0.5726 -1.4276
10133TIP3   OH251889   1.411   4.476  11.594 -0.3220 -0.2585  0.0992
10133TIP3    H151890   1.478   4.528  11.550 -0.0117 -0.5317  0.2431
10133TIP3    H251891   1.331   4.492  11.544  0.1242 -0.9394 -0.8700
10134TIP3   OH251892   4.863   3.625   0.581 -0.1565  0.1651  0.0406
10134TIP3    H151893   4.794   3.560   0.571  0.8854 -1.1538  0.9479
10134TIP3    H251894   4.819   3.709   0.573 -1.7555 -0.6369  0.0321
10135TIP3   OH251895   1.082   2.218  11.743  0.0999 -0.2178 -0.4562
10135TIP3    H151896   1.111   2.259  11.661 -0.5521  0.9876 -0.1152
10135TIP3    H251897   0.994   2.253  11.757 -0.3491 -1.4789  0.0642
10136TIP3   OH251898   5.589   0.484  16.884  0.5768 -0.2537  0.0843
10136TIP3    H151899   5.535   0.405  16.881  0.0875  0.1003 -0.8237
10136TIP3    H251900   5.527   0.556  16.870  1.1843  0.2121 -0.2534
10137TIP3   OH251901   1.796   1.672   5.763 -0.1825 -0.5607  0.5348
10137TIP3    H151902   1.748   1.754   5.761  2.0041  0.7870 -0.1946
10137TIP3    H251903   1.755   1.618   5.694 -0.5852  0.5690 -0.1340
10138TIP3   OH251904   0.431   0.151   4.151 -0.3168  0.8448 -0.0506
10138TIP3    H151905   0.358   0.190   4.103 -0.3889  0.1596 -0.5051
10138TIP3    H251906   0.466   0.084   4.092  1.6529  2.1724 -0.5075
10139TIP3   OH251907   3.514   1.846   3.991 -0.2694 -0.6285 -0.0527
10139TIP3    H151908   3.456   1.867   3.918  0.6502 -0.1609 -0.6648
10139TIP3    H251909   3.532   1.930   4.033  1.0756 -0.5606 -0.7223
10140TIP3   OH251910   5.193   4.559  15.821  0.0480  0.3697  0.1903
10140TIP3    H151911   5.154   4.594  15.741 -0.2478 -0.4965 -0.0644
10140TIP3    H251912   5.120   4.555  15.884 -0.4169 -1.5840 -0.3980
10141TIP3   OH251913   4.282   4.141  11.280 -0.0969 -0.6120  0.1331
10141TIP3    H151914   4.270   4.079  11.208 -2.1347 -3.2441  2.4788
10141TIP3    H251915   4.227   4.215  11.258  3.2082  1.1594 -3.2681
10142TIP3   OH251916   1.062   5.128  14.531 -0.1597 -0.2167  0.5325
10142TIP3    H151917   1.113   5.107  14.609 -0.8128  2.0437  1.6355
10142TIP3    H251918   0.971   5.121  14.559 -0.3987  1.6026  0.3183
10143TIP3   OH251919   4.685   6.168  10.783  0.5489  0.2210 -0.0298
10143TIP3    H151920   4.738   6.228  10.835  2.6023 -1.6563  0.2045
10143TIP3    H251921   4.746   6.130  10.720 -0.9927 -0.5436 -1.1282
10144TIP3   OH251922   2.075   0.130   1.734 -0.0320 -0.2807  0.4589
10144TIP3    H151923   2.074   0.124   1.638  0.8296 -0.8191  0.4658
10144TIP3    H251924   1.991   0.094   1.761 -0.1752 -0.3711 -0.0900
10145TIP3   OH251925   4.250   3.827  15.019 -0.3097  0.2546  0.0799
10145TIP3    H151926   4.271   3.916  15.049  0.3427  0.4151 -0.8161
10145TIP3    H251927   4.334   3.781  15.021 -0.0175  0.5436 -2.3601
10146TIP3   OH251928   3.227   0.951   3.744 -0.1556 -0.4155  0.2774
10146TIP3    H151929   3.302   0.961   3.803  0.8345  3.1701 -1.3160
10146TIP3    H251930   3.176   1.031   3.755 -0.8101 -0.3382 -2.4763
10147TIP3   OH251931   1.584   2.124  14.081 -0.4929  0.1637  0.2371
10147TIP3    H151932   1.640   2.060  14.126 -2.4861 -1.8386  0.0516
10147TIP3    H251933   1.518   2.147  14.146  0.3850  2.3679  0.4041
10148TIP3   OH251934   6.484   5.486  14.506 -0.2572 -0.7546  0.3235
10148TIP3    H151935   6.478   5.397  14.541  1.1305 -0.9308  0.1849
10148TIP3    H251936   6.542   5.478  14.430 -0.1972  0.2509  0.2493
10149TIP3   OH251937   2.674   3.058  16.928  0.7183 -0.0196 -0.6397
10149TIP3    H151938   2.709   2.993  16.866  0.4214 -1.6272  0.8174
10149TIP3    H251939   2.729   3.050  17.005  0.5331  1.3520 -0.3356
10150TIP3   OH251940   4.243   1.784   2.901 -0.7112 -0.0363  0.3911
10150TIP3    H151941   4.152   1.797   2.873 -0.4470  0.6930 -0.1653
10150TIP3    H251942   4.236   1.737   2.984 -1.6239  0.5926  0.6897
10151TIP3   OH251943   1.051   6.259  13.578  0.3149  0.0919  0.1154
10151TIP3    H151944   1.025   6.344  13.541  0.3320 -0.8804 -2.3250
10151TIP3    H251945   1.143   6.250  13.555  0.4672 -0.3289  0.8808
10152TIP3   OH251946   6.370   5.603  12.502 -0.5842  0.0349 -0.7240
10152TIP3    H151947   6.304   5.606  12.433 -0.4404  0.4787 -0.8402
10152TIP3    H251948   6.341   5.531  12.559 -3.1324  2.3345  1.2058
10153TIP3   OH251949   2.497   6.134   2.331 -0.1968  0.0654 -0.0344
10153TIP3    H151950   2.531   6.219   2.358  1.2497 -0.3865 -0.3399
10153TIP3    H251951   2.575   6.081   2.316 -1.0364 -2.0649  2.4433
10154TIP3   OH251952   1.681   3.730  16.048  0.2984 -0.6515 -0.6181
10154TIP3    H151953   1.598   3.684  16.062  0.8189 -1.4977 -0.1532
10154TIP3    H251954   1.748   3.662  16.060  1.0329 -0.1412 -1.6860
10155TIP3   OH251955   2.647   3.213  11.364 -0.5699  0.3006  0.6823
10155TIP3    H151956   2.615   3.303  11.368 -0.1790  0.4017  2.6477
10155TIP3    H251957   2.651   3.185  11.455 -0.9072 -1.8058  0.1027
10156TIP3   OH251958   5.373   6.135   3.466 -0.5779 -0.2284  0.2031
10156TIP3    H151959   5.461   6.171   3.458  0.0041 -1.2256  1.7336
10156TIP3    H251960   5.354   6.139   3.560 -1.7079 -1.0808  0.0294
10157TIP3   OH251961   6.520   4.856  15.218 -0.0807 -0.0942  0.0364
10157TIP3    H151962   6.505   4.762  15.203  0.9257 -0.1395 -0.7930
10157TIP3    H251963   6.468   4.876  15.296  0.4800 -1.5731  0.8422
10158TIP3   OH251964   6.717   3.903  15.437 -0.0685  0.3150  0.4509
10158TIP3    H151965   6.782   3.930  15.372  2.0841 -0.9671  1.9407
10158TIP3    H251966   6.633   3.924  15.397  1.2222  1.6032 -1.7868
10159TIP3   OH251967   1.727   1.384   0.422  0.1595  0.3757 -0.1958
10159TIP3    H151968   1.683   1.364   0.505 -0.8953  2.1496 -0.2762
10159TIP3    H251969   1.806   1.431   0.448  0.9800 -0.9807 -0.1415
10160TIP3   OH251970   2.037   4.745   6.409 -0.1909  0.3426 -0.1771
10160TIP3    H151971   2.133   4.746   6.402 -0.1116  0.9082  0.7075
10160TIP3    H251972   2.020   4.693   6.488 -0.4588  2.4245  1.2034
10161TIP3   OH251973   3.895   5.662  13.586  0.2379  0.5794 -0.2167
10161TIP3    H151974   3.850   5.745  13.603  0.1798  0.7898 -1.3512
10161TIP3    H251975   3.987   5.680  13.608  0.3691  1.2006 -1.2162
10162TIP3   OH251976   0.399   3.454   4.929  0.2476  0.3308 -0.0310
10162TIP3    H151977   0.461   3.474   4.999  0.3848 -0.1706 -0.0049
10162TIP3    H251978   0.349   3.535   4.917  0.8919  0.7387 -0.0366
10163TIP3   OH251979   4.579   5.233   0.288 -0.2605  0.2438  0.5284
10163TIP3    H151980   4.636   5.188   0.350 -1.0775  1.8635  2.5540
10163TIP3    H251981   4.495   5.240   0.332 -0.6524  2.1532 -0.4278
10164TIP3   OH251982   6.199   4.851   2.360  0.0080 -0.0396 -1.0779
10164TIP3    H151983   6.157   4.784   2.306  0.4436 -0.1646 -1.2635
10164TIP3    H251984   6.126   4.901   2.397 -0.5497 -2.6278  1.7805
10165TIP3   OH251985   3.163   0.274  16.632  0.1625 -0.0443  0.2825
10165TIP3    H151986   3.258   0.282  16.644  0.5844 -0.1054 -2.3969
10165TIP3    H251987   3.136   0.362  16.605  0.3724 -1.0190 -3.6703
10166TIP3   OH251988   6.203   5.854   1.328  0.0096 -0.1099 -0.0136
10166TIP3    H151989   6.232   5.855   1.420 -1.5659 -2.5363  0.6152
10166TIP3    H251990   6.114   5.888   1.331 -0.4301 -1.1815 -0.4407
10167TIP3   OH251991   2.445   5.915  11.976 -0.1369  0.0373 -0.6194
10167TIP3    H151992   2.386   5.889  11.906  0.2662 -1.2145 -0.5228
10167TIP3    H251993   2.532   5.909  11.938  0.1774 -1.7653  0.2647
10168TIP3   OH251994   0.537   0.200  10.505 -0.0731 -0.2372 -0.4717
10168TIP3    H151995   0.456   0.239  10.538 -0.5011  0.1621 -1.9474
10168TIP3    H251996   0.541   0.226  10.413  1.5269 -0.5969 -0.5337
10169TIP3   OH251997   1.873   3.800   0.434 -0.3943 -0.1851 -0.2276
10169TIP3    H151998   1.914   3.736   0.377  0.6415  0.2364  0.0212
10169TIP3    H251999   1.837   3.866   0.375  0.2975  0.0293 -0.4154
10170TIP3   OH252000   6.608   4.193   3.851 -0.3241 -0.1131  0.7598
10170TIP3    H152001   6.630   4.168   3.761  1.2526 -0.6528  1.2516
10170TIP3    H252002   6.587   4.110   3.895  1.0492 -0.1551  1.4036
10171TIP3   OH252003   5.275   5.521   5.962  0.0949 -0.0825 -0.6258
10171TIP3    H152004   5.238   5.609   5.953 -1.7050 -0.8672 -1.6083
10171TIP3    H252005   5.331   5.511   5.885  1.1799  0.5684  0.0597
10172TIP3   OH252006   1.197   4.422   4.982 -0.1474  0.2648  0.1086
10172TIP3    H152007   1.245   4.403   4.901 -1.4714 -1.0245 -0.4222
10172TIP3    H252008   1.124   4.476   4.953 -2.2740 -2.5097 -0.1336
10173TIP3   OH252009   6.018   4.327   2.257 -0.3853 -0.4706  0.4206
10173TIP3    H152010   5.985   4.412   2.286  1.6469  0.3934  0.3688
10173TIP3    H252011   6.082   4.302   2.324 -0.1812 -1.4290 -0.1120
10174TIP3   OH252012   4.025   4.373   1.148 -0.2525  0.1581  0.0119
10174TIP3    H152013   4.100   4.409   1.196 -0.7724 -1.8271  2.5322
10174TIP3    H252014   3.959   4.441   1.153  0.5433  0.9497 -0.0209
10175TIP3   OH252015   1.620   4.485   5.212  0.0670 -0.3995  0.1988
10175TIP3    H152016   1.617   4.462   5.120 -0.1559  1.9037 -0.4268
10175TIP3    H252017   1.529   4.488   5.240  0.0363  0.5386  0.0277
10176TIP3   OH252018   5.859   4.001   6.239  0.2662 -0.1970  0.6301
10176TIP3    H152019   5.869   3.933   6.305 -1.7875 -0.4874  0.7101
10176TIP3    H252020   5.783   3.973   6.187 -0.4082  1.8276  0.4276
10177TIP3   OH252021   2.297   2.701  14.415 -0.5204 -0.2721 -0.1116
10177TIP3    H152022   2.275   2.769  14.351 -0.7775  2.5633  2.7855
10177TIP3    H252023   2.215   2.653  14.429 -0.6927 -0.2926 -1.1159
10178TIP3   OH252024   5.758   3.682  17.161 -0.1957  0.2030  0.3039
10178TIP3    H152025   5.824   3.698  17.228 -0.6178 -0.1493  0.8146
10178TIP3    H252026   5.689   3.746  17.180  0.6362  1.6182 -1.1498
10179TIP3   OH252027   6.379   0.333  12.105  0.5160  0.3305 -0.0128
10179TIP3    H152028   6.300   0.383  12.086 -0.6179 -1.7286 -1.0436
10179TIP3    H252029   6.437   0.395  12.150 -0.0171  3.0937 -2.8398
10180TIP3   OH252030   4.434   0.737  14.640  0.1686 -0.0003  0.3097
10180TIP3    H152031   4.504   0.729  14.576 -0.4824 -1.1930 -0.2772
10180TIP3    H252032   4.387   0.654  14.635 -0.1803  0.0603  2.0003
10181TIP3   OH252033   2.938   2.734  14.476 -0.2107  0.9198  0.2648
10181TIP3    H152034   2.935   2.682  14.556  1.4174  0.5033  0.0874
10181TIP3    H252035   2.949   2.824  14.507  0.0315  0.8005  0.5341
10182TIP3   OH252036   6.257   6.486   3.803 -0.6694  0.3728 -0.5289
10182TIP3    H152037   6.223   6.551   3.741  0.7792  0.8800 -0.8326
10182TIP3    H252038   6.348   6.513   3.819 -0.7648 -0.2410  1.1784
10183TIP3   OH252039   1.512   2.318   3.189  0.2494 -0.0073  0.8000
10183TIP3    H152040   1.588   2.344   3.137 -0.5857 -0.4117 -0.7044
10183TIP3    H252041   1.548   2.263   3.259  1.3681  0.0493  0.2903
10184TIP3   OH252042   2.740   5.195   1.519  0.0643  0.1370  0.7851
10184TIP3    H152043   2.784   5.209   1.603 -0.2415 -1.8284  1.3360
10184TIP3    H252044   2.664   5.141   1.540  0.7447 -1.6271 -0.8871
10185TIP3   OH252045   6.311   5.405   4.871  0.5994 -0.6392 -0.6099
10185TIP3    H152046   6.372   5.417   4.944  0.5088 -1.1808 -0.4333
10185TIP3    H252047   6.255   5.332   4.900  1.1984 -1.5264 -1.6462
10186TIP3   OH252048   3.441   5.438  12.867  0.8120  0.0626  0.3931
10186TIP3    H152049   3.436   5.472  12.957  1.8869 -1.0419  0.9072
10186TIP3    H252050   3.522   5.475  12.832  0.5340  0.2737 -0.0242
10187TIP3   OH252051   1.857   3.165   2.055 -0.3920  0.1746 -0.4620
10187TIP3    H152052   1.925   3.207   2.107  2.4294 -0.8451 -3.0416
10187TIP3    H252053   1.838   3.083   2.101  0.4443  0.2972  0.1132
10188TIP3   OH252054   4.595   2.869   2.530  0.6163 -0.8688  0.4014
10188TIP3    H152055   4.509   2.843   2.496  0.6075 -1.1771  0.6623
10188TIP3    H252056   4.617   2.947   2.480 -0.0003 -0.5536  0.6026
10189TIP3   OH252057   5.915   2.156  14.000  0.5639 -0.4019  0.1382
10189TIP3    H152058   5.901   2.067  13.967  1.8396 -0.1978 -1.0317
10189TIP3    H252059   6.010   2.166  14.002  0.4662  0.4978  1.5143
10190TIP3   OH252060   2.989   2.344  15.645 -0.7376 -0.1675 -0.0618
10190TIP3    H152061   3.085   2.345  15.635 -0.6196 -2.1425  0.4834
10190TIP3    H252062   2.965   2.437  15.650  0.8910  0.4940 -2.4203
10191TIP3   OH252063   6.461   4.125  15.215  0.4802 -0.7258  0.6711
10191TIP3    H152064   6.467   4.053  15.151  0.1956  0.4054 -0.6857
10191TIP3    H252065   6.408   4.089  15.286 -1.5873 -1.1941 -0.9866
10192TIP3   OH252066   2.458   0.194   0.108  0.1832 -0.8515 -0.3453
10192TIP3    H152067   2.364   0.207   0.100  0.4077 -0.2540 -3.0949
10192TIP3    H252068   2.485   0.253   0.178 -1.2703  0.2902 -0.7058
10193TIP3   OH252069   2.171   5.350  13.435  0.2287  0.3562 -0.0946
10193TIP3    H152070   2.150   5.343  13.342  2.3914 -1.5555 -0.5161
10193TIP3    H252071   2.225   5.429  13.442 -0.8671  1.1387 -0.2332
10194TIP3   OH252072   1.594   2.067  15.511  0.5178 -0.0122 -0.6841
10194TIP3    H152073   1.584   2.162  15.503 -0.5367 -0.0513  0.0530
10194TIP3    H252074   1.520   2.031  15.464  1.3324 -0.5089 -1.6246
10195TIP3   OH252075   6.823   0.886  12.695  0.0942 -0.6835  0.1332
10195TIP3    H152076   6.897   0.888  12.756  0.5564 -0.8705 -0.4143
10195TIP3    H252077   6.863   0.886  12.609 -0.5340 -1.5035 -0.1656
10196TIP3   OH252078   0.383   6.728   1.717 -0.2391 -0.3825  0.7903
10196TIP3    H152079   0.413   6.810   1.678  2.7700 -1.1447  1.2838
10196TIP3    H252080   0.357   6.751   1.806 -1.2235  0.3107  0.3403
10197TIP3   OH252081   3.685   0.829  13.709 -0.0534 -0.3946  0.2543
10197TIP3    H152082   3.637   0.746  13.709  0.2554 -0.5833  0.8450
10197TIP3    H252083   3.626   0.891  13.751  0.6643 -0.9215  2.1652
10198TIP3   OH252084   1.717   5.041   0.657 -0.2584  0.1458 -0.0995
10198TIP3    H152085   1.707   5.106   0.588 -0.0689 -0.4848 -0.7300
10198TIP3    H252086   1.790   4.987   0.629  0.1515  0.1851  0.8463
10199TIP3   OH252087   3.001   6.461  16.084  0.4860  0.7847  0.1331
10199TIP3    H152088   3.053   6.501  16.154 -0.3815  2.9842 -0.3953
10199TIP3    H252089   2.994   6.530  16.018 -1.0305 -0.3030 -0.8810
10200TIP3   OH252090   4.150   3.578  16.700 -0.3089  0.6051  0.5606
10200TIP3    H152091   4.231   3.576  16.751 -0.3914  1.2048  0.7225
10200TIP3    H252092   4.157   3.502  16.641  1.1200  1.5517 -0.5762
10201TIP3   OH252093   4.434   5.705  15.566  0.1037  0.5715 -0.2080
10201TIP3    H152094   4.384   5.786  15.569 -0.3079  0.3264 -0.2940
10201TIP3    H252095   4.435   5.681  15.473 -2.8340 -1.3685  0.1337
10202TIP3   OH252096   1.911   5.491   2.878 -0.4189 -0.1738 -0.7485
10202TIP3    H152097   1.891   5.399   2.898  0.2728 -0.3890 -1.0306
10202TIP3    H252098   1.835   5.521   2.828 -0.6682 -0.5824 -0.6207
10203TIP3   OH252099   4.165   1.483  11.567 -0.0664 -0.0594  0.1685
10203TIP3    H152100   4.081   1.528  11.567 -1.2171 -2.0900 -0.6416
10203TIP3    H252101   4.224   1.543  11.519 -0.8624  1.6071  1.1705
10204TIP3   OH252102   3.267   6.218   1.610  0.4790 -0.4186  0.1901
10204TIP3    H152103   3.248   6.264   1.528 -0.7137 -2.4405 -0.7472
10204TIP3    H252104   3.280   6.287   1.674  0.7528  1.2196 -1.5492
10205TIP3   OH252105   5.816   2.824  15.938  0.1138 -0.4073 -0.0738
10205TIP3    H152106   5.763   2.749  15.910 -0.6673  0.6384 -1.5114
10205TIP3    H252107   5.870   2.790  16.009 -0.9764 -2.0609  0.0131
10206TIP3   OH252108   4.934   5.494   2.521  0.0651 -0.1739 -0.4449
10206TIP3    H152109   4.875   5.541   2.462 -0.8359 -0.0789  0.4984
10206TIP3    H252110   4.968   5.561   2.580  0.0662 -0.4453 -0.1342
10207TIP3   OH252111   1.128   4.431  11.100  0.1885 -0.0720  0.0633
10207TIP3    H152112   1.091   4.421  11.012  0.8398  1.1134 -0.3621
10207TIP3    H252113   1.071   4.495  11.143  0.8965  0.6918 -0.1141
10208TIP3   OH252114   5.581   5.636   2.044 -0.7238  0.3388  0.3104
10208TIP3    H152115   5.516   5.600   2.105 -0.6960 -1.1482 -0.4744
10208TIP3    H252116   5.540   5.625   1.957  0.3414 -0.1389 -0.1492
10209TIP3   OH252117   1.651   1.607  11.472 -0.2490 -0.4966 -0.1019
10209TIP3    H152118   1.695   1.548  11.534 -1.2833 -0.8880  0.2779
10209TIP3    H252119   1.598   1.549  11.418 -2.0522  0.1333  0.9110
10210TIP3   OH252120   1.369   0.791   0.040  0.2889 -0.0852 -0.1041
10210TIP3    H152121   1.353   0.735   0.116  1.6857  0.5566  0.7097
10210TIP3    H252122   1.389   0.731  -0.031 -1.2672 -0.7073 -0.0654
10211TIP3   OH252123   3.662   2.836   1.772  0.1768  0.1849  0.3659
10211TIP3    H152124   3.625   2.826   1.684  2.0473 -0.5584 -0.3768
10211TIP3    H252125   3.735   2.896   1.761  0.9128 -0.5197  1.2562
10212TIP3   OH252126   5.317   4.076   2.695  0.2648 -0.3892 -0.2709
10212TIP3    H152127   5.236   4.099   2.650  0.0200 -1.2220 -0.2623
10212TIP3    H252128   5.329   3.983   2.677 -0.1932 -0.9321  1.9123
10213TIP3   OH252129   2.459   4.723  14.092 -0.2486  0.4205 -0.2406
10213TIP3    H152130   2.501   4.665  14.029 -0.5514 -0.2030  0.1248
10213TIP3    H252131   2.408   4.784  14.039  1.8883  1.8754 -0.7823
10214TIP3   OH252132   3.204   2.985  15.985 -0.4565  0.4459  0.5078
10214TIP3    H152133   3.297   3.003  15.979 -0.3231  0.3020  1.8345
10214TIP3    H252134   3.187   2.919  15.918  0.6881 -0.6330  1.2572
10215TIP3   OH252135   4.542   2.290  12.449 -0.0353  0.3476 -0.0825
10215TIP3    H152136   4.456   2.328  12.431  0.6713  2.4525  0.6257
10215TIP3    H252137   4.544   2.209  12.399 -1.7607  1.1198 -1.5047
10216TIP3   OH252138   4.120   3.692   5.102  0.3872  0.6712  0.0467
10216TIP3    H152139   4.120   3.768   5.043  0.5721  0.5124 -0.1593
10216TIP3    H252140   4.148   3.728   5.186  0.8725  0.7583 -0.1488
10217TIP3   OH252141   3.547   3.591  14.533 -0.1526  0.5581  0.1940
10217TIP3    H152142   3.557   3.514  14.589 -2.7701  0.7295  1.0446
10217TIP3    H252143   3.543   3.664  14.594 -1.6313  0.9050 -0.2764
10218TIP3   OH252144   3.787   4.511  11.913  0.6604  0.0180  0.3538
10218TIP3    H152145   3.738   4.534  11.992 -2.2254  2.8305 -1.9785
10218TIP3    H252146   3.862   4.570  11.914  0.4690  0.2623  0.8438
10219TIP3   OH252147   2.467   2.342  15.812 -0.3906 -0.2190 -0.1134
10219TIP3    H152148   2.422   2.345  15.896 -0.0483  0.7227  0.0502
10219TIP3    H252149   2.538   2.406  15.820  1.7523 -2.4753  0.0617
10220TIP3   OH252150   0.300   4.766  14.521 -0.5179 -0.3456  0.0784
10220TIP3    H152151   0.278   4.706  14.593 -1.7671  0.1936  0.1615
10220TIP3    H252152   0.225   4.824  14.514  0.4869  0.9599 -0.2818
10221TIP3   OH252153   0.472   5.474   6.075  0.1783  0.3902 -0.0896
10221TIP3    H152154   0.472   5.381   6.099  0.1748  0.0125 -1.4852
10221TIP3    H252155   0.427   5.517   6.147  1.0308 -0.5627  1.0509
10222TIP3   OH252156   6.518   2.043   3.932 -0.0172  0.1692 -0.1493
10222TIP3    H152157   6.428   2.010   3.931  0.2102 -0.4720 -1.6098
10222TIP3    H252158   6.509   2.138   3.942 -0.7257 -0.0907  2.5674
10223TIP3   OH252159   2.278   2.324   2.106 -0.2878 -0.0938  0.1119
10223TIP3    H152160   2.255   2.317   2.013 -0.7976  1.1722  0.1313
10223TIP3    H252161   2.372   2.303   2.108 -0.2468 -0.0494 -0.7035
10224TIP3   OH252162   4.322   2.953   5.357  0.4387 -0.6331 -0.2922
10224TIP3    H152163   4.347   3.024   5.298 -0.0329  0.0768  0.3459
10224TIP3    H252164   4.362   2.975   5.441 -0.9109 -0.3440  0.3037
10225TIP3   OH252165   2.347   0.059  13.682  0.1326 -0.0023 -0.4577
10225TIP3    H152166   2.380   0.145  13.657 -0.0796  0.3678  0.4894
10225TIP3    H252167   2.327   0.016  13.599 -0.0659  0.9883 -0.9384
10226TIP3   OH252168   5.958   2.678   2.785 -0.4617 -0.6262 -0.4724
10226TIP3    H152169   5.988   2.729   2.860  0.3440 -1.0135 -0.5222
10226TIP3    H252170   6.037   2.660   2.735 -1.1694  0.9324 -2.2644
10227TIP3   OH252171   1.215   3.877   0.253 -0.0529  0.1342 -0.0760
10227TIP3    H152172   1.157   3.813   0.211  0.0471  0.0375 -0.0677
10227TIP3    H252173   1.211   3.953   0.196 -0.4603  0.2563  0.1078
10228TIP3   OH252174   4.899   6.191   5.322  0.2750  0.2764  0.4839
10228TIP3    H152175   4.951   6.248   5.379  0.5614 -0.3440  0.8647
10228TIP3    H252176   4.874   6.118   5.379  0.1049 -0.0864 -0.0517
10229TIP3   OH252177   4.279   1.314   3.257  0.1349 -0.2323 -0.4771
10229TIP3    H152178   4.347   1.380   3.268 -1.7681  2.0083 -1.1879
10229TIP3    H252179   4.293   1.252   3.329  0.6095  2.2934  1.7655
10230TIP3   OH252180   0.592   6.562  11.187  0.3902  0.2943 -0.2774
10230TIP3    H152181   0.653   6.513  11.241 -0.0337  0.2879  0.2158
10230TIP3    H252182   0.586   6.648  11.230 -0.1056  0.2225 -0.1879
10231TIP3   OH252183   3.133   5.625  10.819  0.4924 -0.0103  0.0186
10231TIP3    H152184   3.189   5.556  10.784  1.7595  1.6126 -1.2595
10231TIP3    H252185   3.060   5.631  10.756  1.2928  0.9628 -0.8525
10232TIP3   OH252186   0.704   2.376   2.991 -0.3542 -0.3959 -0.5957
10232TIP3    H152187   0.634   2.320   3.026 -1.3062  0.3067 -1.3233
10232TIP3    H252188   0.700   2.364   2.896  1.3240 -1.2571 -0.5946
10233TIP3   OH252189   0.133   5.854   3.069  0.2100  0.5000  0.3014
10233TIP3    H152190   0.069   5.893   3.128  0.6576  1.2971  0.2838
10233TIP3    H252191   0.127   5.906   2.989  1.1023  0.8069  0.4228
10234TIP3   OH252192   3.456   6.130  10.789 -0.1229 -0.2179  0.1315
10234TIP3    H152193   3.471   6.035  10.787  2.6334  0.1218  0.8275
10234TIP3    H252194   3.424   6.147  10.877  3.2453 -0.1165  1.4424
10235TIP3   OH252195   1.745   6.279   2.704 -0.5000  0.2152  0.3304
10235TIP3    H152196   1.707   6.206   2.656  2.3171  0.2133 -2.2378
10235TIP3    H252197   1.675   6.343   2.711 -2.5815 -2.0100  1.2200
10236TIP3   OH252198   6.163   4.211   5.698 -0.0675 -0.2467  0.4155
10236TIP3    H152199   6.121   4.247   5.776 -0.0292 -0.6931  0.6474
10236TIP3    H252200   6.148   4.276   5.630 -0.7771 -0.2099  0.5993
10237TIP3   OH252201   0.002   1.061   3.544 -0.0389  0.3188  0.1964
10237TIP3    H152202   0.000   0.966   3.539 -1.9912  0.3632 -0.9119
10237TIP3    H252203   0.008   1.080   3.638 -0.6773 -0.9064  0.5007
10238TIP3   OH252204   1.515   3.967  12.029  0.3710 -0.7598  0.3067
10238TIP3    H152205   1.588   3.913  12.062  0.8483  0.7261  1.8444
10238TIP3    H252206   1.471   3.998  12.109 -0.2625  0.6026 -0.5457
10239TIP3   OH252207   1.300   2.874   2.640  0.1785  0.5802 -0.1938
10239TIP3    H152208   1.243   2.835   2.706 -0.1461 -0.1799 -0.9134
10239TIP3    H252209   1.348   2.942   2.687 -0.9071  0.8476  0.5522
10240TIP3   OH252210   4.528   3.691   1.360 -0.5196 -0.1270 -0.0211
10240TIP3    H152211   4.486   3.660   1.441 -0.2482  0.9652  0.5607
10240TIP3    H252212   4.599   3.748   1.390  0.7701 -1.1487 -1.0077
10241TIP3   OH252213   5.323   0.491  14.639 -0.4146 -0.0964  0.1379
10241TIP3    H152214   5.278   0.458  14.561  0.9814 -0.6590 -0.4551
10241TIP3    H252215   5.279   0.448  14.712 -1.1988 -0.1992 -0.3812
10242TIP3   OH252216   4.569   2.166  14.236 -0.5361  0.1701 -0.0553
10242TIP3    H152217   4.645   2.222  14.246 -0.6389  0.4239 -0.6580
10242TIP3    H252218   4.544   2.175  14.144 -0.4613 -0.9753 -0.2071
10243TIP3   OH252219   6.307   3.044   2.370 -0.1936  0.7535 -0.3688
10243TIP3    H152220   6.246   2.973   2.351  0.8729 -0.1861 -0.4516
10243TIP3    H252221   6.327   3.083   2.284  0.2233  0.2758 -0.4950
10244TIP3   OH252222   6.023   4.365   1.829 -0.0312 -0.0612  0.6670
10244TIP3    H152223   6.008   4.293   1.769  0.6023 -0.5839  1.1194
10244TIP3    H252224   6.067   4.325   1.904  0.1141  0.7510  1.0280
10245TIP3   OH252225   4.950   6.096  17.140 -0.1675  0.3465 -0.4461
10245TIP3    H152226   4.949   6.101  17.236  0.7020 -1.2175 -0.3356
10245TIP3    H252227   4.869   6.049  17.118  0.4067 -0.6944 -0.3674
10246TIP3   OH252228   4.525   3.809   3.042 -0.1349  0.3551 -0.8442
10246TIP3    H152229   4.464   3.865   2.993 -0.5649 -0.7934 -1.6536
10246TIP3    H252230   4.494   3.720   3.026  0.0822 -0.1095  1.0380
10247TIP3   OH252231   3.431   5.850  10.894 -0.1454  0.5289 -0.6612
10247TIP3    H152232   3.453   5.775  10.839 -0.8463 -1.6456  1.8292
10247TIP3    H252233   3.404   5.812  10.977 -1.0000  3.5614  0.5907
10248TIP3   OH252234   3.473   2.334   0.993  0.1012  0.3798  0.6840
10248TIP3    H152235   3.464   2.408   1.053  2.0303  0.0427  1.4631
10248TIP3    H252236   3.567   2.317   0.990 -0.1479 -0.9275 -0.8571
10249TIP3   OH252237   0.750   5.220   6.038  0.3109  0.1883  0.2207
10249TIP3    H152238   0.799   5.260   6.110  0.0315  0.9736 -0.0095
10249TIP3    H252239   0.662   5.207   6.074 -0.0372  1.2725 -0.1884
10250TIP3   OH252240   1.417   5.841   4.135 -0.3027 -0.1202  0.2878
10250TIP3    H152241   1.380   5.921   4.172 -1.5883  0.0202 -1.2395
10250TIP3    H252242   1.387   5.839   4.045  0.0649 -2.1221  0.1612
10251TIP3   OH252243   3.519   3.603   0.076  0.3194 -0.5636 -0.1126
10251TIP3    H152244   3.610   3.575   0.068 -0.0891 -2.0570  0.2519
10251TIP3    H252245   3.511   3.674   0.012  1.3897 -1.2801 -1.0845
10252TIP3   OH252246   5.602   4.399   5.697 -0.5264 -0.3009 -0.2857
10252TIP3    H152247   5.636   4.472   5.748 -1.5660  0.1538 -0.2344
10252TIP3    H252248   5.666   4.388   5.626  0.6518 -0.6113  0.7932
10253TIP3   OH252249   4.282   0.073   0.006 -0.0362  0.0822  0.0274
10253TIP3    H152250   4.251   0.121   0.083  2.1580  0.7570  0.5819
10253TIP3    H252251   4.214   0.009  -0.013 -2.4008  2.4093  0.1796
10254TIP3   OH252252   4.964   5.976  12.766  0.7391 -0.1607  0.1341
10254TIP3    H152253   4.893   5.966  12.703  0.2760  1.7144  0.3202
10254TIP3    H252254   4.921   5.973  12.852  1.2929 -2.1014  0.3932
10255TIP3   OH252255   3.597   1.339   5.754  0.0322  0.1552 -0.3462
10255TIP3    H152256   3.622   1.333   5.847  1.2429 -0.2836 -0.6805
10255TIP3    H252257   3.675   1.310   5.707 -1.0371 -0.9992 -1.4751
10256TIP3   OH252258   2.686   5.613  13.785  0.0895 -0.1614 -0.1644
10256TIP3    H152259   2.650   5.571  13.863  1.9225  1.7780  1.8957
10256TIP3    H252260   2.773   5.574  13.774  0.8491  1.2799  0.3584
10257TIP3   OH252261   0.358   1.429   5.546 -0.6494  0.0762 -1.4640
10257TIP3    H152262   0.272   1.471   5.550  0.3098  2.0852 -1.2325
10257TIP3    H252263   0.404   1.475   5.476 -0.1787 -1.8744 -2.5164
10258TIP3   OH252264   5.427   6.624  14.287  0.5634 -0.1464  0.7575
10258TIP3    H152265   5.461   6.559  14.226  0.4752 -0.0341  0.5883
10258TIP3    H252266   5.357   6.668  14.239  0.2494 -0.3028  1.0675
10259TIP3   OH252267   2.821   5.771  11.586 -0.1185  0.5075  0.2844
10259TIP3    H152268   2.879   5.696  11.603 -2.1210 -1.0349  0.6674
10259TIP3    H252269   2.881   5.842  11.562  1.9372 -0.9090  0.9118
10260TIP3   OH252270   1.883   2.949  11.685 -0.0334 -0.0170  0.0056
10260TIP3    H152271   1.918   3.032  11.654 -1.0099 -0.1017 -1.3972
10260TIP3    H252272   1.958   2.905  11.725  0.9018  0.7832 -0.8174
10261TIP3   OH252273   0.833   6.584  12.513  0.0804  0.2790  0.2664
10261TIP3    H152274   0.761   6.524  12.530 -0.3626  1.1062  1.4144
10261TIP3    H252275   0.895   6.568  12.584  0.4345  0.4743  0.0053
10262TIP3   OH252276   3.371   0.388  14.821 -0.4626 -0.1278 -0.1736
10262TIP3    H152277   3.405   0.364  14.908  0.5646 -0.4277 -0.6429
10262TIP3    H252278   3.276   0.389  14.832 -0.3209  2.1005  1.5394
10263TIP3   OH252279   4.304   6.216  13.913 -0.6020 -0.8558  0.2330
10263TIP3    H152280   4.215   6.190  13.887 -1.0387  0.4798  0.3443
10263TIP3    H252281   4.358   6.192  13.838 -1.6070  1.5325 -1.3968
10264TIP3   OH252282   0.582   1.220  14.738  0.1766 -0.0517  0.2356
10264TIP3    H152283   0.597   1.288  14.803 -1.8792  2.1398 -1.4369
10264TIP3    H252284   0.616   1.256  14.656 -0.8763 -1.0552 -0.6854
10265TIP3   OH252285   1.471   5.990   5.011  0.3572 -0.1129  0.1612
10265TIP3    H152286   1.482   6.079   4.977  0.0475 -0.1689 -0.0913
10265TIP3    H252287   1.529   5.987   5.087  1.6861 -0.2318 -0.8099
10266TIP3   OH252288   3.993   0.674  14.616  0.1643  0.0000  0.1652
10266TIP3    H152289   3.901   0.665  14.639  0.4787 -0.6104  1.2273
10266TIP3    H252290   4.035   0.708  14.695  0.6826  1.3695 -0.6627
10267TIP3   OH252291   2.295   5.548  14.083 -0.3523  0.3667  0.3759
10267TIP3    H152292   2.365   5.559  14.019 -0.8627  1.7937  0.0347
10267TIP3    H252293   2.306   5.458  14.115 -1.5498 -1.4460 -3.5495
10268TIP3   OH252294   4.783   3.850   5.921 -0.5560 -0.2642 -0.1008
10268TIP3    H152295   4.778   3.780   5.986  1.3518 -0.3278  0.0128
10268TIP3    H252296   4.754   3.809   5.839 -0.3279 -0.9265  0.1443
10269TIP3   OH252297   4.529   1.068  13.893  0.0927 -0.0033 -0.4061
10269TIP3    H152298   4.601   1.075  13.955  0.6049 -0.4462 -0.9318
10269TIP3    H252299   4.496   1.158  13.884 -0.3938 -0.0367  0.9570
10270TIP3   OH252300   3.371   2.303   2.322 -0.2868  0.3754  0.1270
10270TIP3    H152301   3.417   2.384   2.299 -1.5015  0.1337 -4.1591
10270TIP3    H252302   3.283   2.331   2.348 -0.8266  0.5676 -1.7099
10271TIP3   OH252303   0.137   2.861  13.154 -0.4309 -0.8144  0.2120
10271TIP3    H152304   0.149   2.778  13.107 -0.1529 -0.4364 -0.4011
10271TIP3    H252305   0.043   2.880  13.144 -0.3114 -0.5530 -0.5308
10272TIP3   OH252306   4.533   4.830  12.315  0.0192 -0.3699  0.2459
10272TIP3    H152307   4.588   4.807  12.240  0.9510 -3.2280  1.6745
10272TIP3    H252308   4.449   4.788  12.296  0.2919 -1.1915  0.8229
10273TIP3   OH252309   0.201   3.205   3.311 -0.0517 -0.0861  0.0219
10273TIP3    H152310   0.163   3.268   3.249  1.9474  1.2025  0.0221
10273TIP3    H252311   0.184   3.244   3.397 -0.2925 -0.4200  0.1282
10274TIP3   OH252312   2.312   6.342   0.802  0.0341  0.2060 -0.7563
10274TIP3    H152313   2.327   6.250   0.781 -2.4545 -0.1073 -1.4671
10274TIP3    H252314   2.228   6.342   0.849 -1.3370  2.3172 -2.9962
10275TIP3   OH252315   5.855   2.330   2.228 -0.0107  0.0194  0.4994
10275TIP3    H152316   5.852   2.409   2.175  1.6339 -0.2078  0.0077
10275TIP3    H252317   5.914   2.271   2.181  1.6068 -0.1538  2.5472
10276TIP3   OH252318   3.783   6.803  14.757  0.0480 -0.1047 -0.2134
10276TIP3    H152319   3.819   6.861  14.824  0.5066  0.0185 -0.5658
10276TIP3    H252320   3.699   6.775  14.793  1.4420 -2.2009  1.6613
10277TIP3   OH252321   2.566   3.079   2.350  0.0028 -0.0704 -0.1235
10277TIP3    H152322   2.572   3.143   2.420 -0.5436  0.8237 -0.8770
10277TIP3    H252323   2.642   3.022   2.363  1.3012  1.5661 -0.2702
10278TIP3   OH252324   2.209   6.169   4.304  0.1445 -0.2363 -0.1485
10278TIP3    H152325   2.235   6.102   4.240  0.4179  0.5274 -0.8592
10278TIP3    H252326   2.247   6.140   4.386 -0.6033 -1.4860 -0.2172
10279TIP3   OH252327   0.597   0.916   3.201 -0.1532  0.8762 -0.1146
10279TIP3    H152328   0.586   0.999   3.154 -0.8565  0.5581 -0.5329
10279TIP3    H252329   0.583   0.939   3.293 -2.0785  0.9614 -0.3716
10280TIP3   OH252330   4.055   0.519  16.681 -0.2353 -0.4769 -0.6510
10280TIP3    H152331   3.964   0.492  16.670 -0.2046 -0.4300 -1.0281
10280TIP3    H252332   4.055   0.613  16.661 -0.3200 -0.2083  0.5143
10281TIP3   OH252333   5.461   5.545   5.764 -0.1553  0.5382 -0.6476
10281TIP3    H152334   5.474   5.637   5.786 -0.6057  0.4447  0.0449
10281TIP3    H252335   5.549   5.508   5.761  0.1414  1.3023 -2.4221
10282TIP3   OH252336   3.051   1.430   2.588 -0.1498 -0.1043  0.1602
10282TIP3    H152337   2.992   1.358   2.611 -0.8170  0.5412  0.5175
10282TIP3    H252338   3.007   1.475   2.516 -0.3465  0.6749  0.7561
10283TIP3   OH252339   2.105   0.923  15.952  0.2541  0.2522 -0.1842
10283TIP3    H152340   2.140   0.858  16.013 -0.8851  1.0055  1.3546
10283TIP3    H252341   2.118   0.884  15.866  2.7999 -0.4554  0.4158
10284TIP3   OH252342   5.112   2.666   1.012  0.3636 -0.2917  0.2162
10284TIP3    H152343   5.018   2.660   1.029  0.1108 -0.8887 -1.2578
10284TIP3    H252344   5.152   2.656   1.098 -0.9485  1.7859  1.1653
10285TIP3   OH252345   6.010   0.706   0.889  0.0296 -0.0814  0.0119
10285TIP3    H152346   5.940   0.718   0.824  0.4177  0.1626 -0.3677
10285TIP3    H252347   6.041   0.616   0.874  1.6055  0.6863 -1.6533
10286TIP3   OH252348   6.601   4.545  16.217  0.4709 -0.1957  0.3196
10286TIP3    H152349   6.650   4.613  16.171 -0.3124  0.8324  0.9699
10286TIP3    H252350   6.546   4.592  16.279 -1.5295 -1.2659 -0.5306
10287TIP3   OH252351   2.573   0.294   3.497 -0.2923  0.5222  0.1424
10287TIP3    H152352   2.506   0.337   3.550  0.1287 -1.3564  2.3722
10287TIP3    H252353   2.656   0.331   3.530 -0.0987  0.9245 -0.7661
10288TIP3   OH252354   2.444   0.752   0.842 -0.0065 -0.2809 -0.4502
10288TIP3    H152355   2.467   0.696   0.768 -1.4576 -0.5476 -0.7256
10288TIP3    H252356   2.527   0.764   0.889  0.7106 -1.0586 -1.4612
10289TIP3   OH252357   0.436   4.970   2.493  0.2678 -0.7460 -0.0428
10289TIP3    H152358   0.502   4.903   2.478  0.0477 -1.1865  0.8976
10289TIP3    H252359   0.487   5.051   2.505  0.5873 -0.9277 -0.1644
10290TIP3   OH252360   5.266   5.251  11.460 -0.4751 -0.6486 -0.1953
10290TIP3    H152361   5.206   5.324  11.445 -0.2598 -0.7851 -1.8522
10290TIP3    H252362   5.220   5.195  11.523 -1.6456 -0.2422 -0.6539
10291TIP3   OH252363   0.994   3.450  15.299 -0.0122  0.1568  0.2263
10291TIP3    H152364   1.046   3.373  15.323 -0.9176 -0.2298  0.9683
10291TIP3    H252365   1.041   3.524  15.339 -0.1445 -0.2144  1.0778
10292TIP3   OH252366   3.897   0.364  17.313  0.0685 -0.3091 -0.2067
10292TIP3    H152367   3.956   0.381  17.387  0.9065 -0.6738 -0.7867
10292TIP3    H252368   3.945   0.304  17.257 -0.2149  0.6252 -1.4856
10293TIP3   OH252369   3.912   5.975  12.567 -0.2133  0.2023  0.0811
10293TIP3    H152370   3.841   6.023  12.610 -0.3801 -0.9178  1.0977
10293TIP3    H252371   3.987   5.984  12.627 -0.3148 -0.9827  0.4070
10294TIP3   OH252372   6.762   5.761  14.403 -0.3964  0.0871 -0.1580
10294TIP3    H152373   6.799   5.801  14.324 -2.2212  0.5566 -0.8136
10294TIP3    H252374   6.810   5.803  14.475  0.6449  0.3377 -0.9614
10295TIP3   OH252375   4.314   5.017   2.832 -0.8281 -0.0848 -0.2743
10295TIP3    H152376   4.291   5.110   2.834 -1.7181 -0.2586 -1.5672
10295TIP3    H252377   4.309   4.990   2.924 -2.0422  0.8014 -0.0480
10296TIP3   OH252378   4.013   4.306   2.557  0.5346 -0.2398 -0.4231
10296TIP3    H152379   3.937   4.275   2.608  0.8484 -0.8548 -0.3227
10296TIP3    H252380   4.088   4.286   2.612  0.7628  0.5691 -0.4296
10297TIP3   OH252381   1.682   3.668   5.334  0.0755 -0.0232  0.3396
10297TIP3    H152382   1.652   3.609   5.403  0.0950  0.1044  0.4580
10297TIP3    H252383   1.713   3.746   5.381 -0.8936  0.5070  0.1524
10298TIP3   OH252384   6.605   2.799  14.964 -0.1097 -0.0014  0.3682
10298TIP3    H152385   6.637   2.726  14.912  0.2646  0.0323  0.5484
10298TIP3    H252386   6.652   2.875  14.930 -0.4831  0.1513  0.1927
10299TIP3   OH252387   1.124   2.524   2.074 -0.2876 -0.3665  0.2419
10299TIP3    H152388   1.054   2.517   2.009 -0.0535 -0.8750  0.0406
10299TIP3    H252389   1.153   2.615   2.068 -0.6403 -0.2652  0.0272
10300TIP3   OH252390   4.847   6.616   5.599  0.2455 -0.2418  0.9371
10300TIP3    H152391   4.821   6.664   5.678  0.4787  0.2366  0.7324
10300TIP3    H252392   4.878   6.685   5.539 -2.7224 -0.2174 -0.7516
10301TIP3   OH252393   5.859   5.739   4.489  0.0454 -0.1630  0.2685
10301TIP3    H152394   5.930   5.676   4.476  1.1813  0.8535  1.2479
10301TIP3    H252395   5.852   5.784   4.404  1.7309  0.8337  0.6051
10302TIP3   OH252396   6.544   1.642   3.221  0.1195  0.0225  0.4216
10302TIP3    H152397   6.544   1.583   3.145  0.6894 -1.5667  1.5927
10302TIP3    H252398   6.457   1.682   3.220  0.0545 -0.0904 -0.9554
10303TIP3   OH252399   3.207   3.794   4.954  0.5039  0.2473  0.6095
10303TIP3    H152400   3.172   3.731   5.018 -0.8941  0.7916  0.4061
10303TIP3    H252401   3.284   3.750   4.918 -0.7559 -1.6472  0.0449
10304TIP3   OH252402   6.111   1.471  16.824  0.3651  0.4431  0.0802
10304TIP3    H152403   6.125   1.470  16.918  1.0327  0.9753 -0.0040
10304TIP3    H252404   6.067   1.555  16.807 -0.7837 -0.1477  0.0466
10305TIP3   OH252405   6.336   2.707  11.851  0.4427  0.1619 -0.3811
10305TIP3    H152406   6.330   2.762  11.773 -1.6020  1.9615  0.9356
10305TIP3    H252407   6.272   2.638  11.837  1.4470 -0.6468 -1.0888
10306TIP3   OH252408   1.654   0.795  13.864  0.3543  0.7185 -0.4077
10306TIP3    H152409   1.602   0.860  13.816 -0.5318 -1.2118 -2.2061
10306TIP3    H252410   1.696   0.743  13.796 -1.4990 -2.6049  0.7623
10307TIP3   OH252411   0.381   0.153   1.296 -0.3159 -0.7168  0.5631
10307TIP3    H152412   0.382   0.059   1.314 -2.1397 -0.4139  2.6189
10307TIP3    H252413   0.292   0.171   1.268  0.2011  0.3146 -0.4795
10308TIP3   OH252414   0.508   2.793  15.978  0.0550 -0.0993  0.2518
10308TIP3    H152415   0.590   2.744  15.986 -2.1712 -4.3003  0.2621
10308TIP3    H252416   0.488   2.790  15.884  0.1375  1.4697  0.1578
10309TIP3   OH252417   5.275   0.475   5.782 -0.0836  0.5490 -0.4269
10309TIP3    H152418   5.319   0.485   5.697 -0.8636 -0.0843 -0.9117
10309TIP3    H252419   5.310   0.547   5.834 -0.6987  1.8757 -1.7625
10310TIP3   OH252420   0.052   4.250   3.900  0.0164 -0.1640 -0.0145
10310TIP3    H152421  -0.043   4.247   3.904  0.0326 -0.4269  0.2269
10310TIP3    H252422   0.072   4.252   3.806 -0.2400  0.7371 -0.0585
10311TIP3   OH252423   0.128   5.271  16.990 -0.6495  0.2928 -0.2004
10311TIP3    H152424   0.045   5.274  17.037 -0.6526  0.7492 -0.2310
10311TIP3    H252425   0.103   5.266  16.898 -0.6432 -0.5961 -0.1559
10312TIP3   OH252426   4.351   2.281  15.630  0.5662 -0.7113  0.1320
10312TIP3    H152427   4.411   2.230  15.683  2.0925 -0.4707 -1.2646
10312TIP3    H252428   4.269   2.231  15.630  0.8556 -1.2266  1.7879
10313TIP3   OH252429   3.887   4.712   5.412 -0.0148 -0.0123 -0.0832
10313TIP3    H152430   3.899   4.660   5.333 -0.6841  2.0257 -1.5911
10313TIP3    H252431   3.794   4.701   5.434 -0.3858  1.2401 -0.9522
10314TIP3   OH252432   3.683   0.109   4.797  0.1559  0.0566  0.3413
10314TIP3    H152433   3.626   0.172   4.755  0.3162  1.0434  1.5493
10314TIP3    H252434   3.624   0.045   4.837 -0.0162 -0.2874 -0.4345
10315TIP3   OH252435   4.346   3.634   1.557  0.3291  0.3144  0.6465
10315TIP3    H152436   4.261   3.656   1.520  0.1230  0.2286  1.0594
10315TIP3    H252437   4.345   3.538   1.564  1.7809 -0.0585 -2.5165
10316TIP3   OH252438   5.676   5.279  12.548 -0.7409  0.3771  0.4840
10316TIP3    H152439   5.616   5.230  12.493  0.7807 -1.6971  0.5275
10316TIP3    H252440   5.685   5.226  12.627 -0.2870  1.5827  1.2845
10317TIP3   OH252441   2.211   0.732  14.701  0.0992 -0.0526  0.1966
10317TIP3    H152442   2.176   0.689  14.624 -0.1751  1.1034 -0.3541
10317TIP3    H252443   2.139   0.787  14.732 -0.0504 -1.0729  1.7369
10318TIP3   OH252444   1.253   0.832   0.732  0.1726 -0.2116 -0.2485
10318TIP3    H152445   1.206   0.767   0.679 -0.0961  0.1410 -0.4461
10318TIP3    H252446   1.187   0.898   0.754  0.5004  0.1210 -0.2519
10319TIP3   OH252447   0.580   5.424  11.116  0.4173  0.2946  0.4591
10319TIP3    H152448   0.583   5.342  11.067  1.3170 -0.1553  1.2583
10319TIP3    H252449   0.561   5.491  11.049 -3.2807 -0.8276  0.1550
10320TIP3   OH252450   3.860   1.334   5.536  0.0297  0.4308 -0.5128
10320TIP3    H152451   3.934   1.380   5.498  0.6760  0.1209  0.3466
10320TIP3    H252452   3.789   1.347   5.473  0.5423  1.5266 -0.8910
10321TIP3   OH252453   4.072   5.633   0.191  0.1422 -0.1468 -0.4602
10321TIP3    H152454   4.102   5.586   0.113 -1.7726 -0.1183 -1.2754
10321TIP3    H252455   3.979   5.647   0.176 -0.2800 -0.0907  1.8273
10322TIP3   OH252456   2.804   4.331   1.808 -0.1653  0.1982 -0.2218
10322TIP3    H152457   2.720   4.377   1.811  0.2323  0.9533 -0.2349
10322TIP3    H252458   2.840   4.339   1.896 -0.1304 -0.1639 -0.2028
10323TIP3   OH252459   1.954   2.891   0.063  0.4762  0.2488  0.7757
10323TIP3    H152460   1.885   2.899   0.128  0.2919 -1.6379  0.8434
10323TIP3    H252461   1.909   2.862  -0.017  0.7785  1.9943 -0.0967
10324TIP3   OH252462   0.184   1.399  12.097  0.5772  0.0292 -0.1929
10324TIP3    H152463   0.095   1.433  12.106  0.6762  0.5198 -0.9511
10324TIP3    H252464   0.240   1.475  12.113  0.8497 -0.1982 -0.0618
10325TIP3   OH252465   2.614   2.993  13.529 -0.2883 -0.1596 -0.0321
10325TIP3    H152466   2.652   3.078  13.549  1.1203 -0.4011 -1.4819
10325TIP3    H252467   2.689   2.937  13.508 -1.2946 -1.2510 -0.8621
10326TIP3   OH252468   5.649   1.433   5.863  0.4068 -0.2977 -0.2186
10326TIP3    H152469   5.687   1.349   5.837  0.4204 -0.4267  0.2013
10326TIP3    H252470   5.564   1.435   5.820 -0.2873 -1.2534  1.0224
10327TIP3   OH252471   3.138   5.106  15.694 -0.1501 -0.2904 -0.1093
10327TIP3    H152472   3.119   5.093  15.601 -1.2338 -0.9571  0.1847
10327TIP3    H252473   3.119   5.198  15.710 -1.7379 -0.5763 -0.1799
10328TIP3   OH252474   2.340   0.754  13.494  0.5053  0.0070 -0.0887
10328TIP3    H152475   2.328   0.845  13.522  0.0155 -0.3331  0.8545
10328TIP3    H252476   2.422   0.754  13.445  0.4202  0.9894 -0.2448
10329TIP3   OH252477   3.849   3.740  14.761  0.6706 -0.0848  0.1063
10329TIP3    H152478   3.876   3.652  14.735  0.4816  0.1916 -1.1422
10329TIP3    H252479   3.806   3.728  14.845 -0.4771 -1.4065 -0.6057
10330TIP3   OH252480   5.999   0.457  14.189  0.0914 -0.9191  0.0631
10330TIP3    H152481   5.906   0.446  14.168  0.2134 -2.7032  0.3143
10330TIP3    H252482   6.000   0.508  14.270 -0.6949 -1.1597  0.2305
10331TIP3   OH252483   5.370   0.301   2.765  0.2393 -0.4586 -0.1553
10331TIP3    H152484   5.345   0.234   2.828  1.6963  0.3232  1.3172
10331TIP3    H252485   5.416   0.253   2.696  0.0261 -1.1456  0.1724
10332TIP3   OH252486   4.338   0.016   6.553  0.1317 -0.6086 -0.3992
10332TIP3    H152487   4.371   0.102   6.526 -0.0302 -0.5315 -0.3502
10332TIP3    H252488   4.271   0.035   6.618 -1.3749 -0.6684 -1.8703
10333TIP3   OH252489   3.231   0.229   1.740  0.4055  0.2681  0.0445
10333TIP3    H152490   3.293   0.184   1.683 -0.5891 -0.9439 -0.1292
10333TIP3    H252491   3.229   0.319   1.708  0.3191 -0.2437 -1.4543
10334TIP3   OH252492   5.312   2.235   5.733  0.2998 -0.0391  0.1344
10334TIP3    H152493   5.244   2.177   5.700  1.1819 -0.7755 -0.4248
10334TIP3    H252494   5.371   2.178   5.783  0.4620  0.6000  0.6865
10335TIP3   OH252495   2.687   6.416  16.138  0.8596  0.2096  0.3115
10335TIP3    H152496   2.741   6.486  16.174  1.3914 -0.4867  0.8903
10335TIP3    H252497   2.603   6.425  16.183  0.6805  0.9206 -0.1510
10336TIP3   OH252498   2.648   6.389  15.313 -0.5951  0.2861 -0.0783
10336TIP3    H152499   2.667   6.333  15.389  1.1830  0.6869 -0.1945
10336TIP3    H252500   2.682   6.340  15.239 -1.7760  0.1802 -0.5775
10337TIP3   OH252501   4.883   3.110  10.299  0.0773 -0.0833  0.4101
10337TIP3    H152502   4.946   3.039  10.293  0.1123  0.0171 -0.6845
10337TIP3    H252503   4.832   3.091  10.377  0.1039 -1.2996  0.1544
10338TIP3   OH252504   3.011   0.849   3.648  0.1587  0.4240 -0.1884
10338TIP3    H152505   3.094   0.872   3.688  0.3256 -0.9262  0.2709
10338TIP3    H252506   2.998   0.915   3.579  1.9295  0.2531 -0.7218
10339TIP3   OH252507   5.638   1.155  12.156 -0.3110 -0.5788 -0.0865
10339TIP3    H152508   5.724   1.190  12.179 -0.2514  0.0069 -1.0985
10339TIP3    H252509   5.632   1.071  12.201  0.3627 -0.1491  0.8215
10340TIP3   OH252510   1.346   2.342  12.669 -0.5907 -0.5836 -0.0284
10340TIP3    H152511   1.342   2.437  12.671 -1.1475 -0.5505 -1.6282
10340TIP3    H252512   1.438   2.322  12.653 -0.6753 -0.2612 -0.9770
10341TIP3   OH252513   3.847   4.846   4.456  0.1150 -0.6721 -0.2691
10341TIP3    H152514   3.894   4.830   4.374  2.0201 -1.7168  0.9567
10341TIP3    H252515   3.912   4.885   4.514 -0.8579 -1.0974  1.1591
10342TIP3   OH252516   6.359   5.422   0.580 -0.2326 -0.4184  0.0424
10342TIP3    H152517   6.320   5.476   0.648  0.4686  0.2967 -0.0996
10342TIP3    H252518   6.310   5.443   0.501 -1.4531 -1.7098  0.4244
10343TIP3   OH252519   3.632   4.835  16.834 -0.1576  0.0426  0.6221
10343TIP3    H152520   3.724   4.819  16.854  0.1412  0.9785  0.0616
10343TIP3    H252521   3.633   4.882  16.750 -1.0563  1.1669  1.1982
10344TIP3   OH252522   0.609   1.234   3.721  0.1292 -0.2504 -0.0800
10344TIP3    H152523   0.671   1.272   3.784 -0.8897 -1.4936  1.7638
10344TIP3    H252524   0.612   1.294   3.646  1.8224  0.9858  0.8854
10345TIP3   OH252525   4.539   0.433   5.049  0.4742  0.0690 -0.0606
10345TIP3    H152526   4.595   0.357   5.035 -0.4172 -0.3509 -1.6472
10345TIP3    H252527   4.599   0.508   5.046  0.8317 -0.1040 -4.6085
10346TIP3   OH252528   1.376   4.640   0.042  0.2083  0.0911 -0.5031
10346TIP3    H152529   1.348   4.591  -0.035  0.7154 -0.4070 -0.3795
10346TIP3    H252530   1.413   4.574   0.101 -0.8411  0.3543  0.4866
10347TIP3   OH252531   0.734   6.014  15.767 -0.2346 -0.2056 -0.2962
10347TIP3    H152532   0.647   6.049  15.787  0.2446  1.8792 -1.5118
10347TIP3    H252533   0.794   6.079  15.803  0.8472 -1.5272  0.3675
10348TIP3   OH252534   4.869   3.934   4.033  0.2078 -0.0759  0.0244
10348TIP3    H152535   4.846   3.902   4.120  1.9971  1.2167  1.0364
10348TIP3    H252536   4.794   3.987   4.007 -0.5224 -0.8049  0.5771
10349TIP3   OH252537   1.418   5.020   0.425 -0.3421 -0.3731  0.3733
10349TIP3    H152538   1.396   4.942   0.476 -0.9723 -0.5877 -0.1999
10349TIP3    H252539   1.411   4.990   0.334  1.6910 -0.2689  0.1398
10350TIP3   OH252540   3.685   0.518   0.373 -0.1966 -0.0603 -0.0717
10350TIP3    H152541   3.694   0.430   0.337  0.5256 -0.3931  0.8648
10350TIP3    H252542   3.612   0.557   0.325  0.1088 -0.8097 -1.1791
10351TIP3   OH252543   1.917   0.360  13.656 -0.1738  0.5939  0.0589
10351TIP3    H152544   1.955   0.325  13.737 -0.0928  0.7037  0.0688
10351TIP3    H252545   1.964   0.315  13.586 -0.9540 -0.2653  0.0733
10352TIP3   OH252546   5.995   4.852  17.299  0.3999 -0.1583 -0.1854
10352TIP3    H152547   5.948   4.834  17.380  0.8834 -0.6160 -0.0029
10352TIP3    H252548   5.971   4.942  17.277 -0.7503 -0.4503 -0.2243
10353TIP3   OH252549   0.369   2.452   5.036 -0.2369  0.3738 -0.0465
10353TIP3    H152550   0.274   2.443   5.036 -0.3305  1.0671  1.2624
10353TIP3    H252551   0.393   2.457   4.944 -1.3254 -1.0630 -0.4488
10354TIP3   OH252552   1.596   1.482  15.511  0.0002 -0.1451  0.1367
10354TIP3    H152553   1.539   1.547  15.470 -1.4779 -1.4274  0.0678
10354TIP3    H252554   1.657   1.534  15.564  0.4390  1.4209 -1.7666
10355TIP3   OH252555   5.329   3.056   3.599  0.0182 -0.0403 -0.0228
10355TIP3    H152556   5.294   2.996   3.665 -2.3046  1.9573  0.7044
10355TIP3    H252557   5.308   3.015   3.516 -0.2211 -0.9140  0.4611
10356TIP3   OH252558   5.645   1.974  16.179 -0.3986 -0.0771  0.5408
10356TIP3    H152559   5.712   1.948  16.242 -0.8427  0.0959  1.0883
10356TIP3    H252560   5.563   1.971  16.228 -0.9676 -1.4741 -0.4367
10357TIP3   OH252561   5.447   6.059   0.824 -0.1452 -0.0158 -0.3844
10357TIP3    H152562   5.510   6.103   0.766  0.9218 -1.3586 -0.2915
10357TIP3    H252563   5.480   5.969   0.831 -0.5126 -0.0203  1.9093
10358TIP3   OH252564   4.595   1.401  14.301  0.1256 -0.2480  0.1782
10358TIP3    H152565   4.675   1.354  14.326 -1.2298 -2.2765  0.8680
10358TIP3    H252566   4.611   1.428  14.210  0.5193 -3.1560 -0.7031
10359TIP3   OH252567   2.018   2.488  15.637  0.2284  0.0718 -0.2716
10359TIP3    H152568   1.930   2.510  15.606 -1.4276 -2.0037  2.5602
10359TIP3    H252569   2.062   2.454  15.559 -2.4577 -1.5304 -1.2324
10360TIP3   OH252570   1.637   0.211  13.390 -0.2984  0.4898 -0.1178
10360TIP3    H152571   1.594   0.128  13.371 -1.2180  1.2024 -1.2071
10360TIP3    H252572   1.570   0.264  13.433  0.4758  0.4678  1.1822
10361TIP3   OH252573   5.175   6.440   1.732  0.2427  0.1923 -0.1278
10361TIP3    H152574   5.160   6.452   1.638 -0.0951  0.3141 -0.0588
10361TIP3    H252575   5.270   6.450   1.742  0.9055 -3.6811 -1.0255
10362TIP3   OH252576   4.101   2.765  12.095 -0.5699 -0.6285 -0.3858
10362TIP3    H152577   4.041   2.703  12.055 -0.4530 -0.4334 -0.8773
10362TIP3    H252578   4.119   2.829  12.026 -0.5283 -0.1636  0.0437
10363TIP3   OH252579   4.202   4.068  12.824  0.4331  0.0573  0.6956
10363TIP3    H152580   4.148   4.057  12.746  0.1270  1.9792  0.5840
10363TIP3    H252581   4.140   4.073  12.896  0.6173 -0.2270  0.8730
10364TIP3   OH252582   0.300   2.551   3.205  0.1682  0.1032  0.7243
10364TIP3    H152583   0.349   2.481   3.247  1.4113  0.1718 -0.5283
10364TIP3    H252584   0.275   2.516   3.120 -1.5485  0.2636  1.1294
10365TIP3   OH252585   2.271   0.391  11.681  0.3365  0.0680  0.1513
10365TIP3    H152586   2.361   0.411  11.707 -0.0785  0.2603  1.5327
10365TIP3    H252587   2.255   0.304  11.718  0.0794 -0.1568 -0.4670
10366TIP3   OH252588   0.701   0.628  12.451 -0.2094 -0.3388  0.3065
10366TIP3    H152589   0.670   0.547  12.410 -0.6744  0.6623 -1.3896
10366TIP3    H252590   0.708   0.691  12.379  1.7621  0.6786  1.3137
10367TIP3   OH252591   2.936   2.239   2.278  0.4718  0.3817  0.0863
10367TIP3    H152592   2.992   2.306   2.318  0.0321 -0.0844  1.5173
10367TIP3    H252593   2.849   2.254   2.315  0.0522 -0.0851 -0.6813
10368TIP3   OH252594   4.363   1.612  11.380  0.3831  0.5166 -0.0216
10368TIP3    H152595   4.424   1.600  11.452  1.1561  1.1355 -0.5550
10368TIP3    H252596   4.394   1.691  11.336 -0.5653  0.6096 -0.5436
10369TIP3   OH252597   1.437   3.025   1.455  0.1340 -0.8992  0.6880
10369TIP3    H152598   1.446   2.937   1.419 -0.4884 -1.5029  1.9650
10369TIP3    H252599   1.464   3.083   1.383  0.6003 -2.1176 -0.1467
10370TIP3   OH252600   4.004   3.513   6.049 -0.2207  0.2389  0.2521
10370TIP3    H152601   3.960   3.429   6.061 -0.9228  0.7481  1.3527
10370TIP3    H252602   4.008   3.525   5.954  0.5047 -1.3455  0.0596
10371TIP3   OH252603   3.921   3.152  13.583  0.4767 -0.6893  0.3062
10371TIP3    H152604   3.953   3.203  13.509  1.8246 -0.7061  0.8514
10371TIP3    H252605   3.858   3.209  13.627  0.4752 -0.2706 -0.2327
10372TIP3   OH252606   3.514   4.417   5.266  0.2230  0.2973  0.5859
10372TIP3    H152607   3.542   4.325   5.261  0.5459  0.4241 -0.0846
10372TIP3    H252608   3.420   4.413   5.284 -0.3270 -0.2233 -2.0671
10373TIP3   OH252609   4.736   3.196   1.118  0.3133 -0.0083 -0.3993
10373TIP3    H152610   4.741   3.291   1.134 -1.8986 -0.0447  0.9243
10373TIP3    H252611   4.737   3.189   1.022 -1.3346  1.5672 -0.6055
10374TIP3   OH252612   5.209   6.115  12.579  0.4722  0.7382  0.0255
10374TIP3    H152613   5.174   6.165  12.653  1.3252 -0.0803  1.0111
10374TIP3    H252614   5.140   6.119  12.513 -1.3912 -0.4853  1.7483
10375TIP3   OH252615   6.786   1.822   5.944 -0.5473  0.1700  0.8083
10375TIP3    H152616   6.875   1.799   5.919 -0.7364 -0.5090  0.7311
10375TIP3    H252617   6.794   1.856   6.033  0.2075  3.1177 -0.2524
10376TIP3   OH252618   0.826   4.887   6.889 -0.0623 -0.0330  0.2092
10376TIP3    H152619   0.768   4.847   6.823  0.3772 -0.2020 -0.0756
10376TIP3    H252620   0.815   4.981   6.877  0.0142 -0.0637 -0.1043
10377TIP3   OH252621   4.920   2.618  14.904 -0.4615  0.0266  0.5074
10377TIP3    H152622   4.989   2.631  14.969  0.6594 -0.5361 -0.5171
10377TIP3    H252623   4.873   2.702  14.902  1.2979  1.0724  0.0264
10378TIP3   OH252624   4.916   6.310   1.680 -0.0805  0.3729 -0.5799
10378TIP3    H152625   5.007   6.282   1.693 -0.3833 -0.5694 -0.3698
10378TIP3    H252626   4.890   6.268   1.598 -0.1705  1.0430 -0.8924
10379TIP3   OH252627   4.660   1.998   0.722 -0.0989 -0.2219 -0.2963
10379TIP3    H152628   4.595   2.068   0.718 -0.4444 -0.5678 -0.8410
10379TIP3    H252629   4.623   1.927   0.668 -0.7196 -1.6409  1.8737
10380TIP3   OH252630   2.998   2.829   3.704  0.1642 -0.7322 -0.2717
10380TIP3    H152631   2.910   2.861   3.686 -0.3453 -1.8995  0.0718
10380TIP3    H252632   2.991   2.785   3.789  1.2006 -0.3874  0.0093
10381TIP3   OH252633   1.042   2.920  14.295 -0.2609  0.2433  0.5404
10381TIP3    H152634   1.099   2.982  14.249 -0.3516  0.0969  0.2207
10381TIP3    H252635   1.027   2.851  14.231 -0.7882  0.2779  0.6266
10382TIP3   OH252636   1.077   5.844  15.774 -0.4833 -0.7538 -0.0796
10382TIP3    H152637   1.033   5.924  15.746  0.6916 -0.6071 -1.6423
10382TIP3    H252638   1.169   5.868  15.782 -0.2902 -1.6582  0.6475
10383TIP3   OH252639   3.253   5.777  14.759  0.2467  0.4230 -0.1987
10383TIP3    H152640   3.338   5.770  14.804 -0.7713  1.6200  2.0636
10383TIP3    H252641   3.197   5.713  14.804 -0.2565  0.1522 -1.1940
10384TIP3   OH252642   1.394   2.697   4.482 -0.4652  0.1093 -0.3153
10384TIP3    H152643   1.460   2.766   4.478 -0.7432  0.4485  0.7458
10384TIP3    H252644   1.357   2.694   4.393  0.4503  0.4165 -0.7154
10385TIP3   OH252645   6.155   0.165  13.754  0.0205 -0.0531 -0.0001
10385TIP3    H152646   6.190   0.206  13.833  1.7374 -0.1461 -0.6674
10385TIP3    H252647   6.208   0.201  13.683 -0.9352 -0.6073 -1.0180
10386TIP3   OH252648   2.552   1.274   3.878 -0.4855 -0.3523 -0.3296
10386TIP3    H152649   2.500   1.266   3.798 -0.2440 -1.6824 -0.3889
10386TIP3    H252650   2.521   1.354   3.919  1.1441  1.8096 -2.9818
10387TIP3   OH252651   0.338   2.764   5.325 -0.2655 -0.1674 -0.7771
10387TIP3    H152652   0.422   2.782   5.283 -0.3843 -0.3656 -1.1124
10387TIP3    H252653   0.338   2.669   5.338 -0.3422 -0.1396 -0.5682
10388TIP3   OH252654   0.249   1.961  11.630 -0.4466 -0.1624 -0.4246
10388TIP3    H152655   0.297   1.957  11.712  0.4966  0.7048 -0.9158
10388TIP3    H252656   0.157   1.970  11.656 -0.1724 -0.0497  0.5228
10389TIP3   OH252657   5.884   5.767  10.409 -0.6545 -0.1705 -0.0920
10389TIP3    H152658   5.812   5.749  10.349 -1.5807  0.5813  0.7471
10389TIP3    H252659   5.850   5.745  10.495  0.4467 -0.6745  0.2378
10390TIP3   OH252660   5.062   4.679   2.817  0.1345  0.6528 -0.1311
10390TIP3    H152661   5.145   4.638   2.792  0.7496  0.9748  1.3241
10390TIP3    H252662   5.076   4.710   2.906 -1.4871  0.9084  0.0615
10391TIP3   OH252663   0.309   2.569   2.304 -0.2015 -0.0942 -0.0658
10391TIP3    H152664   0.395   2.567   2.346 -0.4286  0.6511  0.4676
10391TIP3    H252665   0.263   2.492   2.336 -0.6360  0.8421  1.6739
10392TIP3   OH252666   5.403   5.449   0.676  0.3775 -0.3376 -0.0982
10392TIP3    H152667   5.372   5.531   0.638  0.4606  0.8492  2.2315
10392TIP3    H252668   5.443   5.403   0.603 -1.2472  0.8857 -1.8453
10393TIP3   OH252669   2.268   2.481  11.855 -0.0514  0.1443 -0.1888
10393TIP3    H152670   2.191   2.512  11.808  0.1807  0.9505 -0.0555
10393TIP3    H252671   2.281   2.391  11.825 -1.1554 -0.0689 -0.0668
10394TIP3   OH252672   0.391   0.789   2.053 -0.1393  0.3633 -0.1606
10394TIP3    H152673   0.448   0.712   2.047 -0.1031  0.4464 -0.9857
10394TIP3    H252674   0.325   0.765   2.117  0.8051  0.2533  0.8040
10395TIP3   OH252675   1.273   3.342  16.583 -0.0150 -0.6946 -0.4860
10395TIP3    H152676   1.262   3.363  16.676 -0.3855 -1.1081 -0.4298
10395TIP3    H252677   1.367   3.350  16.568  0.0615 -0.7079 -0.0512
10396TIP3   OH252678   3.920   0.745  16.538  0.1090  0.3844 -0.1741
10396TIP3    H152679   4.000   0.753  16.486 -0.8665  0.6162 -1.6891
10396TIP3    H252680   3.849   0.748  16.474 -1.0992 -0.4894  1.0731
10397TIP3   OH252681   3.096   1.459   1.935 -0.8804 -0.5511 -0.6205
10397TIP3    H152682   3.073   1.416   2.018  0.8596  1.0318  0.7514
10397TIP3    H252683   3.020   1.515   1.916 -0.6186  0.3970  0.8921
10398TIP3   OH252684   5.572   2.265  13.747  0.0511 -0.4884  0.3154
10398TIP3    H152685   5.568   2.229  13.658  0.2155  0.6519 -0.1751
10398TIP3    H252686   5.536   2.196  13.803 -0.1892 -1.1667 -0.6524
10399TIP3   OH252687   0.440   6.188  13.393  0.2755  0.0272  0.2905
10399TIP3    H152688   0.463   6.280  13.391 -0.3697  0.2395 -2.9197
10399TIP3    H252689   0.502   6.148  13.455  1.7157  2.2868  0.4010
10400TIP3   OH252690   3.984   3.387   5.681  0.4284  0.0256 -0.3985
10400TIP3    H152691   4.028   3.387   5.596  1.0341 -2.1612 -0.1427
10400TIP3    H252692   4.054   3.373   5.744  0.0751  2.2906  0.5828
10401TIP3   OH252693   3.881   0.924  13.412  0.1004 -0.3567  0.1110
10401TIP3    H152694   3.813   0.858  13.398  0.2854 -0.6190  0.4403
10401TIP3    H252695   3.870   0.986  13.339 -0.7796 -0.1489  0.4055
10402TIP3   OH252696   4.032   6.203   1.647  0.3992 -0.1267 -0.1821
10402TIP3    H152697   4.113   6.253   1.659  0.0468  0.1036  1.4531
10402TIP3    H252698   3.968   6.267   1.616  0.5378 -0.0519 -0.3127
10403TIP3   OH252699   2.812   3.579   4.994 -0.0510  0.0142 -0.1753
10403TIP3    H152700   2.720   3.584   5.019 -0.3005 -1.0264 -0.8210
10403TIP3    H252701   2.814   3.519   4.919  1.1639 -0.1044 -0.0816
10404TIP3   OH252702   6.063   4.546  16.605  0.2558 -0.2716  0.3579
10404TIP3    H152703   5.981   4.500  16.584  0.6930 -0.5853 -0.7718
10404TIP3    H252704   6.038   4.638  16.610 -0.1101 -0.3232 -0.3570
10405TIP3   OH252705   1.404   2.985   1.100  0.1163  0.1818 -0.0899
10405TIP3    H152706   1.332   2.956   1.045  0.9607 -1.0290 -0.5882
10405TIP3    H252707   1.436   2.906   1.143  0.8405  0.7718  0.4988
10406TIP3   OH252708   6.213   0.185   0.538  0.1354 -0.3054  0.2672
10406TIP3    H152709   6.154   0.110   0.528 -0.6616  0.2144  0.9127
10406TIP3    H252710   6.298   0.146   0.559 -0.2603 -1.0392  0.5573
10407TIP3   OH252711   5.483   1.231  11.335 -0.0990  0.2153  0.3175
10407TIP3    H152712   5.530   1.302  11.377  1.2330 -0.5965  0.2594
10407TIP3    H252713   5.480   1.255  11.242 -1.0129  0.9113  0.5175
10408TIP3   OH252714   6.088   1.749  13.228 -0.2168 -0.6122 -0.1451
10408TIP3    H152715   5.994   1.729  13.233 -0.3319 -0.7220 -2.0789
10408TIP3    H252716   6.116   1.754  13.320 -2.4620  1.1534  0.5481
10409TIP3   OH252717   0.188   2.830   0.245  0.2371  0.1292 -0.0172
10409TIP3    H152718   0.177   2.924   0.227 -0.6795  0.1966  0.7987
10409TIP3    H252719   0.283   2.819   0.254  0.2841  1.8058  3.6927
10410TIP3   OH252720   5.138   0.783   0.364 -0.0905 -0.3256  0.1622
10410TIP3    H152721   5.115   0.875   0.348 -0.6662 -0.6655 -1.0860
10410TIP3    H252722   5.155   0.747   0.277  0.9803 -1.1986  0.7039
10411TIP3   OH252723   6.057   4.461   2.950  0.3255  0.1314  0.3153
10411TIP3    H152724   6.037   4.459   2.856  0.8855  2.3997  0.0828
10411TIP3    H252725   6.150   4.487   2.954  0.4955 -0.5877  1.5020
10412TIP3   OH252726   3.201   0.119  14.606 -0.2171  0.1123  0.3309
10412TIP3    H152727   3.137   0.057  14.572 -0.6170 -0.1184  1.4405
10412TIP3    H252728   3.277   0.065  14.629  0.6782  0.4687 -1.5973
10413TIP3   OH252729   1.448   1.164   2.903 -0.2318 -0.5005 -0.1078
10413TIP3    H152730   1.409   1.241   2.862 -2.1907 -0.7168  1.2342
10413TIP3    H252731   1.540   1.167   2.876 -0.2655  2.2145 -0.2152
10414TIP3   OH252732   2.098   3.368  12.786 -0.4259 -0.0083 -0.0603
10414TIP3    H152733   2.192   3.360  12.801 -0.4647 -1.1260 -0.3172
10414TIP3    H252734   2.072   3.447  12.832  0.6327  0.2727  0.0599
10415TIP3   OH252735   2.540   4.824  10.836 -0.5172  0.2613 -0.2597
10415TIP3    H152736   2.579   4.911  10.830 -0.9562  0.4206 -1.0066
10415TIP3    H252737   2.547   4.789  10.747 -0.6602 -0.3264 -0.0433
10416TIP3   OH252738   3.603   1.401  13.622  0.3991  0.1393  0.4692
10416TIP3    H152739   3.530   1.428  13.677  0.3844 -0.5146  0.7849
10416TIP3    H252740   3.584   1.310  13.600 -0.1480  0.7048 -1.5311
10417TIP3   OH252741   5.826   5.526  15.083 -0.1896 -0.5036 -0.0526
10417TIP3    H152742   5.751   5.514  15.141 -0.8211  1.8158 -0.2744
10417TIP3    H252743   5.790   5.515  14.995 -1.2006  3.6831 -0.3867
10418TIP3   OH252744   3.076   5.955  11.439  0.0917 -0.4972 -0.2759
10418TIP3    H152745   2.987   5.989  11.437  0.2711  0.0083  0.0304
10418TIP3    H252746   3.115   5.995  11.517  0.4585 -1.0388 -0.1719
10419TIP3   OH252747   0.528   3.145   0.058  0.6439 -0.7296  0.2926
10419TIP3    H152748   0.568   3.089  -0.008  2.4423  1.1316 -0.3167
10419TIP3    H252749   0.590   3.145   0.131  0.0814 -0.4812  0.7832
10420TIP3   OH252750   2.828   5.807   6.863  0.1388  0.1183  0.1837
10420TIP3    H152751   2.915   5.766   6.866 -0.3977 -1.0621  0.1866
10420TIP3    H252752   2.768   5.738   6.890 -1.0245  0.2783 -1.7913
10421TIP3   OH252753   6.400   6.644  13.249  0.1881 -0.2417  0.7762
10421TIP3    H152754   6.452   6.723  13.254  1.3063 -0.9823  1.0944
10421TIP3    H252755   6.311   6.673  13.270  0.0676  1.3676 -1.5117
10422TIP3   OH252756   0.139   0.324  12.955  0.0406 -0.3590 -1.0244
10422TIP3    H152757   0.050   0.318  12.991  0.7388  1.4003  1.2107
10422TIP3    H252758   0.137   0.267  12.878 -2.3587 -2.1706  0.2338
10423TIP3   OH252759   5.617   0.453  11.733 -0.1372 -0.2797 -0.4207
10423TIP3    H152760   5.678   0.508  11.783  1.4215 -0.8533 -1.5982
10423TIP3    H252761   5.591   0.384  11.794 -0.1627  0.3681  0.3138
10424TIP3   OH252762   4.187   5.474   3.178 -0.1523  0.1871 -0.4045
10424TIP3    H152763   4.278   5.502   3.176 -0.3761  0.8977 -1.0246
10424TIP3    H252764   4.191   5.379   3.177  0.5765  0.2172 -0.8035
10425TIP3   OH252765   6.553   3.624   1.505  0.0352  0.6401 -0.2327
10425TIP3    H152766   6.560   3.670   1.421 -0.0089  1.0928  0.0047
10425TIP3    H252767   6.627   3.657   1.556 -0.3124  0.8593  0.1366
10426TIP3   OH252768   0.532   3.424  17.013  0.7738  0.4749 -0.3729
10426TIP3    H152769   0.623   3.452  17.027  1.0186 -0.1201 -0.7565
10426TIP3    H252770   0.527   3.407  16.919  0.5985 -0.6756 -0.1592
10427TIP3   OH252771   2.292   5.311   2.766 -0.2268  0.2756 -0.2869
10427TIP3    H152772   2.302   5.405   2.782 -0.5173  0.0992  1.0052
10427TIP3    H252773   2.350   5.270   2.830  0.8014 -0.4243 -1.6084
10428TIP3   OH252774   5.496   0.849  14.568  0.0529 -0.4899 -0.5314
10428TIP3    H152775   5.481   0.925  14.624  2.6293 -0.7087  0.6132
10428TIP3    H252776   5.577   0.869  14.520 -0.2761 -1.7119 -1.6772
10429TIP3   OH252777   0.352   5.480  15.665  0.2626 -0.0227 -0.3671
10429TIP3    H152778   0.385   5.452  15.579  0.1583 -0.0457 -0.3993
10429TIP3    H252779   0.302   5.559  15.647  1.9157  1.1378 -0.0687
10430TIP3   OH252780   5.788   4.428   5.079 -0.2966 -0.3675  0.1205
10430TIP3    H152781   5.739   4.498   5.123 -0.1221 -0.5466  0.6119
10430TIP3    H252782   5.792   4.455   4.988 -0.9146 -0.1277  0.1618
10431TIP3   OH252783   5.819   4.396  16.532  0.0184 -0.7759  0.5820
10431TIP3    H152784   5.752   4.464  16.536  0.8266  0.0564  0.5379
10431TIP3    H252785   5.796   4.343  16.456  0.7834  1.0336 -0.9879
10432TIP3   OH252786   2.006   5.057  16.065 -0.5770 -0.1727 -0.2380
10432TIP3    H152787   2.030   5.012  16.146  0.8301 -0.9787 -1.0539
10432TIP3    H252788   1.991   5.148  16.092 -1.1025 -0.6113  1.0611
10433TIP3   OH252789   4.374   6.251  11.747  0.2047  0.5863 -0.5509
10433TIP3    H152790   4.280   6.263  11.737  0.1065  1.3316  0.9583
10433TIP3    H252791   4.384   6.210  11.834  1.3744  3.0411  0.5627
10434TIP3   OH252792   3.799   3.074  15.035  0.0849 -0.3735 -0.7373
10434TIP3    H152793   3.791   2.984  15.068  0.7276 -0.5550 -1.0591
10434TIP3    H252794   3.822   3.063  14.943  2.4160  0.0843 -0.2801
10435TIP3   OH252795   1.317   1.969   6.099 -0.2140 -0.2419  0.1889
10435TIP3    H152796   1.277   2.040   6.149  1.1192 -0.6800  1.9907
10435TIP3    H252797   1.401   1.954   6.142 -0.4947 -2.9780 -0.0445
10436TIP3   OH252798   6.450   1.448   5.986  0.2974  0.5612 -0.3404
10436TIP3    H152799   6.367   1.496   5.981 -0.3467 -0.3206  1.2239
10436TIP3    H252800   6.435   1.369   5.936  0.3603  0.6283 -0.4653
10437TIP3   OH252801   4.334   2.972   0.491 -0.0099 -0.6337  0.8565
10437TIP3    H152802   4.341   3.068   0.497 -0.4697 -0.5288 -0.2255
10437TIP3    H252803   4.419   2.941   0.524  1.3003  0.2593 -1.4308
10438TIP3   OH252804   3.320   4.318   3.114  0.0244  0.1193 -0.0291
10438TIP3    H152805   3.332   4.223   3.114 -0.1276  0.0962 -0.3937
10438TIP3    H252806   3.374   4.349   3.040 -1.3351  0.1192 -1.0737
10439TIP3   OH252807   3.451   1.208   5.983  0.4453  0.5693  0.1090
10439TIP3    H152808   3.532   1.259   5.983  1.6255 -1.1002 -2.7833
10439TIP3    H252809   3.464   1.141   6.050  2.3163 -0.7974 -1.5215
10440TIP3   OH252810   3.227   2.943  12.597  0.4627  0.0723  0.7462
10440TIP3    H152811   3.150   2.988  12.632  0.2052 -0.5239  0.9545
10440TIP3    H252812   3.192   2.875  12.540  0.8705  0.6681 -0.2359
10441TIP3   OH252813   0.832   4.187  17.049 -0.0504  0.2459  0.2175
10441TIP3    H152814   0.920   4.162  17.078  0.6536  2.2859 -0.0188
10441TIP3    H252815   0.777   4.173  17.126  0.4391 -1.0825  0.3625
10442TIP3   OH252816   6.684   4.123  12.869  0.0641  0.5901 -0.3832
10442TIP3    H152817   6.624   4.112  12.942 -0.3869  1.9960 -0.5187
10442TIP3    H252818   6.762   4.072  12.893 -0.2613  0.6573  0.8498
10443TIP3   OH252819   3.521   1.489   5.101  0.6932  0.4559 -0.1127
10443TIP3    H152820   3.506   1.435   5.179  0.6651  2.4469  1.3151
10443TIP3    H252821   3.438   1.487   5.053  1.1957 -2.1475 -1.0774
10444TIP3   OH252822   2.913   0.325   4.579 -0.2490  0.0525  0.4099
10444TIP3    H152823   2.993   0.376   4.592 -0.7193  0.7522  0.6317
10444TIP3    H252824   2.895   0.332   4.485  0.9764 -1.7061 -0.0162
10445TIP3   OH252825   3.874   0.442  16.034 -0.7912  0.5652  0.5671
10445TIP3    H152826   3.890   0.505  16.105  1.8716  2.0104 -1.1830
10445TIP3    H252827   3.954   0.390  16.029 -0.9615  0.4128 -1.3012
10446TIP3   OH252828   4.515   5.962  13.221 -0.1806  0.7467  0.1667
10446TIP3    H152829   4.428   5.967  13.262  0.8236 -0.4385  2.6259
10446TIP3    H252830   4.521   5.871  13.191  0.2587  0.8053  0.0757
10447TIP3   OH252831   2.124   2.872   5.378  0.5483 -0.2238 -0.6358
10447TIP3    H152832   2.159   2.809   5.441  1.2883  0.1797 -0.6343
10447TIP3    H252833   2.030   2.853   5.375  0.0296  1.2334  2.3635
10448TIP3   OH252834   0.269   1.615   0.506  0.6333 -0.0647  0.1783
10448TIP3    H152835   0.199   1.551   0.500  1.8234 -1.2683 -2.0508
10448TIP3    H252836   0.231   1.696   0.472  0.2366 -0.6537 -0.8190
10449TIP3   OH252837   0.765   2.525  12.889 -0.0983  0.6286  0.2676
10449TIP3    H152838   0.726   2.612  12.895  0.8178  1.0359  0.6447
10449TIP3    H252839   0.859   2.541  12.894  0.2208 -0.2045 -1.9338
10450TIP3   OH252840   5.411   1.887  14.122  0.0877 -0.3161  0.3536
10450TIP3    H152841   5.342   1.944  14.157 -0.5104 -1.1661  0.5760
10450TIP3    H252842   5.467   1.868  14.198  1.0700  1.0384  0.0124
10451TIP3   OH252843   5.928   4.436   3.465 -0.6100 -0.3372  0.4204
10451TIP3    H152844   5.859   4.490   3.504 -0.2694 -0.0756  0.6738
10451TIP3    H252845   5.939   4.472   3.377  0.0502  0.4363  0.7999
10452TIP3   OH252846   4.457   2.213   1.235  0.2391 -0.0297 -0.7086
10452TIP3    H152847   4.479   2.120   1.231  2.1758  0.3498 -0.2106
10452TIP3    H252848   4.529   2.257   1.189 -1.0139  1.1846 -1.5786
10453TIP3   OH252849   2.268   4.790  10.606 -0.0855 -0.1051  0.6100
10453TIP3    H152850   2.211   4.867  10.609 -0.1786 -0.1676  0.4549
10453TIP3    H252851   2.212   4.720  10.574  0.5063  0.2183 -1.2129
10454TIP3   OH252852   3.421   4.401  16.576 -0.1003 -0.8820 -0.4790
10454TIP3    H152853   3.426   4.494  16.554  1.5714 -1.3402 -2.3450
10454TIP3    H252854   3.333   4.374  16.551 -0.2888 -0.0026 -0.7791
10455TIP3   OH252855   0.088   1.452   3.152 -0.6309 -0.3965 -0.0687
10455TIP3    H152856   0.053   1.365   3.130  0.6845 -0.6605 -1.2424
10455TIP3    H252857   0.149   1.436   3.223 -0.9767 -0.2964  0.2581
10456TIP3   OH252858   0.549   4.415   6.074 -0.9909  0.3207 -0.4694
10456TIP3    H152859   0.507   4.330   6.058 -0.7117 -0.1661  1.2341
10456TIP3    H252860   0.485   4.464   6.126 -0.3260  0.3670  0.3252
10457TIP3   OH252861   6.449   4.018  16.119 -0.3082 -0.1827 -0.0852
10457TIP3    H152862   6.505   4.069  16.060 -1.3040 -0.0967 -0.9924
10457TIP3    H252863   6.509   3.962  16.167  0.4684 -0.9960 -1.9277
10458TIP3   OH252864   0.903   5.189  14.030 -0.4179  0.1015  0.3685
10458TIP3    H152865   0.982   5.229  13.993  0.0442 -0.7382  0.4196
10458TIP3    H252866   0.877   5.248  14.101 -0.9756  1.4199 -0.8883
10459TIP3   OH252867   5.710   2.666   4.298  0.7270 -0.0329  0.2846
10459TIP3    H152868   5.771   2.657   4.225  1.2117  0.6963  0.5870
10459TIP3    H252869   5.700   2.576   4.331  1.4281 -0.2087  0.0507
10460TIP3   OH252870   6.285   2.682  15.591  0.1490  0.4920  0.1078
10460TIP3    H152871   6.231   2.615  15.634 -0.2465  1.4142  1.1271
10460TIP3    H252872   6.355   2.700  15.654  2.2834 -1.3403 -1.5766
10461TIP3   OH252873   6.581   3.849   6.562  0.0992 -0.4132  0.6520
10461TIP3    H152874   6.509   3.802   6.602 -1.2821  0.9629 -0.1098
10461TIP3    H252875   6.603   3.798   6.484  0.9161 -1.5805  1.6150
10462TIP3   OH252876   4.393   6.577   0.857 -0.1411 -0.2073  0.1275
10462TIP3    H152877   4.308   6.614   0.884 -0.4108 -1.3811  0.9990
10462TIP3    H252878   4.430   6.542   0.939  0.2756 -1.4690 -0.5771
10463TIP3   OH252879   4.067   3.105   1.156 -0.1456 -0.1735 -0.2150
10463TIP3    H152880   4.067   3.117   1.251  0.6362 -0.1638 -0.2102
10463TIP3    H252881   4.155   3.132   1.129 -0.1456 -0.8121 -0.8623
10464TIP3   OH252882   1.642   5.509   6.110  0.3238  0.5769 -0.2000
10464TIP3    H152883   1.611   5.582   6.164  1.3030  0.3458  0.6928
10464TIP3    H252884   1.733   5.530   6.091  0.8040 -0.6824  0.5812
10465TIP3   OH252885   0.856   5.567   4.892 -0.0124  0.1988 -0.0373
10465TIP3    H152886   0.842   5.492   4.950  0.0868 -0.6589 -1.0954
10465TIP3    H252887   0.768   5.594   4.865 -0.2127  1.8568  1.9967
10466TIP3   OH252888   6.068   2.484  14.504 -0.0160  0.3126  0.0444
10466TIP3    H152889   6.038   2.559  14.453  0.8769  0.0789 -0.8506
10466TIP3    H252890   6.160   2.473  14.479 -0.3218 -1.5000 -0.3634
10467TIP3   OH252891   6.786   3.299  16.451  0.2702 -0.4199 -0.2332
10467TIP3    H152892   6.728   3.367  16.415 -0.6568 -0.8718  0.3838
10467TIP3    H252893   6.736   3.260  16.522  0.6159 -2.0698 -0.8592
10468TIP3   OH252894   1.556   5.493   2.694 -0.8786  0.1052 -0.0189
10468TIP3    H152895   1.502   5.546   2.636  1.7278  0.7696 -2.0052
10468TIP3    H252896   1.530   5.403   2.675 -0.9059  0.3773 -1.3413
10469TIP3   OH252897   0.459   4.474  15.775  0.6164  0.0203 -0.2842
10469TIP3    H152898   0.385   4.496  15.718  0.0122 -0.8971  0.1258
10469TIP3    H252899   0.534   4.516  15.733  0.0653 -0.0063 -1.3485
10470TIP3   OH252900   5.275   5.057   5.200  0.3661  0.1236 -0.1935
10470TIP3    H152901   5.187   5.081   5.229 -0.5902 -1.3986 -1.6803
10470TIP3    H252902   5.305   4.992   5.263  1.0082  1.5548  1.0539
10471TIP3   OH252903   6.137   0.850   2.440 -0.2091  0.6060 -0.7633
10471TIP3    H152904   6.047   0.837   2.471 -0.0748  1.1597 -0.1140
10471TIP3    H252905   6.182   0.890   2.514  1.2688 -2.0544 -0.0862
10472TIP3   OH252906   1.866   1.000  15.540 -0.0909  0.1766  0.1273
10472TIP3    H152907   1.939   0.968  15.487  0.5522  0.0511  1.0654
10472TIP3    H252908   1.789   0.988  15.484  0.3712 -1.3165 -0.2454
10473TIP3   OH252909   4.190   3.398   4.637 -0.2565  0.0230  0.0082
10473TIP3    H152910   4.194   3.460   4.710  0.3660 -0.7849  0.6776
10473TIP3    H252911   4.115   3.428   4.585  0.1324  1.4375  0.2044
10474TIP3   OH252912   2.004   4.361  16.591  0.0752  0.3205  0.0419
10474TIP3    H152913   2.032   4.283  16.638  1.5435  0.6708 -0.2002
10474TIP3    H252914   2.059   4.364  16.513 -0.1637  1.4301 -0.1088
10475TIP3   OH252915   1.905   2.182   6.346  0.1100  0.3110  0.0990
10475TIP3    H152916   1.949   2.174   6.431 -0.1405 -2.6615  0.0465
10475TIP3    H252917   1.839   2.113   6.347 -0.3396  0.6424 -2.2897
10476TIP3   OH252918   0.665   5.313  15.151  0.5356 -0.4789 -0.0148
10476TIP3    H152919   0.602   5.245  15.129  0.9435 -0.5530 -0.9812
10476TIP3    H252920   0.658   5.377  15.080  0.7656  0.0634  0.4412
10477TIP3   OH252921   5.701   1.414   3.987  0.2298  0.2880  0.4922
10477TIP3    H152922   5.682   1.442   4.076 -0.0402  0.1738  0.4697
10477TIP3    H252923   5.793   1.438   3.974 -0.1081  1.5828  0.3225
10478TIP3   OH252924   2.261   2.909  12.701  0.4228  0.1678  0.0375
10478TIP3    H152925   2.251   2.884  12.609 -2.9864 -1.8775  0.7891
10478TIP3    H252926   2.196   2.978  12.715 -0.9459 -1.2805  1.3522
10479TIP3   OH252927   4.727   1.294   5.557  0.5897 -0.9119 -0.1443
10479TIP3    H152928   4.686   1.210   5.582 -0.8796 -0.4506 -0.8798
10479TIP3    H252929   4.687   1.315   5.473 -2.3073  2.5718  1.8491
10480TIP3   OH252930   2.284   5.760  15.741  0.4555  0.1630 -0.6434
10480TIP3    H152931   2.329   5.813  15.674  2.5306 -1.6620 -0.8339
10480TIP3    H252932   2.239   5.692  15.691 -0.3831  0.4644 -0.3042
10481TIP3   OH252933   2.242   2.285   1.823 -0.6069 -0.1782  0.4099
10481TIP3    H152934   2.213   2.211   1.770 -0.0413 -1.0799  1.3221
10481TIP3    H252935   2.285   2.344   1.760  1.1112 -1.7620 -0.0191
10482TIP3   OH252936   6.128   0.949  16.734  0.3654  0.1890 -0.0415
10482TIP3    H152937   6.074   1.009  16.683 -1.5802  1.1459  2.8624
10482TIP3    H252938   6.067   0.904  16.792  2.1544 -2.4704 -0.0223
10483TIP3   OH252939   6.686   6.094   3.803 -0.0818 -0.2107  0.2250
10483TIP3    H152940   6.669   6.187   3.820  0.8707 -0.0369  0.2825
10483TIP3    H252941   6.714   6.060   3.888  0.5455 -0.3108 -0.0135
10484TIP3   OH252942   1.591   6.394   5.563 -0.3799  0.2317 -0.9475
10484TIP3    H152943   1.649   6.415   5.636  0.1439  0.1644 -1.3371
10484TIP3    H252944   1.513   6.357   5.604 -1.3829  2.9156 -0.2041
10485TIP3   OH252945   2.299   5.828   3.973 -0.2597  0.2543 -1.2757
10485TIP3    H152946   2.265   5.915   3.950 -1.0751  0.3059  0.0532
10485TIP3    H252947   2.394   5.837   3.967 -0.2656  1.6518  0.2437
10486TIP3   OH252948   5.701   6.648   6.392  0.2428 -0.0248  0.3274
10486TIP3    H152949   5.752   6.604   6.324 -2.4375  0.9180 -2.5257
10486TIP3    H252950   5.723   6.741   6.384 -0.6117  0.1819  0.2183
10487TIP3   OH252951   4.313   6.476   5.168  0.9682 -0.2984  0.2112
10487TIP3    H152952   4.279   6.555   5.211 -0.3362 -1.6707  1.8300
10487TIP3    H252953   4.339   6.506   5.081 -1.8655  1.4629 -0.1817
10488TIP3   OH252954   3.089   5.138  11.386 -0.3666  0.5062  0.0302
10488TIP3    H152955   3.049   5.144  11.299 -1.0673  4.7051  0.4386
10488TIP3    H252956   3.173   5.093  11.371 -0.8044  0.4337 -2.6652
10489TIP3   OH252957   4.185   2.339  16.205  0.3964 -0.0988 -0.3370
10489TIP3    H152958   4.114   2.290  16.247  2.1514 -0.3745  2.5525
10489TIP3    H252959   4.140   2.396  16.142 -2.4392 -0.1492  1.4501
10490TIP3   OH252960   1.757   3.862  14.637  0.0990 -0.0716  0.1158
10490TIP3    H152961   1.724   3.772  14.625 -1.1046  0.2385  0.9057
10490TIP3    H252962   1.695   3.917  14.590  0.4911  0.4021  0.1414
10491TIP3   OH252963   4.153   2.096  13.282 -0.5200 -0.5078 -0.1821
10491TIP3    H152964   4.169   2.172  13.337 -3.7011 -1.2934  2.1308
10491TIP3    H252965   4.153   2.130  13.192  0.6684  1.6535  0.5662
10492TIP3   OH252966   0.848   1.878   1.138  0.7727 -0.1902 -0.1465
10492TIP3    H152967   0.765   1.855   1.096  0.9940 -0.3653 -0.4854
10492TIP3    H252968   0.837   1.970   1.164  0.0697 -0.5204  0.7766
10493TIP3   OH252969   2.881   3.383  13.197  0.1299  0.9047  0.0295
10493TIP3    H152970   2.835   3.375  13.113 -1.0905 -0.2947  0.7640
10493TIP3    H252971   2.897   3.477  13.207  1.0480  1.0011 -1.9044
10494TIP3   OH252972   6.469   2.078   1.872 -0.6551 -0.6792 -0.1101
10494TIP3    H152973   6.563   2.065   1.861 -0.7742 -0.4198 -1.5375
10494TIP3    H252974   6.447   2.028   1.951  1.2076  1.6854  2.0889
10495TIP3   OH252975   6.203   6.507  12.279  0.1487  0.5920  0.0605
10495TIP3    H152976   6.291   6.484  12.249  0.3785  1.1030  0.3356
10495TIP3    H252977   6.164   6.423  12.304  0.9720  0.4694  1.0251
10496TIP3   OH252978   0.436   5.424  13.881 -0.2003 -0.0164  0.0535
10496TIP3    H152979   0.459   5.434  13.789 -0.1670  0.3526  0.1015
10496TIP3    H252980   0.453   5.510  13.920 -1.0142  0.0676  0.2286
10497TIP3   OH252981   4.886   3.408  14.899 -0.1123  0.2313 -0.4722
10497TIP3    H152982   4.791   3.399  14.902 -0.3297  1.8322 -1.4666
10497TIP3    H252983   4.910   3.381  14.810  0.2554  0.6731 -0.5096
10498TIP3   OH252984   2.556   1.394   4.805 -0.0846 -0.6682 -0.8168
10498TIP3    H152985   2.646   1.374   4.832 -0.7153 -1.2401  1.0055
10498TIP3    H252986   2.517   1.309   4.786 -0.3736 -0.4640 -1.1495
10499TIP3   OH252987   0.247   4.709   1.337 -0.0200  0.2880 -0.1059
10499TIP3    H152988   0.173   4.708   1.398  0.5121 -1.1275  0.5368
10499TIP3    H252989   0.242   4.625   1.292  0.4917  0.6973 -0.9552
10500TIP3   OH252990   5.090   5.713   0.180  0.0989  0.2307 -0.1077
10500TIP3    H152991   5.041   5.795   0.169  0.6787  0.5506 -0.3465
10500TIP3    H252992   5.022   5.646   0.189 -0.4142  0.8818  1.2799
10501TIP3   OH252993   3.560   6.530   0.587  0.5541  0.1506 -0.1742
10501TIP3    H152994   3.479   6.490   0.558  0.4673  0.1390  0.0822
10501TIP3    H252995   3.601   6.563   0.507  0.0301  0.6516 -0.2363
10502TIP3   OH252996   0.858   5.706  13.022  0.2394 -0.1916  0.3420
10502TIP3    H152997   0.773   5.720  12.979 -0.1476 -0.8562  0.8795
10502TIP3    H252998   0.857   5.767  13.095  0.2843 -0.1026  0.2690
10503TIP3   OH252999   1.327   3.269   0.160 -0.1307 -0.1586  0.3503
10503TIP3    H153000   1.388   3.331   0.201  1.7209 -1.5157 -0.1917
10503TIP3    H253001   1.315   3.201   0.226 -0.4167 -0.3078  0.1463
10504TIP3   OH253002   5.379   1.767   0.009  0.4186  0.2122 -0.2155
10504TIP3    H153003   5.333   1.722  -0.062  2.4403 -0.2219 -1.3404
10504TIP3    H253004   5.472   1.752  -0.009  1.1654  3.4670  0.2742
10505TIP3   OH253005   6.427   0.961   5.419 -0.3004  0.6209 -0.1327
10505TIP3    H153006   6.487   0.892   5.446  0.5860  0.5583 -2.0596
10505TIP3    H253007   6.418   1.017   5.496  0.2831 -0.7054  0.9442
10506TIP3   OH253008   6.693   6.473   3.175 -0.0098 -0.0748  0.1526
10506TIP3    H153009   6.663   6.431   3.256 -0.7957 -0.6524 -0.4300
10506TIP3    H253010   6.728   6.557   3.204 -1.3514  0.2382  0.9667
10507TIP3   OH253011   1.931   5.630   3.106 -0.0234 -0.6046  0.0839
10507TIP3    H153012   1.950   5.579   3.026 -2.5978 -0.5924 -0.6437
10507TIP3    H253013   1.835   5.635   3.108  0.0632  3.0484  0.8925
10508TIP3   OH253014   4.872   1.658  17.161  0.1400 -0.3645 -0.2110
10508TIP3    H153015   4.916   1.574  17.175  0.4144  0.1472  2.8963
10508TIP3    H253016   4.788   1.649  17.206 -0.5916  0.4591 -1.3773
10509TIP3   OH253017   5.987   4.844  13.171  1.3033 -0.6282  0.0486
10509TIP3    H153018   5.951   4.793  13.099  1.7562 -2.0026  0.7530
10509TIP3    H253019   5.912   4.863  13.228  1.2653 -1.2382  0.2035
10510TIP3   OH253020   0.144   6.339  15.322 -0.0026  0.5555  0.0483
10510TIP3    H153021   0.147   6.257  15.273  1.2392  0.3113  0.4887
10510TIP3    H253022   0.051   6.360  15.327 -0.6933 -2.2963  2.3103
10511TIP3   OH253023   5.215   0.123  11.761  0.2990  0.3553 -0.3590
10511TIP3    H153024   5.121   0.120  11.739  0.2143  0.6338 -0.0485
10511TIP3    H253025   5.252   0.183  11.696  0.6293 -1.2803 -1.7371
10512TIP3   OH253026   6.139   1.425  10.946 -0.3526 -0.1174  0.1083
10512TIP3    H153027   6.154   1.335  10.917  0.2024  0.1082 -0.3304
10512TIP3    H253028   6.044   1.435  10.946 -0.3930 -0.4468 -0.6624
10513TIP3   OH253029   1.893   3.292   6.310 -0.0045  0.5620 -0.8117
10513TIP3    H153030   1.979   3.250   6.302  0.2664  0.7985  0.5879
10513TIP3    H253031   1.913   3.386   6.307 -0.1784  0.6194 -0.2604
10514TIP3   OH253032   3.274   6.300   0.801  0.0347  0.1264  0.0934
10514TIP3    H153033   3.205   6.234   0.803 -0.8429  0.8959 -1.7664
10514TIP3    H253034   3.251   6.362   0.869 -1.1758  0.4027 -0.5448
10515TIP3   OH253035   3.768   3.475  17.317 -0.5875 -0.1656  0.0417
10515TIP3    H153036   3.773   3.392  17.268 -1.4619 -0.1252 -0.1478
10515TIP3    H253037   3.845   3.475  17.373  0.5505 -0.1422 -1.4574
10516TIP3   OH253038   3.142   4.107   0.417 -0.2516  0.2092 -0.2697
10516TIP3    H153039   3.113   4.197   0.406  0.0634  0.1102 -2.3455
10516TIP3    H253040   3.163   4.078   0.328  0.7042 -1.5572  0.4895
10517TIP3   OH253041   3.415   5.470  14.386  0.8980 -0.6687  0.3437
10517TIP3    H153042   3.375   5.397  14.434 -0.1826 -1.2879 -1.4386
10517TIP3    H253043   3.347   5.537  14.382  0.9934 -0.6034 -0.2729
10518TIP3   OH253044   5.953   6.575  11.766  0.2926 -0.0820  0.2848
10518TIP3    H153045   5.862   6.551  11.780  0.1364  0.1192 -0.3751
10518TIP3    H253046   5.958   6.668  11.787  0.4039 -0.1493  0.5670
10519TIP3   OH253047   5.766   4.062   5.741  0.1853 -0.2328  0.5257
10519TIP3    H153048   5.719   4.136   5.778  1.3496  0.1737  1.2548
10519TIP3    H253049   5.710   4.030   5.670  0.4316  2.3971 -0.9506
10520TIP3   OH253050   1.289   1.770  16.333  0.1994  0.1363  0.0727
10520TIP3    H153051   1.299   1.730  16.419  1.9101 -2.4505 -1.2308
10520TIP3    H253052   1.194   1.780  16.322 -0.1873 -1.9345  1.2093
10521TIP3   OH253053   2.800   4.444  13.323 -0.1993  0.0028  0.1456
10521TIP3    H153054   2.822   4.402  13.240 -0.3016  1.7036 -0.7744
10521TIP3    H253055   2.756   4.375  13.373  0.3186 -1.2068 -0.9895
10522TIP3   OH253056   6.201   1.258   3.247 -0.3678  0.1885  0.5239
10522TIP3    H153057   6.186   1.164   3.241  0.7191  0.0874 -2.3048
10522TIP3    H253058   6.266   1.267   3.317 -1.6901 -0.9223  1.9722
10523TIP3   OH253059   4.723   3.555   4.462 -0.5631  0.0721 -1.5304
10523TIP3    H153060   4.779   3.481   4.440  1.3762  1.3407 -1.0577
10523TIP3    H253061   4.635   3.528   4.434  0.1623 -2.1973 -1.7617
10524TIP3   OH253062   5.415   3.822   3.362  0.6481  0.1081  0.3433
10524TIP3    H153063   5.344   3.875   3.397  1.6966  0.3155  2.2927
10524TIP3    H253064   5.412   3.837   3.267 -1.2258  0.8994  0.4833
10525TIP3   OH253065   0.363   6.027  17.312  0.4500  0.0129  0.2568
10525TIP3    H153066   0.448   5.991  17.288 -0.4239 -1.2511 -1.0692
10525TIP3    H253067   0.350   6.101  17.253  0.7719  0.4262  0.6984
10526TIP3   OH253068   4.910   1.891   0.717 -0.2368  0.1613  0.7637
10526TIP3    H153069   4.822   1.923   0.736 -0.0234  2.7372 -1.9514
10526TIP3    H253070   4.901   1.843   0.635  0.8427  0.0723  0.6855
10527TIP3   OH253071   3.792   4.727   0.832 -0.1510 -0.2570  0.4543
10527TIP3    H153072   3.800   4.632   0.836 -1.6036 -0.3741  2.0419
10527TIP3    H253073   3.858   4.759   0.893  0.8362 -0.1682 -0.6198
10528TIP3   OH253074   3.162   4.977  12.317 -0.2713  0.1828  0.3450
10528TIP3    H153075   3.130   5.067  12.323  0.3378  0.4203  0.1492
10528TIP3    H253076   3.202   4.972  12.230 -2.1185 -0.8975 -0.5050
10529TIP3   OH253077   5.112   4.740   1.181 -0.3105  0.7249  0.1562
10529TIP3    H153078   5.134   4.832   1.197 -0.1699  0.8500 -0.7143
10529TIP3    H253079   5.104   4.702   1.269 -0.2534  1.5363  0.5247
10530TIP3   OH253080   0.741   1.831  14.232 -0.2524  0.6869 -0.1199
10530TIP3    H153081   0.668   1.769  14.230 -0.4076  0.8792 -0.8257
10530TIP3    H253082   0.815   1.783  14.196 -0.2124  0.7168 -0.0779
10531TIP3   OH253083   2.228   4.539   5.994  0.3324 -0.5555 -0.3192
10531TIP3    H153084   2.231   4.593   5.915  0.3142 -0.3001 -0.1460
10531TIP3    H253085   2.319   4.512   6.007  0.1318 -1.7940 -1.2386
10532TIP3   OH253086   5.057   4.604   2.414 -0.1996  0.2516  0.4145
10532TIP3    H153087   5.080   4.527   2.467  1.4317  0.6425  0.3232
10532TIP3    H253088   5.069   4.575   2.324  0.6370  0.6531  0.3852
10533TIP3   OH253089   4.827   5.821  11.336 -0.3755 -0.2249 -0.2400
10533TIP3    H153090   4.900   5.879  11.359 -0.1633 -0.2359 -0.8661
10533TIP3    H253091   4.868   5.751  11.285 -0.8833  0.0167 -0.9983
10534TIP3   OH253092   1.567   2.484  11.147  0.0305 -0.1327  0.2179
10534TIP3    H153093   1.606   2.445  11.069  1.3498  0.3034  0.6325
10534TIP3    H253094   1.573   2.578  11.133 -0.0158 -0.0541  0.7120
10535TIP3   OH253095   6.809   6.353  13.585  0.0797  0.0468  0.1385
10535TIP3    H153096   6.760   6.370  13.505 -1.0643  1.0747  1.0196
10535TIP3    H253097   6.870   6.426  13.592  0.9735 -0.6196 -0.3365
10536TIP3   OH253098   3.904   0.009  13.115  0.1425 -0.2323  0.1047
10536TIP3    H153099   3.913  -0.067  13.174  0.8634  0.4269  0.8673
10536TIP3    H253100   3.970   0.071  13.145  0.8796 -0.0725 -1.7559
10537TIP3   OH253101   5.342   6.412   3.226  0.2940 -0.1951  0.1848
10537TIP3    H153102   5.389   6.381   3.303  2.2703  1.2475 -0.3773
10537TIP3    H253103   5.382   6.364   3.153  0.4997  0.5974 -0.2375
10538TIP3   OH253104   1.590   4.325   4.984 -0.4500 -0.5804  0.0607
10538TIP3    H153105   1.640   4.309   4.904 -0.7356 -1.0568 -0.0255
10538TIP3    H253106   1.541   4.244   4.998  0.8092 -1.1232  1.6028
10539TIP3   OH253107   6.156   0.287   1.068 -0.1071 -0.2120 -0.3130
10539TIP3    H153108   6.170   0.377   1.097  1.1550 -0.1470 -1.0471
10539TIP3    H253109   6.115   0.243   1.143  1.4851  0.3646  0.9402
10540TIP3   OH253110   4.706   0.890  11.844 -0.1589 -0.1369 -0.4344
10540TIP3    H153111   4.621   0.892  11.801 -0.2879 -0.2171 -0.1828
10540TIP3    H253112   4.751   0.814  11.806 -0.7735 -1.0029  0.5223
10541TIP3   OH253113   5.845   4.119  14.021  0.7586 -0.1200 -0.6877
10541TIP3    H153114   5.928   4.081  14.052  1.1502  1.6868  0.6451
10541TIP3    H253115   5.838   4.202  14.069 -1.8166 -0.2055 -0.8216
10542TIP3   OH253116   6.464   3.607  14.442 -0.6004  0.0362  0.3319
10542TIP3    H153117   6.453   3.702  14.445  0.2990  0.1187  2.0883
10542TIP3    H253118   6.525   3.592  14.369  1.3129  1.0750  1.6300
10543TIP3   OH253119   1.828   6.571  11.073 -0.1516 -0.5338  0.2842
10543TIP3    H153120   1.812   6.487  11.030 -2.1878 -0.1398  0.1667
10543TIP3    H253121   1.907   6.605  11.031 -0.9315 -1.0898 -1.7050
10544TIP3   OH253122   5.826   2.231   6.478 -0.2518 -0.3457 -0.8902
10544TIP3    H153123   5.739   2.234   6.437  0.5028 -0.6929 -2.6466
10544TIP3    H253124   5.871   2.159   6.432 -0.2221 -2.7751  2.5792
10545TIP3   OH253125   5.794   5.687  16.394  0.1851 -0.0522  0.1945
10545TIP3    H153126   5.848   5.630  16.449  0.6467 -0.7726 -0.9743
10545TIP3    H253127   5.816   5.662  16.305 -0.0684  1.5432 -0.3440
10546TIP3   OH253128   6.561   5.001  11.860  0.5342 -0.0146  0.3226
10546TIP3    H153129   6.483   4.959  11.823 -0.1154  0.8334  0.7129
10546TIP3    H253130   6.527   5.073  11.913  1.5732  0.2028  0.7121
10547TIP3   OH253131   5.131   6.332   6.685  0.0074  0.0877  0.4545
10547TIP3    H153132   5.114   6.252   6.735 -0.3321 -0.2716 -0.2228
10547TIP3    H253133   5.220   6.358   6.711  0.4196 -0.9402  0.1068
10548TIP3   OH253134   2.792   2.261  13.246  0.0822 -0.3989  0.1200
10548TIP3    H153135   2.837   2.329  13.296  0.1231 -0.9141  0.8026
10548TIP3    H253136   2.863   2.205  13.212  0.0086 -0.6595  0.3893
10549TIP3   OH253137   2.481   3.146  13.148  0.4870  0.2764 -0.2999
10549TIP3    H153138   2.513   3.067  13.103  1.5789 -0.2699  1.3438
10549TIP3    H253139   2.455   3.115  13.235  1.6339  1.8429  0.6456
10550TIP3   OH253140   5.255   6.501  15.174 -0.1097  0.6195  0.4505
10550TIP3    H153141   5.339   6.457  15.187 -0.0993  0.4396 -0.1808
10550TIP3    H253142   5.209   6.446  15.110 -1.1007  0.1863  1.5046
10551TIP3   OH253143   2.568   0.812  13.907 -0.2187 -0.1284  0.7046
10551TIP3    H153144   2.643   0.770  13.865  0.9181  1.6485  0.8179
10551TIP3    H253145   2.505   0.826  13.836  0.8318  1.0098 -0.0523
10552TIP3   OH253146   6.352   1.992  14.764 -0.3169  0.1491 -0.4561
10552TIP3    H153147   6.340   2.016  14.856  0.7615 -1.2263  0.0866
10552TIP3    H253148   6.263   1.980  14.731 -0.7060 -0.1281  0.6462
10553TIP3   OH253149   2.661   2.949  13.893  0.1351 -0.3405 -0.3595
10553TIP3    H153150   2.636   2.857  13.904  0.1024 -0.1422  1.6372
10553TIP3    H253151   2.577   2.996  13.888  0.0699 -0.1649  1.5608
10554TIP3   OH253152   4.011   0.184   2.135  0.1570  0.2845 -0.5233
10554TIP3    H153153   4.023   0.215   2.225 -0.5078  0.6006 -0.5375
10554TIP3    H253154   3.990   0.264   2.086  1.4521  0.2732 -1.1512
10555TIP3   OH253155   5.619   1.622  16.759 -0.3031 -0.1908 -0.5843
10555TIP3    H153156   5.533   1.664  16.761  0.4941  1.5078 -0.5875
10555TIP3    H253157   5.661   1.649  16.841  0.4846 -0.4214 -0.9018
10556TIP3   OH253158   0.960   2.107  12.489  0.0345  0.6173  0.7021
10556TIP3    H153159   0.980   2.147  12.404  0.6762 -0.2772  0.4185
10556TIP3    H253160   1.000   2.165  12.553 -0.1398  1.1069  0.3747
10557TIP3   OH253161   6.359   2.121   1.615 -0.3261 -0.3008  0.6448
10557TIP3    H153162   6.377   2.108   1.708  2.1314 -0.8483  0.1754
10557TIP3    H253163   6.436   2.169   1.582 -1.8035  1.2050 -0.8471
10558TIP3   OH253164   5.290   2.296   4.581  0.6889 -0.6511  0.1515
10558TIP3    H153165   5.306   2.292   4.487  0.5864 -1.6138  0.1684
10558TIP3    H253166   5.353   2.361   4.613  3.1653 -2.7463 -0.0922
10559TIP3   OH253167   4.719   0.442  16.121 -0.4532 -0.2696 -0.3675
10559TIP3    H153168   4.637   0.401  16.149  0.5411 -1.0159  1.7202
10559TIP3    H253169   4.780   0.422  16.192  0.9363  2.2128 -0.7537
10560TIP3   OH253170   6.263   4.438   2.713 -0.4166  0.4655 -0.2208
10560TIP3    H153171   6.281   4.440   2.807  1.7208  0.2139 -0.5775
10560TIP3    H253172   6.301   4.356   2.683 -0.8461  0.6755 -1.3699
10561TIP3   OH253173   5.885   5.427   4.275  1.0292 -0.0454 -0.2375
10561TIP3    H153174   5.832   5.356   4.311  1.2351 -1.3733 -2.3936
10561TIP3    H253175   5.951   5.444   4.342 -0.6814  0.0795  1.5031
10562TIP3   OH253176   0.107   3.911   1.684 -0.0849 -0.0385  0.1405
10562TIP3    H153177   0.138   3.900   1.774 -1.5564  1.8949  0.9782
10562TIP3    H253178   0.186   3.925   1.633  0.9656 -3.1369  0.6981
10563TIP3   OH253179   6.235   6.535   1.633 -0.0338 -0.3016  0.2943
10563TIP3    H153180   6.255   6.447   1.665 -2.0002 -0.6016  0.7949
10563TIP3    H253181   6.162   6.524   1.573  0.3909  0.8909 -0.5010
10564TIP3   OH253182   0.298   3.441  10.993 -0.2717 -0.1512  0.0523
10564TIP3    H153183   0.372   3.464  10.937  1.2546  2.2298  2.7908
10564TIP3    H253184   0.253   3.524  11.008 -1.6040 -1.0130  1.0546
10565TIP3   OH253185   2.730   6.593  11.897 -0.4710  0.0208 -0.1876
10565TIP3    H153186   2.695   6.680  11.878 -0.6956  0.0904  0.5257
10565TIP3    H253187   2.790   6.575  11.824 -1.1497  0.3632 -0.8436
10566TIP3   OH253188   0.264   0.684   5.002  0.3020  0.4603  0.8101
10566TIP3    H153189   0.323   0.665   5.075 -0.3409 -0.3977  1.1311
10566TIP3    H253190   0.211   0.604   4.993  1.1467  0.0808 -1.3554
10567TIP3   OH253191   6.033   0.411  13.197 -0.4619  0.5178 -0.1885
10567TIP3    H153192   5.995   0.333  13.239 -0.3756 -0.2364 -1.4646
10567TIP3    H253193   6.025   0.394  13.103 -1.1601  2.4138 -0.5195
10568TIP3   OH253194   0.164   6.391   2.422  0.2828  0.2018 -0.7777
10568TIP3    H153195   0.139   6.305   2.388 -0.8488 -0.1985  0.9911
10568TIP3    H253196   0.249   6.409   2.381  0.7789 -1.9734 -0.7984
10569TIP3   OH253197   0.747   5.889   4.590 -0.3138  0.1244 -0.0272
10569TIP3    H153198   0.833   5.876   4.630 -0.4225  0.6236  0.3843
10569TIP3    H253199   0.685   5.860   4.657 -0.4831 -3.9949 -1.6635
10570TIP3   OH253200   2.325   1.564  14.822  0.0725 -0.7267 -0.1302
10570TIP3    H153201   2.278   1.488  14.789  0.7028 -1.4952  0.6806
10570TIP3    H253202   2.405   1.567  14.769 -0.5171  0.1349 -1.0048
10571TIP3   OH253203   5.730   3.201   3.068 -0.1772  0.5877  0.6740
10571TIP3    H153204   5.778   3.254   3.132  1.5947 -0.4515  0.2902
10571TIP3    H253205   5.639   3.205   3.097  0.3520  1.3484  2.3857
10572TIP3   OH253206   2.865   1.758   0.550 -0.4011  0.6293 -0.4455
10572TIP3    H153207   2.792   1.786   0.607 -1.4766 -1.6578 -0.5932
10572TIP3    H253208   2.942   1.760   0.608 -0.9561  1.0437  0.3060
10573TIP3   OH253209   2.958   2.061   0.469 -0.5107  0.5139 -0.4340
10573TIP3    H153210   3.002   2.058   0.385 -1.5084  1.1988 -0.9993
10573TIP3    H253211   2.967   1.972   0.504 -0.9771 -0.0737 -1.7424
10574TIP3   OH253212   2.611   3.038  15.529  0.2069  0.3829 -0.4500
10574TIP3    H153213   2.531   3.026  15.478 -0.7472  3.0231  0.2701
10574TIP3    H253214   2.584   3.021  15.620  0.7564  0.1269 -0.3321
10575TIP3   OH253215   3.209   4.430  13.555  0.0079 -0.1162  1.2536
10575TIP3    H153216   3.164   4.475  13.627 -0.5628  0.2958  0.6566
10575TIP3    H253217   3.293   4.476  13.548 -0.8799  1.4485  0.1372
10576TIP3   OH253218   2.378   4.856   0.520  0.7267 -0.1791  0.0242
10576TIP3    H153219   2.460   4.900   0.541  1.7249  0.2998 -4.1237
10576TIP3    H253220   2.403   4.764   0.507  0.2912 -0.3328  0.2481
10577TIP3   OH253221   6.170   6.276   0.531 -0.4007 -0.0429  0.2044
10577TIP3    H153222   6.204   6.364   0.520 -2.7333  0.7772 -0.9351
10577TIP3    H253223   6.206   6.247   0.615  0.1483  2.1059  0.7645
10578TIP3   OH253224   6.620   1.697  14.834 -0.4850  0.1375 -0.1220
10578TIP3    H153225   6.600   1.714  14.926 -0.7096 -0.9356  0.0408
10578TIP3    H253226   6.542   1.651  14.801  0.2379 -0.8983 -0.4199
10579TIP3   OH253227   1.231   0.654   6.386 -0.1734  0.2268 -0.5079
10579TIP3    H153228   1.149   0.627   6.344 -0.2235 -1.2303  0.4850
10579TIP3    H253229   1.222   0.749   6.396 -1.6605  0.1127 -0.5621
10580TIP3   OH253230   6.586   1.783  12.665 -0.0060  0.3792  0.6153
10580TIP3    H153231   6.570   1.845  12.593 -2.4167  0.4001  1.1044
10580TIP3    H253232   6.595   1.838  12.743 -0.7278  0.2029  0.8295
10581TIP3   OH253233   2.630   0.658   1.909  1.0536 -0.1218 -0.3300
10581TIP3    H153234   2.566   0.645   1.839 -0.5152  2.2685  0.5614
10581TIP3    H253235   2.621   0.580   1.964 -0.0219 -0.5097 -1.0268
10582TIP3   OH253236   5.828   6.547  15.062  0.3787  0.5863 -0.3794
10582TIP3    H153237   5.812   6.468  15.113  2.3224  0.2791 -0.1904
10582TIP3    H253238   5.779   6.533  14.981  0.6623 -0.8068 -0.3404
10583TIP3   OH253239   1.195   2.976  15.462  0.1468 -0.0019 -0.1268
10583TIP3    H153240   1.138   2.924  15.519 -0.1001  0.2970 -0.0958
10583TIP3    H253241   1.227   3.046  15.518  1.2641 -0.6678  0.1016
10584TIP3   OH253242   4.278   0.715  16.581  0.1311  0.0719 -0.6598
10584TIP3    H153243   4.374   0.709  16.580  0.1828  0.7301 -0.2060
10584TIP3    H253244   4.251   0.671  16.501  0.9942  2.6803 -2.5325
10585TIP3   OH253245   4.446   2.728   5.209 -0.0982  0.3189 -0.8589
10585TIP3    H153246   4.353   2.712   5.222  0.1981 -2.1502 -1.3557
10585TIP3    H253247   4.454   2.754   5.117 -0.1970 -0.5822 -1.1300
10586TIP3   OH253248   6.638   6.572  16.387  0.1473 -0.3173 -0.2158
10586TIP3    H153249   6.596   6.514  16.451  1.2418 -0.3344  0.5198
10586TIP3    H253250   6.624   6.530  16.303  0.5885 -1.4649  0.2659
10587TIP3   OH253251   1.372   1.968   1.023 -0.1700  0.1468 -0.3149
10587TIP3    H153252   1.432   1.898   1.048  0.7430  0.8008 -0.6419
10587TIP3    H253253   1.411   2.008   0.945 -1.9583 -0.5643 -1.6412
10588TIP3   OH253254   3.864   0.647   6.329 -0.5301  0.2308 -0.2379
10588TIP3    H153255   3.893   0.556   6.328 -1.5887 -0.2245 -4.0055
10588TIP3    H253256   3.942   0.697   6.304 -0.4011  0.1625  0.0251
10589TIP3   OH253257   2.297   5.709   3.377  0.5967 -0.6168  0.0124
10589TIP3    H153258   2.341   5.743   3.455  1.0811  0.6619 -0.7901
10589TIP3    H253259   2.276   5.787   3.325 -0.7553 -1.3554 -0.6075
10590TIP3   OH253260   2.960   1.105   3.572  0.7481  0.0922  0.7093
10590TIP3    H153261   2.986   1.184   3.618  2.0720  0.0277  0.1296
10590TIP3    H253262   2.960   1.129   3.479  1.7107 -0.6921  0.4779
10591TIP3   OH253263   1.250   4.999   5.423 -0.3156 -0.4270 -0.2331
10591TIP3    H153264   1.342   5.023   5.431 -0.3481 -0.7849  1.3810
10591TIP3    H253265   1.202   5.080   5.438 -0.2880 -0.0668 -1.8478
10592TIP3   OH253266   4.859   3.830  13.187  0.0914  0.4799  0.0878
10592TIP3    H153267   4.928   3.853  13.124  0.0302  0.9107  0.1749
10592TIP3    H253268   4.882   3.743  13.217  0.6966  0.6946  0.2509
10593TIP3   OH253269   2.818   5.985   4.359 -0.3828  0.2403  0.0183
10593TIP3    H153270   2.806   6.050   4.428  0.0898  0.0386  0.2978
10593TIP3    H253271   2.855   6.035   4.286  0.3227  0.2342  0.3573
10594TIP3   OH253272   5.969   1.703   3.960  0.2849 -0.2275  0.0177
10594TIP3    H153273   6.003   1.616   3.939  0.5399 -0.2271  0.4199
10594TIP3    H253274   6.035   1.741   4.019  0.1248  0.1972 -0.0774
10595TIP3   OH253275   5.454   1.754  14.399  0.0189  0.1940  0.1345
10595TIP3    H153276   5.471   1.779  14.490 -1.6703  1.1369  0.2315
10595TIP3    H253277   5.435   1.660  14.403 -0.7971  0.3740  0.8995
10596TIP3   OH253278   2.904   0.376   6.231  0.2420 -0.3624  0.2827
10596TIP3    H153279   2.908   0.285   6.260 -2.0406  0.1400  2.5307
10596TIP3    H253280   2.910   0.427   6.311  0.5583  1.4792 -0.8469
10597TIP3   OH253281   1.996   3.602  12.849 -0.2490  0.0920 -0.1298
10597TIP3    H153282   2.041   3.630  12.929  0.2792  2.4540 -1.1687
10597TIP3    H253283   1.908   3.638  12.858 -0.2440  0.2032 -0.5246
10598TIP3   OH253284   6.750   3.229   4.470  0.2796  0.4455  0.3528
10598TIP3    H153285   6.679   3.181   4.512  0.5426 -0.1244  0.1649
10598TIP3    H253286   6.827   3.209   4.524  0.2685  1.1854  0.6477
10599TIP3   OH253287   0.698   0.690   3.294 -0.3966 -0.2102  0.0929
10599TIP3    H153288   0.645   0.635   3.236  0.5556  0.1057 -1.1152
10599TIP3    H253289   0.694   0.777   3.255  0.0132  0.0720  0.6712
10600TIP3   OH253290   1.658   4.962  15.588 -0.0844 -0.3342 -0.6836
10600TIP3    H153291   1.621   4.928  15.670  0.3822 -0.2287 -0.4258
10600TIP3    H253292   1.588   4.952  15.524 -0.9233  0.8282  0.0282
10601TIP3   OH253293   0.802   5.201  11.667 -0.2040 -0.2968 -1.0345
10601TIP3    H153294   0.879   5.233  11.712 -1.1100 -0.3622  0.6285
10601TIP3    H253295   0.762   5.279  11.628 -0.6851  0.1475  0.3033
10602TIP3   OH253296   1.085   2.965  15.934  0.0417  0.1598  0.0649
10602TIP3    H153297   0.994   2.935  15.924  0.3498 -0.9982  0.4888
10602TIP3    H253298   1.104   2.950  16.027  0.8633 -0.2111 -0.1546
10603TIP3   OH253299   6.550   2.988  12.291 -0.2645  0.7645  0.5559
10603TIP3    H153300   6.518   3.078  12.293 -1.2886  0.4290 -0.1763
10603TIP3    H253301   6.623   2.990  12.229  0.9003  1.4353  1.8875
10604TIP3   OH253302   2.509   2.184   2.070  0.3474 -0.5227  0.1190
10604TIP3    H153303   2.480   2.097   2.099 -0.5450 -0.1507  0.3484
10604TIP3    H253304   2.528   2.172   1.977 -1.6787 -0.5235 -0.3425
10605TIP3   OH253305   1.179   3.177  11.067 -0.1012  0.3122  0.0689
10605TIP3    H153306   1.226   3.246  11.020  0.9465 -0.4901 -0.0799
10605TIP3    H253307   1.099   3.164  11.016 -0.5150  1.6940  0.3302
10606TIP3   OH253308   1.267   5.033  11.766 -0.2466 -0.8794  0.4858
10606TIP3    H153309   1.201   4.995  11.824 -1.5016 -0.4069 -0.5854
10606TIP3    H253310   1.340   5.056  11.824 -1.7422  0.2390  2.0081
10607TIP3   OH253311   6.761   5.345   1.349 -0.6684  0.1339  0.2262
10607TIP3    H153312   6.800   5.258   1.358  2.5592  1.6301  4.2001
10607TIP3    H253313   6.730   5.367   1.437 -2.1823  2.7182 -0.8246
10608TIP3   OH253314   0.222   3.353   0.124  0.0558  0.0818  0.1448
10608TIP3    H153315   0.131   3.380   0.122  0.4559  1.4599 -0.8137
10608TIP3    H253316   0.253   3.366   0.034  1.7644  1.7537  0.9009
10609TIP3   OH253317   1.113   0.949   4.251  0.1407 -0.2818 -0.2979
10609TIP3    H153318   1.208   0.943   4.264 -0.1497 -1.0166  1.8535
10609TIP3    H253319   1.079   0.976   4.336 -1.9643 -4.3915  0.4312
10610TIP3   OH253320   3.727   4.409  12.885 -0.2075  0.6124  0.4260
10610TIP3    H153321   3.635   4.435  12.881  0.2758  2.3064 -2.1987
10610TIP3    H253322   3.729   4.318  12.856 -0.8705  1.4658 -2.6996
10611TIP3   OH253323   6.810   2.216   6.221  0.2811  0.4693  0.0068
10611TIP3    H153324   6.754   2.232   6.145 -0.8200 -0.0701  0.6709
10611TIP3    H253325   6.824   2.302   6.259 -0.7123  0.5483  0.2342
10612TIP3   OH253326   6.222   0.839   0.265  0.0657 -0.2888  0.0458
10612TIP3    H153327   6.257   0.758   0.300 -0.0965 -0.1424  0.5590
10612TIP3    H253328   6.298   0.887   0.233  0.2636 -0.2813  0.5109
10613TIP3   OH253329   0.568   6.003  16.072 -0.5626  0.0317 -0.5798
10613TIP3    H153330   0.485   5.969  16.040 -0.8141  0.2670 -0.1956
10613TIP3    H253331   0.629   5.930  16.064 -1.2181 -0.6951  0.7247
10614TIP3   OH253332   6.257   1.975  11.465  0.3565 -0.6629 -0.3492
10614TIP3    H153333   6.303   1.900  11.428 -1.4489 -2.4346  0.7552
10614TIP3    H253334   6.292   1.985  11.553 -0.2901 -1.0439 -0.0432
10615TIP3   OH253335   2.843   4.901  15.696  0.6359 -0.0852  0.1267
10615TIP3    H153336   2.886   4.959  15.759  0.2615  1.5695 -1.0629
10615TIP3    H253337   2.891   4.915  15.614  0.8132 -1.8356 -0.0980
10616TIP3   OH253338   4.594   5.360   5.363  0.0204 -0.1131  0.5644
10616TIP3    H153339   4.669   5.413   5.390  0.8857 -0.4622 -1.0052
10616TIP3    H253340   4.602   5.278   5.412  0.5344 -0.0565  0.5727
10617TIP3   OH253341   6.168   2.496  12.345 -0.3256  0.3133  0.7448
10617TIP3    H153342   6.167   2.555  12.421 -0.0159  0.7327  0.4258
10617TIP3    H253343   6.223   2.541  12.281 -1.5178  0.5035 -0.1665
10618TIP3   OH253344   1.193   0.070   3.222 -0.8492 -0.3618 -0.3087
10618TIP3    H153345   1.237   0.155   3.236  0.8195 -1.2626  0.2363
10618TIP3    H253346   1.130   0.087   3.152 -0.9901  1.4695  0.1990
10619TIP3   OH253347   6.313   4.204   5.122  0.0217  0.4046 -0.2474
10619TIP3    H153348   6.318   4.299   5.108  1.6937  0.2953 -0.5393
10619TIP3    H253349   6.332   4.166   5.036  2.8398 -0.1879  0.5394
10620TIP3   OH253350   5.177   1.891   3.736 -0.0511  0.2195 -0.1661
10620TIP3    H153351   5.185   1.802   3.702 -1.1019  0.4005 -0.9052
10620TIP3    H253352   5.184   1.947   3.659 -0.9142  0.7069  0.1046
10621TIP3   OH253353   4.957   0.436   3.376  0.4315 -0.2284 -1.0763
10621TIP3    H153354   4.953   0.369   3.307  0.0806 -0.7022 -0.6050
10621TIP3    H253355   4.971   0.387   3.457 -0.4492  0.2060 -0.6409
10622TIP3   OH253356   1.632   1.952  16.252 -0.1607 -0.0165 -0.5122
10622TIP3    H153357   1.608   1.872  16.299  0.4237 -0.2963 -0.6794
10622TIP3    H253358   1.653   1.922  16.164  0.1071  0.3139 -0.5616
10623TIP3   OH253359   4.941   2.186  14.354  0.7781  0.1678 -0.2210
10623TIP3    H153360   4.991   2.227  14.424  0.6697 -0.0495 -0.0133
10623TIP3    H253361   4.881   2.255  14.325 -0.1715 -0.1608  0.8789
10624TIP3   OH253362   0.092   3.539  11.902  0.1685  0.1690 -0.8003
10624TIP3    H153363   0.137   3.583  11.974  1.0472 -1.2444 -0.4448
10624TIP3    H253364   0.162   3.496  11.854 -0.5448  0.1533 -1.8362
10625TIP3   OH253365   0.124   4.507  16.352  0.9777 -0.1660  0.0997
10625TIP3    H153366   0.170   4.577  16.305  1.6863 -0.3567  0.4884
10625TIP3    H253367   0.032   4.519  16.329  0.4031  3.4710  3.3512
10626TIP3   OH253368   1.806   2.424   6.576  0.5103  0.1863  0.0118
10626TIP3    H153369   1.740   2.355   6.582  0.7880  0.0080  3.0434
10626TIP3    H253370   1.769   2.497   6.624  1.8045  0.6870  0.3065
10627TIP3   OH253371   6.364   3.878   1.575 -0.0408  0.0329 -0.0800
10627TIP3    H153372   6.324   3.792   1.570  1.9783 -0.8971 -2.2155
10627TIP3    H253373   6.448   3.863   1.619  0.4217  0.8486 -0.6461
10628TIP3   OH253374   5.839   6.461   3.387 -0.6128 -0.0370  0.4164
10628TIP3    H153375   5.828   6.370   3.362 -0.9014  0.2498 -0.5645
10628TIP3    H253376   5.772   6.508   3.337 -0.9371  0.6321  1.4470
10629TIP3   OH253377   6.067   3.623   2.634  0.2125 -0.1748  0.2988
10629TIP3    H153378   6.073   3.557   2.703 -0.6898 -0.3015  0.2668
10629TIP3    H253379   6.061   3.572   2.553  1.5041 -0.0243  0.0922
10630TIP3   OH253380   3.266   0.580   3.743 -0.3925  0.2230  0.7027
10630TIP3    H153381   3.303   0.495   3.769 -0.1465  0.5966  1.6214
10630TIP3    H253382   3.322   0.610   3.672 -0.0853 -0.0908  0.8061
10631TIP3   OH253383   4.260   3.438  15.594 -0.0179  0.4535  0.3261
10631TIP3    H153384   4.305   3.355  15.609  2.8002  1.4909 -1.6450
10631TIP3    H253385   4.217   3.458  15.678 -1.4236 -3.2497  0.6620
10632TIP3   OH253386   6.238   1.434  11.438  0.4222 -0.2144  0.2517
10632TIP3    H153387   6.207   1.372  11.373 -2.3786  1.6667 -0.3701
10632TIP3    H253388   6.325   1.459  11.408 -0.3292 -0.2760 -2.1575
10633TIP3   OH253389   5.734   1.567  12.631 -0.3005 -0.0619  0.0498
10633TIP3    H153390   5.814   1.619  12.619 -1.6200  2.0330 -0.2159
10633TIP3    H253391   5.726   1.517  12.550  0.9099 -0.5693  0.2225
10634TIP3   OH253392   5.463   4.168   0.540  0.3150  0.1162  0.4155
10634TIP3    H153393   5.546   4.123   0.556  0.4624 -0.6707 -2.1367
10634TIP3    H253394   5.482   4.261   0.554  1.3371 -0.1606  0.9055
10635TIP3   OH253395   3.046   2.419  13.942  0.1782  0.0076 -0.5274
10635TIP3    H153396   3.112   2.452  14.002  1.8571 -0.4696 -2.0294
10635TIP3    H253397   2.994   2.358  13.994 -0.0082  1.4221  1.0430
10636TIP3   OH253398   5.543   3.231   1.035 -0.1963 -0.0993  0.2439
10636TIP3    H153399   5.563   3.267   1.121 -0.7043 -2.4578  1.4170
10636TIP3    H253400   5.458   3.189   1.045  0.6297 -2.1890 -0.7960
10637TIP3   OH253401   5.996   5.330  16.224 -0.6925 -0.0612  0.1055
10637TIP3    H153402   6.079   5.283  16.221 -0.9105 -0.4479  0.0164
10637TIP3    H253403   5.938   5.280  16.166 -0.3828  1.4053 -1.5417
10638TIP3   OH253404   0.544   5.901  13.684  0.0510 -0.4470  0.3671
10638TIP3    H153405   0.544   5.838  13.757  0.0213 -1.6926 -0.6601
10638TIP3    H253406   0.468   5.876  13.632  1.0675 -0.7589 -1.0310
10639TIP3   OH253407   3.455   4.496   3.877 -0.5123  0.0405  0.0425
10639TIP3    H153408   3.415   4.414   3.907  1.1299 -0.2789  1.5112
10639TIP3    H253409   3.518   4.470   3.810 -1.2706  0.3237 -0.7994
10640TIP3   OH253410   4.934   5.902   0.863  0.0165 -0.3226 -0.3570
10640TIP3    H153411   4.942   5.817   0.819 -0.4669 -0.5602  0.0092
10640TIP3    H253412   4.952   5.966   0.794 -0.8942 -0.6854 -0.9550
10641TIP3   OH253413   6.168   4.297   2.478  0.3172 -0.7346  0.2144
10641TIP3    H153414   6.261   4.277   2.485  0.5394  0.1909  0.0799
10641TIP3    H253415   6.159   4.384   2.517 -0.6642 -1.2373  1.1730
10642TIP3   OH253416   4.269   6.360   3.642 -0.3907  0.3837  0.5260
10642TIP3    H153417   4.358   6.325   3.635 -0.9808 -1.0843  0.0641
10642TIP3    H253418   4.238   6.366   3.552 -0.5822  1.3868  0.6518
10643TIP3   OH253419   6.431   1.756   1.657 -0.3792 -0.1479  0.0549
10643TIP3    H153420   6.389   1.812   1.723 -0.1218  0.2930 -0.1541
10643TIP3    H253421   6.399   1.668   1.677 -1.2256  0.1442  0.0528
10644TIP3   OH253422   3.188   4.785   5.872 -0.0338  0.2958  0.0912
10644TIP3    H153423   3.230   4.801   5.956 -0.5395  0.8815  0.2410
10644TIP3    H253424   3.249   4.821   5.807  0.2014  0.1500  0.2323
10645TIP3   OH253425   3.040   3.468  15.530 -0.0990  0.4721  0.2342
10645TIP3    H153426   2.978   3.503  15.594 -0.2667 -1.0377  0.9423
10645TIP3    H253427   3.007   3.381  15.509  0.9744  0.2206 -0.5146
10646TIP3   OH253428   1.326   4.992   4.545  0.2679  0.1314 -0.0012
10646TIP3    H153429   1.417   4.970   4.568 -0.1589 -1.6943  0.1050
10646TIP3    H253430   1.327   4.999   4.449  1.0410  2.8990  0.1233
10647TIP3   OH253431   6.114   2.496  13.393  0.1197 -0.2382 -0.9012
10647TIP3    H153432   6.126   2.434  13.322 -0.7660 -0.9500 -0.4336
10647TIP3    H253433   6.202   2.506  13.431  0.6242  0.2194 -2.1140
10648TIP3   OH253434   5.461   3.913   4.339 -0.3465 -0.4382 -0.1612
10648TIP3    H153435   5.457   3.855   4.415  2.6465  0.1681  0.5634
10648TIP3    H253436   5.551   3.906   4.308 -0.6950  1.6004 -1.8328
10649TIP3   OH253437   3.623   6.415  11.502 -0.0393  0.8166  0.3713
10649TIP3    H153438   3.614   6.495  11.555 -0.3385  0.8697  0.2434
10649TIP3    H253439   3.534   6.393  11.477  0.0043  0.2180  0.7250
10650TIP3   OH253440   0.630   6.718  15.162 -0.4264  0.2752 -0.0952
10650TIP3    H153441   0.580   6.690  15.085 -1.0837  0.9703  0.0766
10650TIP3    H253442   0.665   6.804  15.138 -0.5426  0.4457  0.3482
10651TIP3   OH253443   0.370   3.582  11.659  0.3002  0.0623  0.0556
10651TIP3    H153444   0.439   3.622  11.711 -0.0709 -0.4212  0.9306
10651TIP3    H253445   0.330   3.517  11.716  1.2799 -2.0287 -1.5179
10652TIP3   OH253446   2.007   4.619   4.084  0.4620 -0.0183  0.3599
10652TIP3    H153447   2.049   4.535   4.102  1.0065 -0.1927 -1.4668
10652TIP3    H253448   2.062   4.658   4.015 -2.3008 -0.2456 -2.1651
10653TIP3   OH253449   1.561   3.400   1.878 -0.2196 -0.1709  0.3126
10653TIP3    H153450   1.572   3.471   1.940 -0.1633  0.1637 -0.0761
10653TIP3    H253451   1.635   3.409   1.818  1.3028 -2.1229  1.7446
10654TIP3   OH253452   2.323   6.369   1.801  0.1864 -0.4257 -0.8149
10654TIP3    H153453   2.336   6.291   1.746 -0.3116 -1.0531 -0.0498
10654TIP3    H253454   2.340   6.339   1.890 -1.0447  0.0774 -0.3922
10655TIP3   OH253455   5.014   2.929   2.116 -0.1695  0.1170  0.5144
10655TIP3    H153456   4.971   2.964   2.195  0.4166 -1.4627  1.5821
10655TIP3    H253457   4.977   2.841   2.106 -0.5290  0.4252 -1.2522
10656TIP3   OH253458   5.680   3.290   6.674  0.2181 -0.5194 -0.3263
10656TIP3    H153459   5.758   3.338   6.701  0.4974 -0.8766 -0.4931
10656TIP3    H253460   5.687   3.285   6.579  0.5827 -1.5299 -0.2689
10657TIP3   OH253461   0.844   2.353  16.517  0.3060 -0.2816  0.1092
10657TIP3    H153462   0.762   2.338  16.470  1.2190 -2.2128 -0.9813
10657TIP3    H253463   0.850   2.279  16.578 -0.0574  1.3272  2.2221
10658TIP3   OH253464   3.052   0.668  17.211  0.0844 -0.2736  0.0802
10658TIP3    H153465   2.993   0.605  17.253 -0.1604  0.1144  0.3216
10658TIP3    H253466   3.089   0.719  17.283  0.0353  0.0726 -0.1366
10659TIP3   OH253467   5.297   3.930   1.942 -0.3720  0.7787 -0.3442
10659TIP3    H153468   5.207   3.961   1.930 -0.4844  0.4604 -0.3599
10659TIP3    H253469   5.311   3.870   1.868 -0.4950  0.0631  0.2065
10660TIP3   OH253470   1.425   6.634   0.611  0.0216  0.1291 -0.1846
10660TIP3    H153471   1.450   6.618   0.520 -1.4718  0.7852 -0.7515
10660TIP3    H253472   1.504   6.667   0.652  0.4458  0.9213 -1.5643
10661TIP3   OH253473   3.650   4.334  13.988  0.1035 -0.1394 -0.1235
10661TIP3    H153474   3.589   4.396  14.028  0.0326 -0.1413 -0.2300
10661TIP3    H253475   3.693   4.384  13.919 -1.5953 -0.8486 -1.7571
10662TIP3   OH253476   5.337   1.573  13.314 -0.1622  0.1961 -0.6551
10662TIP3    H153477   5.394   1.513  13.361 -0.4575 -0.6270 -1.3334
10662TIP3    H253478   5.378   1.582  13.228  0.2387  1.4933 -0.3539
10663TIP3   OH253479   5.980   3.293   0.940 -0.0855  0.3306 -0.6170
10663TIP3    H153480   5.892   3.327   0.956 -0.0944  1.1805 -2.2818
10663TIP3    H253481   6.013   3.271   1.027 -0.8205  2.8111  0.3845
10664TIP3   OH253482   6.783   4.403  14.851 -0.2025 -0.0333  0.3925
10664TIP3    H153483   6.751   4.357  14.929  1.4620 -0.6081  0.7740
10664TIP3    H253484   6.874   4.374  14.841  0.5193  2.1728 -0.1223
10665TIP3   OH253485   6.671   5.713   4.767  0.3090  0.2515 -0.4088
10665TIP3    H153486   6.642   5.622   4.754 -1.4521  0.6532  0.4945
10665TIP3    H253487   6.685   5.721   4.861  0.9187  0.8136 -0.5376
10666TIP3   OH253488   5.029   3.551   2.394 -0.1573 -0.1822  0.3103
10666TIP3    H153489   5.056   3.474   2.344  1.3914 -0.1544  1.0451
10666TIP3    H253490   5.052   3.530   2.485 -0.3823  0.8639  0.6258
10667TIP3   OH253491   1.753   1.065   0.611  0.0270  0.8050 -0.3623
10667TIP3    H153492   1.771   1.082   0.518  2.0443 -3.3471 -0.9904
10667TIP3    H253493   1.659   1.047   0.614  0.1300 -0.1960 -1.8920
10668TIP3   OH253494   6.264   0.206   0.204  0.1782 -0.0686 -0.0296
10668TIP3    H153495   6.308   0.150   0.269 -0.7680 -1.0842 -0.2262
10668TIP3    H253496   6.217   0.144   0.147 -1.8712  0.9470  0.4546
10669TIP3   OH253497   5.250   3.980   6.241  0.0699  0.2746 -0.4361
10669TIP3    H153498   5.247   4.060   6.189  2.0307  0.3199 -0.5454
10669TIP3    H253499   5.163   3.941   6.231 -0.7221  2.0750 -0.8560
10670TIP3   OH253500   4.164   5.461   0.551  0.3088 -0.0091  0.3760
10670TIP3    H153501   4.204   5.520   0.486  1.3514  0.4658  1.4088
10670TIP3    H253502   4.135   5.519   0.621  1.3839 -0.6901  1.4241
10671TIP3   OH253503   6.376   1.912   6.425 -0.1367  0.1134 -0.5570
10671TIP3    H153504   6.429   1.985   6.393  0.4321 -0.3767 -0.7565
10671TIP3    H253505   6.286   1.944   6.422  0.1119  0.8062 -0.6359
10672TIP3   OH253506   1.940   2.052  14.678  1.2265  0.5469  0.5720
10672TIP3    H153507   1.996   2.012  14.612  0.5083 -1.0585  0.8920
10672TIP3    H253508   1.860   2.000  14.676  0.8174  1.0859  2.0222
10673TIP3   OH253509   1.224   4.093   5.100 -0.1336  0.1825 -0.2016
10673TIP3    H153510   1.228   4.149   5.178 -0.0789  1.1330 -0.8656
10673TIP3    H253511   1.161   4.137   5.043  1.4433  0.7151 -1.6029
10674TIP3   OH253512   5.003   5.353   3.273 -0.0532 -0.1923 -0.0275
10674TIP3    H153513   5.085   5.397   3.294 -0.6502  0.7848  0.3181
10674TIP3    H253514   4.958   5.345   3.357  0.1800 -1.7837 -0.0321
10675TIP3   OH253515   5.435   1.020   0.575  0.2009 -0.0883  0.2181
10675TIP3    H153516   5.348   1.030   0.614  0.0512 -1.8244  0.3991
10675TIP3    H253517   5.482   0.964   0.637  1.1216 -0.0085 -0.3947
10676TIP3   OH253518   6.319   4.255  10.215 -0.2746 -0.1486 -0.6561
10676TIP3    H153519   6.357   4.334  10.252 -2.3511  0.9567 -0.7417
10676TIP3    H253520   6.377   4.232  10.143  0.9240  0.6940  0.0066
10677TIP3   OH253521   6.057   5.889   5.871  0.1866  0.2551 -0.1989
10677TIP3    H153522   6.020   5.957   5.814 -0.5702 -1.4437 -1.8402
10677TIP3    H253523   5.996   5.816   5.865  0.7211 -0.4588  1.8937
10678TIP3   OH253524   4.760   3.994   0.136  0.5206  0.3421 -0.0768
10678TIP3    H153525   4.697   3.996   0.208 -1.1282  0.8571 -1.4998
10678TIP3    H253526   4.809   4.076   0.145  0.0042  0.6268  0.1663
10679TIP3   OH253527   1.169   3.161  15.014  0.4306 -0.3494  0.1274
10679TIP3    H153528   1.143   3.183  14.925  2.1831 -1.0183 -0.6005
10679TIP3    H253529   1.155   3.066  15.021  2.8188 -0.8235 -0.4380
10680TIP3   OH253530   1.375   0.312  17.192  0.5523  0.2206 -0.3472
10680TIP3    H153531   1.290   0.295  17.234  0.4873  0.5155 -0.3626
10680TIP3    H253532   1.437   0.258  17.242  0.0828 -1.4185 -1.4439
10681TIP3   OH253533   5.888   3.079   3.977 -0.4318  0.0620  0.1624
10681TIP3    H153534   5.856   3.068   4.067  1.8829 -0.3512  0.9990
10681TIP3    H253535   5.809   3.096   3.925 -1.7600  1.1013  2.3869
10682TIP3   OH253536   4.780   6.451  17.181  0.1706 -0.0787 -0.0256
10682TIP3    H153537   4.866   6.489  17.194 -0.4124  0.8722  1.3613
10682TIP3    H253538   4.785   6.405  17.097  1.8680  0.3395 -0.1727
10683TIP3   OH253539   1.204   2.343   4.007  0.2256  0.3204  0.5398
10683TIP3    H153540   1.181   2.381   4.091 -1.8269 -1.6651  0.9702
10683TIP3    H253541   1.178   2.409   3.943 -1.1981  0.5780  1.3445
10684TIP3   OH253542   6.647   4.856  15.808 -0.0980 -0.7318  0.0400
10684TIP3    H153543   6.682   4.867  15.896 -0.8132  0.8723  0.1596
10684TIP3    H253544   6.695   4.782  15.772  0.9594 -0.7402  1.3980
10685TIP3   OH253545   0.656   4.580   2.963 -0.2283  0.5817  0.3715
10685TIP3    H153546   0.746   4.601   2.936  0.2561 -0.0910  1.3898
10685TIP3    H253547   0.640   4.493   2.928 -0.7552  0.9839 -0.4104
10686TIP3   OH253548   6.453   2.499  13.956  0.5154 -0.6656  0.1518
10686TIP3    H153549   6.544   2.519  13.936  0.8385 -1.3969  0.8501
10686TIP3    H253550   6.445   2.405  13.940 -0.4982 -0.3727 -1.2925
10687TIP3   OH253551   3.597   0.795  10.830 -0.1328 -0.6092  0.4211
10687TIP3    H153552   3.681   0.774  10.870  1.0783  1.7112 -0.7268
10687TIP3    H253553   3.590   0.890  10.838 -1.8728 -0.5605 -1.0081
10688TIP3   OH253554   4.580   2.516   3.842 -0.8326 -0.1759  0.1383
10688TIP3    H153555   4.587   2.611   3.834 -0.3447 -0.2806 -0.7702
10688TIP3    H253556   4.553   2.502   3.933  0.3016  0.7714  0.6510
10689TIP3   OH253557   0.966   3.955  17.266 -0.3107 -0.8359 -0.1227
10689TIP3    H153558   0.916   3.937  17.346  1.5810 -0.4309  1.2104
10689TIP3    H253559   1.046   3.997  17.296 -0.4138  1.2361 -2.4262
10690TIP3   OH253560   0.027   3.882   4.200 -0.1578 -0.0540  0.5303
10690TIP3    H153561  -0.013   3.966   4.178  1.4550  0.1967 -1.8580
10690TIP3    H253562  -0.022   3.818   4.149  0.8704 -0.0367 -0.5434
10691TIP3   OH253563   3.507   4.690  16.068 -0.4654  0.2926 -0.1328
10691TIP3    H153564   3.497   4.606  16.024 -0.9603 -0.3497  1.1733
10691TIP3    H253565   3.593   4.686  16.110 -0.4444  0.4818 -0.1539
10692TIP3   OH253566   4.333   0.084   5.608  0.5330  0.5010  0.1140
10692TIP3    H153567   4.404   0.046   5.557  0.2296 -0.9348  0.6986
10692TIP3    H253568   4.321   0.172   5.571  1.2474  0.0301 -1.3359
10693TIP3   OH253569   5.556   6.482  16.202 -0.8634 -0.3396  0.2889
10693TIP3    H153570   5.496   6.440  16.264  1.1845 -1.4793  1.6062
10693TIP3    H253571   5.607   6.410  16.165  0.3847  0.6671 -0.0195
10694TIP3   OH253572   1.585   5.596   0.244 -0.2246  0.1783 -0.7037
10694TIP3    H153573   1.540   5.614   0.326 -1.3583  0.5676 -1.3835
10694TIP3    H253574   1.558   5.667   0.185  2.3892  1.2412 -0.7682
10695TIP3   OH253575   2.836   1.537  15.848 -0.3190  0.2912 -0.1073
10695TIP3    H153576   2.876   1.532  15.935 -2.3594 -3.0490  0.8094
10695TIP3    H253577   2.909   1.525  15.787  0.6148 -2.7154  1.4064
10696TIP3   OH253578   1.662   1.260  14.589  1.0190 -0.3980  0.0641
10696TIP3    H153579   1.685   1.182  14.639 -0.9379  0.3137  2.2569
10696TIP3    H253580   1.569   1.251  14.571  0.9183  1.0656 -0.3011
10697TIP3   OH253581   2.427   0.395   1.618 -0.1945 -0.3305 -0.7695
10697TIP3    H153582   2.405   0.319   1.671 -1.0939 -0.0962 -0.7895
10697TIP3    H253583   2.379   0.467   1.659 -1.7963 -0.3337 -2.5129
10698TIP3   OH253584   0.922   6.513  13.418 -0.1600  0.0772 -0.0163
10698TIP3    H153585   0.852   6.450  13.437 -0.5938  0.8694  1.1116
10698TIP3    H253586   0.946   6.549  13.503  2.4831 -1.0099 -0.2038
10699TIP3   OH253587   0.937   4.337   1.459 -0.3029  0.3865  0.1788
10699TIP3    H153588   0.940   4.329   1.364  0.2240  1.6453  0.0791
10699TIP3    H253589   0.852   4.301   1.483  0.1521 -1.3439 -0.5999
10700TIP3   OH253590   3.732   6.325  15.121 -0.1089  0.2695 -0.7711
10700TIP3    H153591   3.710   6.233  15.112 -0.9602  0.3416  0.3262
10700TIP3    H253592   3.825   6.325  15.146 -0.1101 -0.2918 -0.7570
10701TIP3   OH253593   4.898   4.429   4.310  0.5057 -0.6638  0.9281
10701TIP3    H153594   4.972   4.401   4.363  0.5728 -2.5796 -0.0933
10701TIP3    H253595   4.914   4.390   4.224 -0.2445  1.2888 -0.1634
10702TIP3   OH253596   4.301   4.676   4.438 -0.0680 -0.3253  0.0470
10702TIP3    H153597   4.298   4.586   4.406 -2.2067 -0.4191  0.4135
10702TIP3    H253598   4.383   4.711   4.402  0.1766 -2.0118 -1.1575
10703TIP3   OH253599   3.667   4.718   4.825  0.4985  0.0670  0.4192
10703TIP3    H153600   3.723   4.677   4.760 -1.4028 -0.5873 -0.9146
10703TIP3    H253601   3.584   4.733   4.778 -0.8912 -0.2550  2.6363
10704TIP3   OH253602   2.993   5.081  14.128  0.1764  0.2184  0.4694
10704TIP3    H153603   2.943   5.163  14.132 -0.0418  0.0768  0.6578
10704TIP3    H253604   3.027   5.078  14.039  0.7932  0.8763  0.6716
10705TIP3   OH253605   1.776   0.258  15.498  0.0841 -0.4926  0.2282
10705TIP3    H153606   1.696   0.267  15.446  0.1943  1.0869  0.2912
10705TIP3    H253607   1.748   0.209  15.576 -1.1787  1.2573  0.9383
10706TIP3   OH253608   4.744   1.750   4.511 -0.0423  0.1600  0.4559
10706TIP3    H153609   4.703   1.665   4.493  1.5932 -0.6886  0.5731
10706TIP3    H253610   4.831   1.743   4.473  0.4394  1.4659  1.2708
10707TIP3   OH253611   3.301   5.736  11.668  0.0173  0.6305  0.1778
10707TIP3    H153612   3.390   5.748  11.635  0.2016 -0.6647  0.1281
10707TIP3    H253613   3.311   5.727  11.762  0.0686 -0.4230  0.0863
10708TIP3   OH253614   1.344   2.325  15.759 -0.5231  0.1383 -0.3609
10708TIP3    H153615   1.273   2.386  15.739  1.1415  2.4840  0.5555
10708TIP3    H253616   1.382   2.357  15.840 -0.7517 -3.3223  1.3182
10709TIP3   OH253617   6.254   4.596  17.312  0.0333  0.1079  0.0778
10709TIP3    H153618   6.343   4.564  17.328  0.4744  0.9212 -0.6703
10709TIP3    H253619   6.242   4.665  17.377 -0.3010 -0.4279  0.5978
10710TIP3   OH253620   0.042   2.003   5.019 -0.4613 -0.3937 -0.8246
10710TIP3    H153621   0.055   2.063   5.093 -1.8142  0.1467 -0.9855
10710TIP3    H253622   0.062   2.056   4.942 -1.0093 -0.3316 -0.9314
10711TIP3   OH253623   4.794   6.309   6.193 -0.2689 -0.2068 -0.5280
10711TIP3    H153624   4.711   6.272   6.224  0.1210 -0.8320 -0.2128
10711TIP3    H253625   4.785   6.403   6.208 -0.4599 -0.3936  0.6301
10712TIP3   OH253626   1.483   2.736  15.655  0.2582  0.0762 -0.0821
10712TIP3    H153627   1.512   2.673  15.720  1.2842  0.7395  0.1364
10712TIP3    H253628   1.414   2.786  15.699 -0.3181 -0.6668 -0.1424
10713TIP3   OH253629   5.924   1.684   1.011  0.0367 -0.3178  0.4387
10713TIP3    H153630   5.949   1.756   0.953  0.0935  1.6080  2.7038
10713TIP3    H253631   5.851   1.642   0.966  2.1659 -1.0795 -2.5628
10714TIP3   OH253632   1.008   6.153   0.822  0.2136 -0.2910  0.0001
10714TIP3    H153633   1.052   6.238   0.817  1.6416 -0.8675  1.5786
10714TIP3    H253634   1.017   6.116   0.734  2.0802  0.0515  0.0043
10715TIP3   OH253635   5.616   3.276  11.186 -0.6673  0.4015 -0.4527
10715TIP3    H153636   5.528   3.315  11.188 -0.7811  0.1439 -0.3831
10715TIP3    H253637   5.663   3.327  11.120 -0.7309  0.8283 -0.1746
10716TIP3   OH253638   0.879   4.667  14.212 -0.4216  0.3397 -0.2697
10716TIP3    H153639   0.966   4.632  14.189  0.0883  0.2776  1.5729
10716TIP3    H253640   0.872   4.748  14.162  0.7688  0.4318 -0.3264
10717TIP3   OH253641   4.955   0.636  11.381  0.3422 -0.5803  0.4268
10717TIP3    H153642   5.049   0.634  11.367  0.4397  0.0102  0.9607
10717TIP3    H253643   4.930   0.544  11.389  0.5633 -0.8717 -1.6269
10718TIP3   OH253644   1.160   3.141  14.177 -0.3810  0.0377  0.9447
10718TIP3    H153645   1.197   3.185  14.100  0.4729  1.9883  2.3718
10718TIP3    H253646   1.138   3.213  14.237 -2.0019 -1.3588  2.1199
10719TIP3   OH253647   0.805   1.172   4.541  0.1858 -0.3743 -0.5834
10719TIP3    H153648   0.833   1.241   4.601  1.1939 -3.9100  3.5459
10719TIP3    H253649   0.731   1.210   4.493  1.4577  3.8497  0.4150
10720TIP3   OH253650   0.568   6.306   1.554  0.1236  0.3958 -0.1275
10720TIP3    H153651   0.624   6.346   1.488  1.1542 -0.6469  0.0768
10720TIP3    H253652   0.628   6.253   1.607 -1.4494 -3.2886 -1.7725
10721TIP3   OH253653   3.578   1.528  12.273  0.6360 -0.4769 -0.5752
10721TIP3    H153654   3.672   1.545  12.266  1.3950 -3.0560  1.6569
10721TIP3    H253655   3.572   1.434  12.284 -2.2749 -0.3802 -0.7554
10722TIP3   OH253656   1.608   5.182   1.907  0.2391  0.0707  0.2066
10722TIP3    H153657   1.699   5.206   1.921  0.2335 -1.3784  3.6934
10722TIP3    H253658   1.563   5.209   1.987 -1.6346 -2.5008  0.1540
10723TIP3   OH253659   2.021   2.512   0.875  1.3869 -0.5681 -0.4590
10723TIP3    H153660   1.947   2.496   0.817  0.5553  1.1560  0.0408
10723TIP3    H253661   2.029   2.432   0.927  1.4332 -1.6979 -2.1310
10724TIP3   OH253662   6.406   4.696   4.560 -0.2337  0.5580 -0.3038
10724TIP3    H153663   6.461   4.660   4.491  1.9017  2.6085  0.1850
10724TIP3    H253664   6.393   4.787   4.536 -1.8656  0.6073  0.5985
10725TIP3   OH253665   0.414   3.112  10.850 -0.3739 -0.4819  0.3580
10725TIP3    H153666   0.444   3.201  10.836 -2.1206  0.2362  0.8721
10725TIP3    H253667   0.477   3.057  10.803  0.6004  1.0235 -0.1523
10726TIP3   OH253668   4.781   2.524   1.935 -0.1678 -0.0934  0.3380
10726TIP3    H153669   4.797   2.514   2.029 -0.4805 -1.8091  0.2363
10726TIP3    H253670   4.855   2.576   1.904  1.4509 -1.8413  1.0761
10727TIP3   OH253671   5.994   5.221   1.196  0.6785  0.0380 -0.2053
10727TIP3    H153672   5.974   5.283   1.126  1.3087 -0.4096 -0.7961
10727TIP3    H253673   6.065   5.263   1.245 -0.1336  0.6045  0.5263
10728TIP3   OH253674   0.925   2.782  11.859  0.0076  0.0000  0.1683
10728TIP3    H153675   0.858   2.771  11.926 -0.4257  0.5332 -0.1682
10728TIP3    H253676   0.935   2.696  11.819  0.7928 -0.4982  1.3990
10729TIP3   OH253677   2.597   3.052  16.357  0.0412  0.5598 -0.3092
10729TIP3    H153678   2.688   3.078  16.372  0.0153  2.0791 -2.3116
10729TIP3    H253679   2.564   3.028  16.443  1.7273  2.0611  0.8222
10730TIP3   OH253680   3.176   3.969  15.695 -0.1445  0.1960 -0.3958
10730TIP3    H153681   3.106   4.008  15.747 -0.7951 -0.2367 -0.9277
10730TIP3    H253682   3.145   3.974  15.605  0.5370  0.0448 -0.6463
10731TIP3   OH253683   4.714   2.456   0.167  0.5952 -0.2599  0.0146
10731TIP3    H153684   4.768   2.457   0.088  0.4541 -2.3326 -0.1687
10731TIP3    H253685   4.659   2.378   0.158 -1.9229  1.3402  0.5699
10732TIP3   OH253686   5.610   1.327  14.727  0.0401  0.2465 -0.1205
10732TIP3    H153687   5.702   1.322  14.702  0.2694  1.6584  0.3494
10732TIP3    H253688   5.588   1.420  14.718 -1.1131  0.0580  0.5577
10733TIP3   OH253689   6.316   3.282   4.415 -0.0393  0.5452 -0.0093
10733TIP3    H153690   6.316   3.188   4.435 -0.5716  0.2372 -1.3730
10733TIP3    H253691   6.237   3.315   4.457 -0.2938  0.2196 -0.2272
10734TIP3   OH253692   2.812   3.959   3.178 -0.3569 -0.0493 -0.3105
10734TIP3    H153693   2.816   3.874   3.135  0.6841  0.5108 -1.3686
10734TIP3    H253694   2.719   3.970   3.200 -0.2857 -2.1465  1.3441
10735TIP3   OH253695   6.078   6.699   6.107 -0.4050 -0.1535 -0.1258
10735TIP3    H153696   6.134   6.656   6.043 -0.5537 -1.2558  0.4483
10735TIP3    H253697   6.139   6.732   6.173 -0.3779 -0.9562  0.2682
10736TIP3   OH253698   6.311   0.017   5.878 -0.4656  0.1665  0.8516
10736TIP3    H153699   6.300  -0.007   5.970 -1.7745  1.8856  1.1861
10736TIP3    H253700   6.326   0.111   5.879 -0.1580  0.1604 -0.6773
10737TIP3   OH253701   5.970   6.316  13.828 -0.4250 -0.1794 -0.2415
10737TIP3    H153702   5.958   6.388  13.766  0.1955 -0.2832 -0.4947
10737TIP3    H253703   5.979   6.358  13.913 -0.9568 -0.0157 -0.2619
10738TIP3   OH253704   0.287   4.080  16.245 -0.7899 -0.6119 -0.3940
10738TIP3    H153705   0.356   4.071  16.180 -0.4074  0.6382 -0.1795
10738TIP3    H253706   0.230   4.004  16.230  0.5487 -1.5913 -0.6453
10739TIP3   OH253707   0.898   4.872  12.029  0.1370  0.5174 -0.5152
10739TIP3    H153708   0.850   4.886  11.947  0.1490  1.8833 -0.3053
10739TIP3    H253709   0.978   4.923  12.020  0.7418 -0.3428 -0.1493
10740TIP3   OH253710   6.403   4.179  14.008  0.3143 -0.5844  0.6341
10740TIP3    H153711   6.496   4.196  14.024  0.3746 -0.6412  0.3604
10740TIP3    H253712   6.371   4.259  13.967 -0.1342  0.0465  2.1452
10741TIP3   OH253713   4.927   0.652   0.519 -0.4979 -0.3097  0.4813
10741TIP3    H153714   5.002   0.709   0.501 -0.8777  0.8163  2.2541
10741TIP3    H253715   4.915   0.602   0.438  1.7131 -0.0178 -0.0807
10742TIP3   OH253716   1.674   6.088  12.193  0.4773 -0.7290  0.2910
10742TIP3    H153717   1.757   6.109  12.235 -0.1129  0.9849  0.6954
10742TIP3    H253718   1.610   6.092  12.264 -0.4145  1.3512 -0.5534
10743TIP3   OH253719   0.887   1.324   6.521  0.2940 -0.3146  0.6429
10743TIP3    H153720   0.840   1.307   6.603  0.1047  1.2486  0.9005
10743TIP3    H253721   0.822   1.364   6.464  0.6390 -0.6286  0.0147
10744TIP3   OH253722   1.207   4.211   3.659  0.1958 -0.0854  0.4332
10744TIP3    H153723   1.232   4.304   3.656 -1.5761  0.4017 -0.2653
10744TIP3    H253724   1.280   4.166   3.615  0.0918  1.2277 -1.1871
10745TIP3   OH253725   4.158   5.491   1.860 -0.4301  0.2055 -0.8900
10745TIP3    H153726   4.236   5.441   1.836  0.0216  1.0383 -1.2177
10745TIP3    H253727   4.189   5.556   1.923 -1.1019 -0.2286 -0.0919
10746TIP3   OH253728   5.666   2.816  17.274 -0.7300  0.0640  0.0115
10746TIP3    H153729   5.586   2.814  17.222  0.0931  1.1314 -1.3881
10746TIP3    H253730   5.702   2.904  17.258  1.7659 -1.0621 -1.0993
10747TIP3   OH253731   2.643   4.961   0.417 -0.2601  0.3461 -0.2198
10747TIP3    H153732   2.658   5.013   0.497  0.8259  0.6532 -0.6099
10747TIP3    H253733   2.578   5.012   0.368  0.5691  1.2086 -0.4574
10748TIP3   OH253734   4.554   3.494   1.933 -0.5360  0.1733  0.2646
10748TIP3    H153735   4.521   3.443   1.859 -0.8072  0.6426  0.0596
10748TIP3    H253736   4.479   3.503   1.991  0.2934 -2.4820  1.9381
10749TIP3   OH253737   1.644   2.588  16.207  0.3579  0.1530  0.0718
10749TIP3    H153738   1.688   2.518  16.160  0.2292 -0.1990  0.4676
10749TIP3    H253739   1.699   2.604  16.283 -0.5780 -0.8512  1.0124
10750TIP3   OH253740   6.041   6.505   1.468 -0.4526  0.0589 -0.3271
10750TIP3    H153741   6.116   6.481   1.413  0.4858 -3.9265  2.2029
10750TIP3    H253742   5.965   6.475   1.419 -0.0618  0.6153 -1.2927
10751TIP3   OH253743   2.749   4.652  17.032 -0.2858 -0.3435 -0.0463
10751TIP3    H153744   2.805   4.726  17.055  0.4973 -1.1955  0.9640
10751TIP3    H253745   2.665   4.690  17.010  0.1671  0.8576  0.2490
10752TIP3   OH253746   1.099   3.901   3.876 -0.0272  0.1484  0.0230
10752TIP3    H153747   1.136   3.898   3.964 -1.0250  1.0575  0.5000
10752TIP3    H253748   1.152   3.839   3.826  1.5850  0.7926  0.8581
10753TIP3   OH253749   6.740   6.683  16.928  0.0484  0.1005  0.2755
10753TIP3    H153750   6.801   6.615  16.956  2.0027  1.5712 -0.2135
10753TIP3    H253751   6.754   6.690  16.834 -1.3768  0.0362  0.0378
10754TIP3   OH253752   0.774   3.754  13.255 -0.1178 -0.3427 -0.4710
10754TIP3    H153753   0.702   3.711  13.209 -0.6189  0.0915 -0.0974
10754TIP3    H253754   0.732   3.817  13.314  0.5911  0.7017 -1.0365
10755TIP3   OH253755   6.490   4.403  13.853  0.8186  0.3828 -0.6751
10755TIP3    H153756   6.430   4.389  13.780 -0.2806 -0.5473  0.3729
10755TIP3    H253757   6.550   4.328  13.849 -0.5592 -0.8496  0.5941
10756TIP3   OH253758   3.523   3.515  11.805 -0.1783 -0.4703  0.3555
10756TIP3    H153759   3.604   3.483  11.765 -0.2233  0.6974 -0.7177
10756TIP3    H253760   3.548   3.538  11.894  0.7120 -0.0499  0.0143
10757TIP3   OH253761   2.584   5.478   0.577  0.0983  0.0112  0.1135
10757TIP3    H153762   2.526   5.409   0.545 -0.6675  1.0381 -0.7691
10757TIP3    H253763   2.532   5.526   0.641 -0.3896  1.5193 -1.3745
10758TIP3   OH253764   2.670   3.212  12.111 -0.0974  0.2623 -0.1121
10758TIP3    H153765   2.691   3.303  12.094 -1.1627  0.4602 -0.4600
10758TIP3    H253766   2.582   3.200  12.073  0.6801 -1.3287 -1.5487
10759TIP3   OH253767   2.135   1.328  15.596  0.0787  0.3673 -0.1852
10759TIP3    H153768   2.128   1.245  15.550  0.6722 -0.6339  1.4454
10759TIP3    H253769   2.180   1.307  15.678 -0.9108  2.0562  0.8646
10760TIP3   OH253770   1.922   3.246  16.787 -0.1445  0.0632 -0.2510
10760TIP3    H153771   1.994   3.211  16.840  0.1682  0.4974 -0.3784
10760TIP3    H253772   1.952   3.236  16.697  0.6826  2.1149 -0.2673
10761TIP3   OH253773   6.740   1.967   0.545  0.0069 -0.0927 -0.1538
10761TIP3    H153774   6.666   1.910   0.521  0.1090  0.3791 -1.6998
10761TIP3    H253775   6.704   2.055   0.540  0.9337  0.2282 -2.1229
10762TIP3   OH253776   0.731   2.667   0.267 -0.1494  0.9673 -0.5946
10762TIP3    H153777   0.789   2.662   0.191 -1.2291  0.1827 -1.4090
10762TIP3    H253778   0.659   2.607   0.246 -0.5282  0.8046  1.0114
10763TIP3   OH253779   0.343   4.777  15.246 -0.3548 -0.5310 -0.5229
10763TIP3    H153780   0.319   4.856  15.294  1.3836 -0.7132  0.7359
10763TIP3    H253781   0.347   4.805  15.154 -0.7032  0.5981 -0.2041
10764TIP3   OH253782   5.736   1.866   5.067 -0.4030 -0.5511 -0.1985
10764TIP3    H153783   5.718   1.790   5.123 -1.6789 -0.9687 -1.1337
10764TIP3    H253784   5.671   1.861   4.998  0.3459  0.6661 -1.0327
10765TIP3   OH253785   4.363   5.398   5.249 -0.2554  0.1845 -0.0650
10765TIP3    H153786   4.457   5.391   5.265 -0.3550  0.0841  0.5157
10765TIP3    H253787   4.353   5.389   5.155  0.2509 -0.6058 -0.0486
10766TIP3   OH253788   3.639   4.082   0.550  0.0652 -0.5286  0.0895
10766TIP3    H153789   3.693   4.098   0.473 -0.7559  3.0980  0.0771
10766TIP3    H253790   3.695   4.106   0.624 -0.3346 -0.4018  0.3551
10767TIP3   OH253791   4.542   1.682  12.558 -0.0461  0.9105 -0.5130
10767TIP3    H153792   4.544   1.608  12.618 -0.2203 -0.3544 -2.0282
10767TIP3    H253793   4.611   1.664  12.494  0.0055  2.1235 -0.8359
10768TIP3   OH253794   4.868   3.215   4.831  0.0503 -0.3506 -0.3736
10768TIP3    H153795   4.884   3.148   4.897 -0.2289 -1.2080 -1.1440
10768TIP3    H253796   4.809   3.172   4.768  2.7368 -0.7293 -2.8618
10769TIP3   OH253797   4.315   0.256   2.072 -0.0502  0.5216 -0.0538
10769TIP3    H153798   4.271   0.188   2.022 -1.0352  0.6384  0.6276
10769TIP3    H253799   4.245   0.302   2.117  0.6687  1.4943  0.1101
10770TIP3   OH253800   3.793   3.678  11.956  0.0406 -0.1525 -0.6309
10770TIP3    H153801   3.824   3.599  11.913  0.6816  0.0686 -0.5873
10770TIP3    H253802   3.792   3.744  11.886 -2.4495 -0.6540 -1.1681
10771TIP3   OH253803   6.341   0.979  12.055  0.0967  0.1731 -0.1320
10771TIP3    H153804   6.291   0.971  12.137  0.3893 -1.4667 -0.0697
10771TIP3    H253805   6.317   1.065  12.020  1.7805  2.0641  2.8613
10772TIP3   OH253806   5.645   3.093   0.806 -0.3124 -0.3674  0.0698
10772TIP3    H153807   5.639   3.178   0.762 -0.8809 -0.6582 -0.4331
10772TIP3    H253808   5.608   3.107   0.892  2.5929  0.7076  1.2621
10773TIP3   OH253809   4.140   3.768   4.371 -0.2020 -0.4270 -0.0981
10773TIP3    H153810   4.183   3.692   4.410 -0.5885 -0.3051  0.5906
10773TIP3    H253811   4.166   3.841   4.427 -1.2654 -0.3474  0.3139
10774TIP3   OH253812   0.821   4.206   6.281 -0.1670  0.1449 -0.3798
10774TIP3    H153813   0.768   4.135   6.245 -0.3280 -0.5203  1.1058
10774TIP3    H253814   0.910   4.189   6.247 -0.6437  0.6168 -1.9492
10775TIP3   OH253815   4.498   2.285   2.239 -0.3379  0.2483  0.1437
10775TIP3    H153816   4.552   2.236   2.177 -0.8031  0.8832 -0.7918
10775TIP3    H253817   4.441   2.218   2.278  0.9327 -0.3865  0.9769
10776TIP3   OH253818   3.505   6.069   1.954 -0.7347  0.6808 -0.0121
10776TIP3    H153819   3.420   6.103   1.984 -0.7632  0.3924  0.2408
10776TIP3    H253820   3.509   6.094   1.862 -1.5378 -0.1462 -0.2970
10777TIP3   OH253821   4.978   4.840  14.682  0.2711 -0.4699  0.0565
10777TIP3    H153822   5.036   4.805  14.750  0.1938 -1.8225 -0.5282
10777TIP3    H253823   5.037   4.876  14.616  0.3500  0.7009  0.7380
10778TIP3   OH253824   4.694   6.206   3.412 -0.1013 -0.2638 -0.1736
10778TIP3    H153825   4.771   6.168   3.368 -0.0088 -0.7217  0.3737
10778TIP3    H253826   4.694   6.298   3.385  0.9296 -0.1384  0.1973
10779TIP3   OH253827   3.526   2.043  12.472 -0.4768  0.0949 -0.0225
10779TIP3    H153828   3.474   2.099  12.414  0.1306  1.3630  0.6037
10779TIP3    H253829   3.576   2.105  12.526 -0.2747 -1.0505  1.1592
10780TIP3   OH253830   3.374   3.975   5.122 -0.1839  0.4199  0.3633
10780TIP3    H153831   3.284   3.955   5.098 -0.5225  2.0413  0.1930
10780TIP3    H253832   3.422   3.976   5.040 -0.0654 -0.1113  0.4206
10781TIP3   OH253833   3.309   4.175  16.195  0.1737  0.1973  0.3120
10781TIP3    H153834   3.390   4.171  16.144  0.6018  1.5951  0.8422
10781TIP3    H253835   3.325   4.119  16.271  0.7736  0.6905  0.5632
10782TIP3   OH253836   5.716   2.909   1.116  0.2412 -0.0377  0.3606
10782TIP3    H153837   5.772   2.889   1.191 -0.2712  2.5328  1.5425
10782TIP3    H253838   5.730   2.836   1.055  1.0549 -1.9900  2.7122
10783TIP3   OH253839   1.496   6.535  11.159 -0.6046  1.0832  0.0366
10783TIP3    H153840   1.432   6.465  11.169 -0.4581  0.4109 -2.8953
10783TIP3    H253841   1.567   6.511  11.219 -1.9676  0.5163  1.4886
10784TIP3   OH253842   1.919   5.107   1.157  0.1444  0.0633  0.0858
10784TIP3    H153843   1.880   5.060   1.083  0.1723  0.2308 -0.0359
10784TIP3    H253844   1.846   5.156   1.196  0.1569  0.0828  0.0853
10785TIP3   OH253845   3.505   6.430  14.970  0.1665 -1.0237 -0.3166
10785TIP3    H153846   3.452   6.358  15.006  0.4344 -1.8994 -1.6001
10785TIP3    H253847   3.589   6.422  15.016 -0.0974 -0.9813  0.1783
10786TIP3   OH253848   6.799   5.274  10.766 -0.0542 -0.1110  0.6477
10786TIP3    H153849   6.821   5.218  10.691  0.9433 -1.2763  1.7705
10786TIP3    H253850   6.879   5.324  10.782  0.0431 -0.5064  1.4537
10787TIP3   OH253851   3.822   5.541   5.521 -1.2686  0.5138 -0.1241
10787TIP3    H153852   3.787   5.586   5.598  0.1767  0.8281  0.3771
10787TIP3    H253853   3.841   5.612   5.459  2.0101  0.8554  1.0600
10788TIP3   OH253854   6.756   4.349  17.313  0.2451 -0.4972 -0.0425
10788TIP3    H153855   6.743   4.257  17.290 -1.6401 -0.7579  1.7714
10788TIP3    H253856   6.772   4.348  17.408  0.2059  1.0502  0.0025
10789TIP3   OH253857   6.042   1.162   1.332  0.1161  0.1638 -0.4893
10789TIP3    H153858   6.057   1.144   1.240  1.4685  1.1135 -0.4788
10789TIP3    H253859   6.005   1.250   1.334  0.1082  0.1539 -0.1387
10790TIP3   OH253860   2.380   0.130   1.390  0.2452  0.1010  0.1438
10790TIP3    H153861   2.406   0.196   1.325  0.2354 -0.1191 -0.0837
10790TIP3    H253862   2.351   0.181   1.466 -0.7279  0.3773 -0.4002
10791TIP3   OH253863   0.425   3.627  10.701  0.1033  0.5801  0.1509
10791TIP3    H153864   0.390   3.716  10.711 -0.4866  0.6062 -1.7133
10791TIP3    H253865   0.520   3.639  10.693  0.2063  0.8585  1.5108
10792TIP3   OH253866   5.019   3.753  12.074 -0.2027  0.9477 -0.0435
10792TIP3    H153867   5.019   3.811  12.151  0.2019 -0.9485  1.4523
10792TIP3    H253868   5.109   3.721  12.069 -1.0083 -1.7091  0.9152
10793TIP3   OH253869   3.924   2.858  16.156  0.5705 -0.0546  0.2129
10793TIP3    H153870   3.927   2.908  16.075  0.6856  0.5378  0.5768
10793TIP3    H253871   3.966   2.775  16.135 -0.8721 -0.5695 -0.7814
10794TIP3   OH253872   3.784   3.794  16.157 -0.1596 -0.2678  0.8029
10794TIP3    H153873   3.770   3.710  16.202 -0.9243 -1.1344 -0.9480
10794TIP3    H253874   3.740   3.783  16.073  0.6862  1.5127  0.0901
10795TIP3   OH253875   3.158   0.500  13.073  0.5533  0.4113  0.3241
10795TIP3    H153876   3.167   0.432  13.139 -0.5882  0.6158  0.7156
10795TIP3    H253877   3.180   0.457  12.990  0.5256 -0.2366  0.6555
10796TIP3   OH253878   3.068   2.806   1.509  0.4129 -0.2129  0.2584
10796TIP3    H153879   3.127   2.864   1.461 -0.9157  2.8388  2.0346
10796TIP3    H253880   3.078   2.832   1.601 -0.9636 -2.1724  1.0357
10797TIP3   OH253881   6.516   5.965   0.491 -0.2495  0.5947  0.1021
10797TIP3    H153882   6.535   6.015   0.571 -0.7851 -1.3765  1.5256
10797TIP3    H253883   6.423   5.942   0.500 -0.8293  1.8398 -2.0065
10798TIP3   OH253884   1.170   2.497  15.677  0.2205  0.0921 -0.2928
10798TIP3    H153885   1.076   2.508  15.666  0.2203  0.0009 -0.3826
10798TIP3    H253886   1.207   2.517  15.592  0.0705 -2.3678 -1.0201
10799TIP3   OH253887   3.745   6.057  11.690  0.5864 -0.4254  0.3867
10799TIP3    H153888   3.815   6.105  11.647  0.0031 -0.7452 -0.9919
10799TIP3    H253889   3.716   5.993  11.624 -1.9736  0.6703  0.3194
10800TIP3   OH253890   6.345   2.498  13.512 -0.0823 -0.4007  0.1694
10800TIP3    H153891   6.431   2.535  13.532  0.3062 -1.6959  1.0602
10800TIP3    H253892   6.286   2.535  13.577 -0.4391  1.2152 -1.0095
10801TIP3   OH253893   6.538   1.875  15.340 -0.2462 -0.3329 -0.1977
10801TIP3    H153894   6.566   1.941  15.403  1.9762 -1.5265  0.1261
10801TIP3    H253895   6.463   1.832  15.381  0.4583 -0.3216  1.1249
10802TIP3   OH253896   3.087   1.226   4.731  0.1445 -0.3558  0.0596
10802TIP3    H153897   3.104   1.131   4.732 -1.5995 -0.6923  0.2584
10802TIP3    H253898   3.127   1.256   4.650  2.5502 -0.8676  0.9647
10803TIP3   OH253899   0.945   4.267   1.190  0.1369 -0.4257  0.3750
10803TIP3    H153900   0.992   4.190   1.158  1.5392  0.4737  0.1522
10803TIP3    H253901   0.854   4.254   1.162  0.7421 -1.0381 -1.4623
10804TIP3   OH253902   3.445   6.217  12.456  0.5519  0.2479 -0.2676
10804TIP3    H153903   3.459   6.295  12.402 -0.4378  0.2194 -0.5802
10804TIP3    H253904   3.391   6.160  12.403 -2.5798  1.2429  1.5881
10805TIP3   OH253905   3.503   1.230  15.285  0.1157 -0.5069  0.1553
10805TIP3    H153906   3.499   1.138  15.258 -1.3662  0.0979 -1.9986
10805TIP3    H253907   3.595   1.246  15.304  0.5830 -2.1609 -0.5555
10806TIP3   OH253908   4.096   5.642   4.049  0.7009 -0.1752  0.0368
10806TIP3    H153909   4.121   5.668   4.138  0.9020  1.4942 -0.4772
10806TIP3    H253910   4.057   5.555   4.060 -0.3156  0.4528  1.9150
10807TIP3   OH253911   5.664   6.151   5.506  0.1873  0.0774  0.1850
10807TIP3    H153912   5.586   6.159   5.451 -0.8485 -1.8414  1.2861
10807TIP3    H253913   5.680   6.057   5.513  0.8362  0.2847  2.3720
10808TIP3   OH253914   1.056   5.628  11.408  0.1960 -0.1420  0.3519
10808TIP3    H153915   0.999   5.649  11.334 -1.0862 -3.1914  0.3179
10808TIP3    H253916   1.001   5.644  11.486  0.6508  0.5787  0.5325
10809TIP3   OH253917   4.842   0.603  12.817 -0.1776 -0.0474  0.3932
10809TIP3    H153918   4.802   0.525  12.778  1.5438 -0.4445 -0.6826
10809TIP3    H253919   4.899   0.568  12.886  0.9581  0.1650 -0.3974
10810TIP3   OH253920   5.859   5.757   0.279 -0.0603 -0.1053 -0.3617
10810TIP3    H153921   5.784   5.786   0.332  0.0700  0.5646 -0.5315
10810TIP3    H253922   5.927   5.740   0.344 -0.4242 -0.9359 -0.1890
10811TIP3   OH253923   2.939   4.962   2.798 -0.3731 -0.9532 -0.1732
10811TIP3    H153924   2.897   4.877   2.814 -2.6383 -0.5471 -3.1247
10811TIP3    H253925   2.877   5.009   2.743  1.2385  2.3201  0.6080
10812TIP3   OH253926   5.031   1.114   0.040  0.0866  0.2025  0.4682
10812TIP3    H153927   4.963   1.139  -0.021  0.3400  1.6970  0.7575
10812TIP3    H253928   5.113   1.137  -0.004  0.2451  3.5653  2.1681
10813TIP3   OH253929   5.793   0.759  13.316  0.1514 -0.3214 -0.1188
10813TIP3    H153930   5.763   0.850  13.322  1.3174  0.2721 -2.2503
10813TIP3    H253931   5.712   0.708  13.309 -0.5424  0.4499  1.4958
10814TIP3   OH253932   1.792   0.940   4.062 -0.4628 -0.2321  0.6775
10814TIP3    H153933   1.736   0.931   4.138 -0.1967  1.1582  1.0666
10814TIP3    H253934   1.881   0.928   4.095 -0.3597  0.1722  0.5583
10815TIP3   OH253935   1.067   5.217   0.292 -0.1476 -0.3507  0.1797
10815TIP3    H153936   1.095   5.139   0.341 -0.5320  0.6816  2.1307
10815TIP3    H253937   1.135   5.282   0.310  1.0609 -0.6435 -2.7720
10816TIP3   OH253938   1.353   4.215   5.956 -0.3929 -0.3865  0.3825
10816TIP3    H153939   1.334   4.199   6.048 -0.5979  0.2895  0.4614
10816TIP3    H253940   1.267   4.234   5.917 -0.3173 -0.7402  0.0373
10817TIP3   OH253941   2.924   1.191   1.854 -0.2949  0.2058 -0.2808
10817TIP3    H153942   2.962   1.158   1.773 -2.2938 -0.0876 -1.1473
10817TIP3    H253943   2.840   1.146   1.861 -1.2868  2.1154  0.6259
10818TIP3   OH253944   5.134   0.426  16.548 -0.2662 -0.2317 -0.3001
10818TIP3    H153945   5.218   0.383  16.532  0.4017  0.7756  0.3509
10818TIP3    H253946   5.158   0.510  16.587 -1.6061 -0.2581  0.6367
10819TIP3   OH253947   0.765   2.914  13.572  0.5035 -0.5396  0.9337
10819TIP3    H153948   0.832   2.868  13.522 -0.4718 -1.0948  0.0845
10819TIP3    H253949   0.733   2.982  13.512 -1.1965 -1.6863  0.4803
10820TIP3   OH253950   5.446   6.059  16.809  0.8963  0.2159  0.2014
10820TIP3    H153951   5.434   5.992  16.876  0.6984 -0.6382 -0.6667
10820TIP3    H253952   5.481   6.012  16.733 -3.7650  0.0083 -2.2056
10821TIP3   OH253953   5.523   0.874  14.922 -0.0882 -0.0497 -0.1736
10821TIP3    H153954   5.551   0.915  15.004 -3.9315  0.1876  1.2253
10821TIP3    H253955   5.521   0.946  14.859  2.6727 -0.1891 -0.5318
10822TIP3   OH253956   3.169   3.442  16.201 -0.8763 -0.1402  0.0528
10822TIP3    H153957   3.162   3.501  16.126 -0.6858  0.3962  0.4547
10822TIP3    H253958   3.152   3.355  16.164  0.4662 -0.0541 -0.8620
10823TIP3   OH253959   1.692   0.533   3.566 -0.2212  0.0232  0.3100
10823TIP3    H153960   1.729   0.515   3.480 -0.6349 -0.1425  0.1638
10823TIP3    H253961   1.646   0.453   3.591 -1.9543  0.7774 -0.2853
10824TIP3   OH253962   6.096   3.536   4.886 -0.6510 -0.4804  0.8838
10824TIP3    H153963   6.177   3.552   4.935 -0.0645  3.0168 -0.8482
10824TIP3    H253964   6.114   3.458   4.834  2.4332  1.0666 -0.6859
10825TIP3   OH253965   2.508   6.280   0.603  0.2013  0.1952  0.4012
10825TIP3    H153966   2.508   6.366   0.647 -1.5325 -0.0411  0.9213
10825TIP3    H253967   2.418   6.269   0.571  0.5054 -1.2559 -0.0205
10826TIP3   OH253968   2.734   2.129  12.686  0.5191 -0.6457  0.0990
10826TIP3    H153969   2.712   2.193  12.753 -0.6005 -1.1681  0.2531
10826TIP3    H253970   2.798   2.071  12.728 -1.3884 -1.9702  1.3560
10827TIP3   OH253971   2.057   5.748  13.265 -0.7245 -0.4342 -0.0245
10827TIP3    H153972   1.976   5.715  13.304 -0.8546  0.4217  0.4463
10827TIP3    H253973   2.028   5.795  13.186 -0.6447 -0.5394 -0.1160
10828TIP3   OH253974   1.320   1.097   1.004  0.5169 -0.0892 -0.3654
10828TIP3    H153975   1.264   1.020   0.996 -1.7245  1.0357  2.5485
10828TIP3    H253976   1.319   1.137   0.917  1.8627 -3.2843 -2.0104
10829TIP3   OH253977   4.609   2.453   1.700 -0.0740 -1.0075  0.8108
10829TIP3    H153978   4.659   2.462   1.781  1.2432 -2.0212  0.1544
10829TIP3    H253979   4.519   2.471   1.726  0.6334  1.3930  1.9388
10830TIP3   OH253980   6.208   3.479  13.465  0.1936  0.5711  0.1987
10830TIP3    H153981   6.187   3.474  13.371 -0.3220 -1.3473  0.3906
10830TIP3    H253982   6.123   3.478  13.509  0.4674 -1.0899  0.7543
10831TIP3   OH253983   3.050   0.130   2.446  0.2461  0.5899  0.3001
10831TIP3    H153984   3.038   0.071   2.371  1.0267  2.1660 -1.1198
10831TIP3    H253985   2.975   0.112   2.502 -0.0264 -1.0920 -0.5161
10832TIP3   OH253986   5.596   4.119  16.668  0.4283  0.6923  0.2288
10832TIP3    H153987   5.631   4.068  16.595 -2.0138 -1.3453  0.3024
10832TIP3    H253988   5.526   4.171  16.629 -0.3047  0.2580  0.9261
10833TIP3   OH253989   0.506   0.969  10.771  0.2099 -0.3887  0.6816
10833TIP3    H153990   0.541   0.883  10.793  0.5897  0.0651  1.9410
10833TIP3    H253991   0.414   0.954  10.752  0.5055 -1.2243 -0.1489
10834TIP3   OH253992   5.972   5.841  14.212 -0.5296  0.6567 -0.2259
10834TIP3    H153993   6.031   5.769  14.231 -1.8430 -0.7733 -1.3176
10834TIP3    H253994   5.947   5.829  14.121 -3.2864  0.5438  0.4412
10835TIP3   OH253995   6.632   4.543  10.276 -0.3275 -0.4290 -0.2715
10835TIP3    H153996   6.548   4.550  10.321 -0.2106  0.2706 -0.1425
10835TIP3    H253997   6.642   4.627  10.230  0.1320 -0.6438 -0.5737
10836TIP3   OH253998   3.809   2.867  14.621  0.0812 -0.0046 -0.5519
10836TIP3    H153999   3.734   2.809  14.608 -0.4540  0.4039  0.5452
10836TIP3    H254000   3.883   2.808  14.634 -0.1811 -0.4241 -0.9519
10837TIP3   OH254001   2.545   0.986  12.105 -0.0361  0.1252 -0.0375
10837TIP3    H154002   2.558   0.914  12.043  0.3908  0.8425 -0.7831
10837TIP3    H254003   2.541   0.942  12.190 -0.5813 -0.8675 -0.5482
10838TIP3   OH254004   5.199   6.151   3.232 -0.2748 -0.3316  0.1327
10838TIP3    H154005   5.250   6.208   3.174 -0.7535  1.7149  1.6177
10838TIP3    H254006   5.257   6.136   3.307 -1.1307  0.4176  0.9587
10839TIP3   OH254007   4.637   2.556  13.414 -0.3328 -0.2975 -0.1322
10839TIP3    H154008   4.721   2.601  13.423  0.9556 -2.2454 -1.5804
10839TIP3    H254009   4.647   2.476  13.465 -1.8292  0.0283  0.7372
10840TIP3   OH254010   6.313   5.373  15.615 -0.2356 -0.0357 -0.5335
10840TIP3    H154011   6.295   5.343  15.525  0.3686 -2.3251  0.0429
10840TIP3    H254012   6.404   5.348  15.631 -0.5162 -0.2287  0.9114
10841TIP3   OH254013   5.651   1.484  12.360 -0.5552 -0.3237 -0.6418
10841TIP3    H154014   5.702   1.477  12.280 -1.0537 -0.2235 -0.9702
10841TIP3    H254015   5.576   1.539  12.337 -0.7430 -0.3554 -0.1295
10842TIP3   OH254016   6.455   3.901   2.987  0.2802  0.0657 -0.0522
10842TIP3    H154017   6.443   3.846   2.910 -1.6803 -0.2610  0.4460
10842TIP3    H254018   6.538   3.946   2.971  0.6376 -1.0698 -1.6706
10843TIP3   OH254019   5.565   3.103   4.970  0.0263 -0.2836  0.2028
10843TIP3    H154020   5.651   3.146   4.968 -0.2074  0.3292  1.9827
10843TIP3    H254021   5.549   3.085   5.063 -1.6243 -0.7246 -0.1329
10844TIP3   OH254022   4.826   3.062   2.741 -0.2031  0.8959  0.0361
10844TIP3    H154023   4.741   3.022   2.758 -1.1744  2.7245 -0.1732
10844TIP3    H254024   4.889   3.002   2.779 -1.4113 -1.4655 -1.4256
10845TIP3   OH254025   2.602   3.172   0.067 -0.1907 -0.2068  0.4172
10845TIP3    H154026   2.687   3.153   0.106 -0.0166  1.7783  1.1381
10845TIP3    H254027   2.619   3.243   0.005 -1.4350  0.8794  1.2587
10846TIP3   OH254028   4.383   6.643   4.962  0.4617  0.6723 -0.2746
10846TIP3    H154029   4.327   6.690   4.900  1.6259 -0.6915 -2.5164
10846TIP3    H254030   4.453   6.704   4.982  1.0496  0.5702 -1.8253
10847TIP3   OH254031   0.457   6.598  12.719  0.2362 -0.1264  0.2945
10847TIP3    H154032   0.385   6.652  12.686  1.3910  0.6357 -1.0618
10847TIP3    H254033   0.534   6.629  12.672  1.1257 -2.2913  0.1848
10848TIP3   OH254034   3.903   6.449  11.532 -0.2378  0.4858 -0.2096
10848TIP3    H154035   3.896   6.453  11.628  0.7513  0.1870 -0.1130
10848TIP3    H254036   3.814   6.434  11.502 -0.4073 -0.5464  0.7401
10849TIP3   OH254037   5.879   6.539   0.475 -0.0128 -0.3438 -0.0265
10849TIP3    H154038   5.939   6.577   0.539  1.9538 -1.8822 -0.8629
10849TIP3    H254039   5.907   6.576   0.391 -3.0642  2.2910 -0.1048
10850TIP3   OH254040   5.131   6.383  13.247  0.6705 -0.1776  0.4473
10850TIP3    H154041   5.145   6.478  13.255  0.0456 -0.2156  2.5315
10850TIP3    H254042   5.076   6.373  13.169 -1.1065  1.4133  1.4129
10851TIP3   OH254043   2.757   2.360   1.992 -0.0941  0.5284  0.2439
10851TIP3    H154044   2.722   2.343   2.079 -0.9786 -1.5303 -0.4462
10851TIP3    H254045   2.680   2.368   1.936  0.4693  1.2404 -0.4587
10852TIP3   OH254046   5.026   4.751  10.561 -0.4043  0.2356 -0.0071
10852TIP3    H154047   5.011   4.816  10.492 -1.5521  1.6801  1.4945
10852TIP3    H254048   5.118   4.727  10.552 -0.1877  1.3730 -1.2131
10853TIP3   OH254049   6.432   4.003  13.554  0.5853  0.2870 -0.1243
10853TIP3    H154050   6.395   4.017  13.641  3.5446 -2.6093  1.8385
10853TIP3    H254051   6.480   4.083  13.535  0.8939  0.5154  1.4987
10854TIP3   OH254052   1.789   0.180  16.866 -0.2882 -0.2548 -0.9162
10854TIP3    H154053   1.787   0.265  16.823  1.0721  0.2598  0.0012
10854TIP3    H254054   1.820   0.198  16.955 -1.4579 -1.5095 -0.2109
10855TIP3   OH254055   4.434   0.205   1.168 -0.0318  0.0973 -0.4121
10855TIP3    H154056   4.433   0.276   1.233  1.9121  0.4917 -0.7582
10855TIP3    H254057   4.462   0.128   1.217 -0.5610 -0.0825 -0.3814
10856TIP3   OH254058   4.536   1.148  17.112  0.1205 -0.3691 -0.5653
10856TIP3    H154059   4.451   1.115  17.143  0.4581 -2.1608 -1.4244
10856TIP3    H254060   4.540   1.238  17.146 -1.8597 -0.4237 -0.0293
10857TIP3   OH254061   4.533   5.463  14.247  0.4998  0.2514 -0.4327
10857TIP3    H154062   4.449   5.435  14.210  0.2164  2.0949 -1.3002
10857TIP3    H254063   4.581   5.501  14.173  1.2521  1.0804  0.4458
10858TIP3   OH254064   2.411   3.648  16.145  0.6436 -0.3363 -0.0585
10858TIP3    H154065   2.370   3.618  16.064 -0.3560 -1.5279  0.8633
10858TIP3    H254066   2.425   3.569  16.197 -0.0761  0.5429  1.5416
10859TIP3   OH254067   1.003   3.013   2.988  0.2025 -0.0255 -0.0191
10859TIP3    H154068   0.956   2.963   2.922  0.7198  1.3672 -1.5142
10859TIP3    H254069   1.073   3.057   2.939 -0.7724  2.8600  1.0070
10860TIP3   OH254070   4.366   5.268  12.057 -0.4997 -0.5932 -0.0451
10860TIP3    H154071   4.309   5.200  12.094  0.1125 -0.8262  0.4797
10860TIP3    H254072   4.351   5.344  12.112 -0.7197 -0.4828 -0.2539
10861TIP3   OH254073   2.856   3.114  13.868 -0.1651  0.5411 -0.1847
10861TIP3    H154074   2.826   3.157  13.949  0.7197 -2.8037  2.1318
10861TIP3    H254075   2.800   3.038  13.859  1.1893 -0.3580 -1.4515
10862TIP3   OH254076   2.863   2.189   3.462  0.2847  0.4377  0.2720
10862TIP3    H154077   2.947   2.220   3.428  0.4869 -0.1516  0.2247
10862TIP3    H254078   2.879   2.098   3.487 -0.4820  0.1399 -0.2716
10863TIP3   OH254079   1.981   5.508   4.556  0.1822  0.1201  0.3951
10863TIP3    H154080   2.066   5.462   4.560  0.6977  0.9719 -0.3774
10863TIP3    H254081   1.967   5.524   4.463 -0.1199  1.2707  0.6264
10864TIP3   OH254082   1.299   4.528  16.261 -0.4178  0.5802 -0.1064
10864TIP3    H154083   1.320   4.468  16.333 -0.5980  1.1648  0.4489
10864TIP3    H254084   1.372   4.591  16.261  0.5785 -0.4935 -1.6716
10865TIP3   OH254085   1.749   2.807   5.954  0.4306 -0.6061 -0.3176
10865TIP3    H154086   1.742   2.854   5.870 -2.0434  0.2038  0.2426
10865TIP3    H254087   1.790   2.870   6.013  0.2210 -0.3838 -0.4067
10866TIP3   OH254088   0.120   3.541  17.185  0.8171 -0.2615  0.4769
10866TIP3    H154089   0.036   3.575  17.156  1.0682 -0.1735 -0.1627
10866TIP3    H254090   0.146   3.480  17.116  1.6033  0.2303  0.3303
10867TIP3   OH254091   1.925   1.051  16.424 -1.0733 -0.4644 -0.3835
10867TIP3    H154092   1.964   1.038  16.337 -0.1582 -0.5695  0.0369
10867TIP3    H254093   1.952   0.975  16.475  1.0046  1.0242  0.9027
10868TIP3   OH254094   0.423   5.445  12.512  0.6345  0.3148  0.5203
10868TIP3    H154095   0.422   5.369  12.571  1.0541 -0.7847 -0.8284
10868TIP3    H254096   0.429   5.406  12.424 -0.8255  1.8627 -0.3108
10869TIP3   OH254097   6.789   6.399   1.323  0.3630 -0.2478 -0.3806
10869TIP3    H154098   6.835   6.354   1.252  1.7751  2.6419 -1.4260
10869TIP3    H254099   6.849   6.467   1.352 -1.5148  0.7891  1.3561
10870TIP3   OH254100   2.201   3.498  11.788  0.1146 -0.4067 -0.0016
10870TIP3    H154101   2.242   3.567  11.840 -0.6556  0.6514 -0.7492
10870TIP3    H254102   2.133   3.544  11.738 -0.7909 -1.8067 -0.0972
10871TIP3   OH254103   5.274   3.879   3.101  0.0281  0.2565 -0.1614
10871TIP3    H154104   5.334   3.946   3.135  0.7645 -0.1672 -0.5994
10871TIP3    H254105   5.226   3.924   3.031  1.0274  0.1553 -0.9407
10872TIP3   OH254106   0.826   1.370  13.340  0.1074 -0.0701  0.3133
10872TIP3    H154107   0.888   1.362  13.268 -1.0149 -0.2658 -0.6669
10872TIP3    H254108   0.748   1.324  13.310 -0.8286  0.9054  1.1388
10873TIP3   OH254109   0.712   3.115  13.374 -0.3410 -0.2367  0.1777
10873TIP3    H154110   0.682   3.043  13.320  1.3969 -0.7854 -0.1027
10873TIP3    H254111   0.783   3.155  13.324 -0.9239  1.3741  0.5569
10874TIP3   OH254112   0.875   1.103   3.170 -0.5062  0.2664  1.2272
10874TIP3    H154113   0.883   1.198   3.179 -0.7784  0.3094  1.0255
10874TIP3    H254114   0.782   1.088   3.158 -0.3291  0.0922 -0.0922
10875TIP3   OH254115   3.119   4.990   2.093 -1.0885  0.1928  0.0430
10875TIP3    H154116   3.156   5.049   2.159  0.4119 -0.2242 -0.3923
10875TIP3    H254117   3.118   5.042   2.013 -0.0244 -0.2694 -0.2791
10876TIP3   OH254118   6.153   3.120  10.931 -0.6327 -0.0448  0.0272
10876TIP3    H154119   6.072   3.164  10.907 -0.6286 -0.6591 -1.1472
10876TIP3    H254120   6.125   3.036  10.968 -0.5230 -0.8445 -1.6187
10877TIP3   OH254121   6.290   0.796  13.324  0.1060 -0.0270 -0.4271
10877TIP3    H154122   6.272   0.806  13.418  0.9972  1.9965 -0.4101
10877TIP3    H254123   6.282   0.702  13.308  1.7676 -0.6972  2.0675
10878TIP3   OH254124   5.958   2.492   4.396 -0.6521  0.1910 -0.0908
10878TIP3    H154125   5.870   2.455   4.397 -0.7568  0.4124 -0.7081
10878TIP3    H254126   5.975   2.515   4.487 -0.9510 -0.5125  0.1471
10879TIP3   OH254127   3.789   3.127   2.256 -0.2803 -0.1782  0.3214
10879TIP3    H154128   3.742   3.078   2.188 -0.2804 -2.5340  1.8944
10879TIP3    H254129   3.880   3.127   2.227 -0.6302  1.2378 -0.9481
10880TIP3   OH254130   3.828   1.016   1.037 -0.1185 -0.1212  0.3921
10880TIP3    H154131   3.909   0.984   0.998 -0.7742 -2.1011  0.5355
10880TIP3    H254132   3.759   0.966   0.992 -1.1676  0.6728  1.0870
10881TIP3   OH254133   3.330   5.418   1.060  0.6403  0.1883  0.1338
10881TIP3    H154134   3.366   5.474   1.128  0.1498  2.4310 -1.3360
10881TIP3    H254135   3.284   5.478   1.001  0.6847 -1.6784 -1.9453
10882TIP3   OH254136   6.157   6.652  15.047 -0.5402  0.1508  0.3304
10882TIP3    H154137   6.107   6.573  15.066 -0.2419 -0.0246  0.3992
10882TIP3    H254138   6.118   6.686  14.967 -1.5703  0.6886  1.0329
10883TIP3   OH254139   1.312   2.931  12.576  0.2919 -0.3989  0.0778
10883TIP3    H154140   1.298   2.843  12.611  1.2269 -0.4978  0.2253
10883TIP3    H254141   1.331   2.985  12.653 -0.6711  0.0253  0.0305
10884TIP3   OH254142   4.071   3.634  11.693  0.3088  0.3354 -0.4872
10884TIP3    H154143   4.055   3.621  11.599 -0.4648 -1.1750 -0.1770
10884TIP3    H254144   4.030   3.718  11.713 -0.3307  0.2361 -1.3246
10885TIP3   OH254145   2.069   5.402   4.284  0.0841 -0.5006 -0.0048
10885TIP3    H154146   2.069   5.395   4.188  0.8713 -0.1874 -0.0366
10885TIP3    H254147   2.100   5.491   4.301  1.8359 -1.1854  0.5622
10886TIP3   OH254148   1.181   5.696   6.387 -0.1940 -0.5125 -0.2931
10886TIP3    H154149   1.164   5.776   6.435 -0.6240 -0.9533  0.3010
10886TIP3    H254150   1.182   5.627   6.453 -0.6166 -1.1032 -0.8878
10887TIP3   OH254151   5.369   0.450  14.124 -0.0983  0.0990 -0.4735
10887TIP3    H154152   5.335   0.423  14.038 -0.3160 -0.9135 -0.0765
10887TIP3    H254153   5.436   0.515  14.103  0.4534 -0.7595 -1.4641
10888TIP3   OH254154   4.685   2.538   2.225 -0.8136 -0.4046 -0.2506
10888TIP3    H154155   4.674   2.490   2.307 -0.4368 -1.7441 -0.9504
10888TIP3    H254156   4.596   2.546   2.190 -1.1773  1.5755  1.0176
10889TIP3   OH254157   0.936   5.419  12.652 -0.0214 -0.5304 -0.2400
10889TIP3    H154158   0.998   5.386  12.587  1.8630 -0.3906  1.3990
10889TIP3    H254159   0.867   5.352  12.655  0.0199 -0.6920 -2.1062
10890TIP3   OH254160   1.611   6.023   0.997  0.0527 -0.3402  0.3714
10890TIP3    H154161   1.645   5.941   0.961  1.1029 -0.3595  1.3653
10890TIP3    H254162   1.582   6.000   1.085 -2.3794 -0.2646 -0.3376
10891TIP3   OH254163   5.166   5.942  13.692 -0.1997 -0.3600  0.4323
10891TIP3    H154164   5.247   5.920  13.647 -0.6992  0.4961 -0.9672
10891TIP3    H254165   5.118   5.860  13.697  0.6749 -0.8397  1.1400
10892TIP3   OH254166   2.834   2.596  15.084 -0.0481  0.7533 -0.6343
10892TIP3    H154167   2.809   2.562  14.998  0.3808  0.5836 -0.6933
10892TIP3    H254168   2.779   2.673  15.096  0.6043  1.3728 -1.5095
10893TIP3   OH254169   4.593   5.126   1.374 -0.2011  0.0604 -0.4044
10893TIP3    H154170   4.547   5.209   1.392 -1.5958 -0.8683  0.4821
10893TIP3    H254171   4.652   5.116   1.449  1.3028  1.1014 -1.3934
10894TIP3   OH254172   6.189   0.371   4.660  0.1644 -0.3471 -0.5862
10894TIP3    H154173   6.153   0.387   4.572  1.0909  0.5850 -0.8099
10894TIP3    H254174   6.185   0.456   4.703  0.7175 -0.5652 -0.0949
10895TIP3   OH254175   4.076   5.082  10.871 -0.1417 -0.3323 -0.0991
10895TIP3    H154176   4.102   5.077  10.963  0.5074 -0.9678 -0.3118
10895TIP3    H254177   4.089   5.174  10.848  0.4753 -0.3310  0.2195
10896TIP3   OH254178   6.410   3.501  13.946  0.1339  0.1032 -0.2439
10896TIP3    H154179   6.427   3.520  13.853  0.1840 -0.1118 -0.2781
10896TIP3    H254180   6.315   3.493  13.951  0.1644 -0.3186 -0.3573
10897TIP3   OH254181   0.265   4.393   0.969 -0.3482 -0.3543  0.6375
10897TIP3    H154182   0.187   4.362   0.923 -0.0991  0.9339 -0.7128
10897TIP3    H254183   0.236   4.471   1.016 -0.7070 -1.8852  3.1303
10898TIP3   OH254184   4.361   3.294  12.959  0.7857 -0.5285 -0.2475
10898TIP3    H154185   4.428   3.332  12.901  1.0218  0.2572  0.5082
10898TIP3    H254186   4.372   3.341  13.042 -3.0702  2.3804 -1.0881
10899TIP3   OH254187   5.559   4.423  14.139  0.3251 -0.3354 -0.4856
10899TIP3    H154188   5.592   4.416  14.228 -0.5989  1.6336  0.0635
10899TIP3    H254189   5.464   4.416  14.149  0.2406 -0.6120 -1.3973
10900TIP3   OH254190   4.163   1.005  14.224  0.3554  0.1331  0.2118
10900TIP3    H154191   4.139   0.940  14.290 -0.1704 -1.6410 -1.6206
10900TIP3    H254192   4.252   0.982  14.198  0.3381  0.4275 -0.1299
10901TIP3   OH254193   2.664   6.633   1.956 -0.1265  0.7334  0.1478
10901TIP3    H154194   2.633   6.601   1.871 -1.2912  0.6389  0.6032
10901TIP3    H254195   2.588   6.628   2.014  1.2027 -1.4232  1.8643
10902TIP3   OH254196   0.100   0.013  13.944  0.0532  0.2089  0.0646
10902TIP3    H154197   0.045  -0.028  14.010  1.1877 -2.5512 -0.5458
10902TIP3    H254198   0.061  -0.014  13.860  1.7122 -0.9982 -0.3622
10903TIP3   OH254199   3.279   1.612   4.941 -0.0908 -0.6792  0.5520
10903TIP3    H154200   3.256   1.637   4.851 -0.7970 -2.2088  0.2867
10903TIP3    H254201   3.202   1.565   4.973  0.3654 -0.6076  1.7765
10904TIP3   OH254202   6.379   3.186   0.742  0.0112  0.4016  0.2199
10904TIP3    H154203   6.349   3.187   0.651 -0.9328  0.7685  0.5309
10904TIP3    H254204   6.400   3.094   0.759  2.6748  0.6665 -1.1482
10905TIP3   OH254205   6.711   6.407  15.314 -0.3416 -0.3472 -0.1556
10905TIP3    H154206   6.702   6.357  15.395 -0.0100 -3.2730 -1.7823
10905TIP3    H254207   6.677   6.493  15.335  2.4129  0.0051  3.9152
10906TIP3   OH254208   6.750   4.858  12.818  0.3494 -0.2777 -0.1410
10906TIP3    H154209   6.753   4.953  12.801 -0.7442 -0.0774  0.6662
10906TIP3    H254210   6.668   4.830  12.777 -0.5969 -0.4040  1.7302
10907TIP3   OH254211   1.138   2.916   5.530  0.2282  0.5537  0.0620
10907TIP3    H154212   1.054   2.910   5.484  0.2024  0.5401  0.1108
10907TIP3    H254213   1.121   2.975   5.603  0.4562  1.1492 -0.3604
10908TIP3   OH254214   3.433   0.093  13.295  0.1871  0.3653  0.3848
10908TIP3    H154215   3.475   0.069  13.377 -0.5876 -0.6049  0.5217
10908TIP3    H254216   3.367   0.025  13.282  1.0420 -0.1431 -1.6122
10909TIP3   OH254217   1.226   3.876  13.899 -0.0632 -0.5318 -0.4771
10909TIP3    H154218   1.185   3.868  13.812  0.8726  0.8018 -1.0720
10909TIP3    H254219   1.296   3.940  13.886 -1.0560  1.0964  1.6903
10910TIP3   OH254220   1.291   5.074   1.837 -0.3272 -0.1083 -0.2049
10910TIP3    H154221   1.347   5.152   1.843 -1.3547  0.6420  0.1410
10910TIP3    H254222   1.277   5.048   1.928  1.3668 -1.7630 -0.3510
10911TIP3   OH254223   0.062   5.392  13.270  0.0255  0.1645  0.2034
10911TIP3    H154224   0.056   5.351  13.184 -0.3383  1.5748 -0.4750
10911TIP3    H254225   0.155   5.386  13.293  0.4664  1.4059 -1.1381
10912TIP3   OH254226   4.632   2.812  14.477 -0.0249 -0.1995 -0.0032
10912TIP3    H154227   4.719   2.853  14.477  0.8996 -2.0245 -1.4276
10912TIP3    H254228   4.575   2.876  14.436  0.6466  1.0168  0.9152
10913TIP3   OH254229   1.290   3.968   2.329 -0.2252 -0.3828  0.1406
10913TIP3    H154230   1.350   4.024   2.280 -0.2582  0.2000  0.7554
10913TIP3    H254231   1.240   3.921   2.262 -0.1906  0.3202 -0.3774
10914TIP3   OH254232   3.195   4.046  11.853  0.4394  0.1610 -0.0485
10914TIP3    H154233   3.128   4.084  11.909 -0.8497  0.0145 -1.4216
10914TIP3    H254234   3.262   4.114  11.845  0.0180  0.6567  0.5968
10915TIP3   OH254235   2.822   2.482   1.061  0.3117  0.1791  0.0754
10915TIP3    H154236   2.887   2.453   0.998 -1.8196 -4.3201 -0.4287
10915TIP3    H254237   2.738   2.471   1.016 -1.0269  1.9474  1.9757
10916TIP3   OH254238   5.257   3.055  11.312 -0.1291 -0.1401 -0.0895
10916TIP3    H154239   5.180   3.024  11.264 -0.5774  0.0447  0.4971
10916TIP3    H254240   5.289   3.129  11.260 -0.1675 -0.4060 -0.4941
10917TIP3   OH254241   0.351   5.023  16.280 -0.0786  0.7267  0.5960
10917TIP3    H154242   0.354   5.079  16.202 -1.5369 -1.7273 -1.3665
10917TIP3    H254243   0.302   5.075  16.344  0.6697  2.5924 -0.2644
10918TIP3   OH254244   4.095   4.043  15.532  0.3977  0.2977  0.1667
10918TIP3    H154245   4.046   3.991  15.595  0.9904 -1.3260 -0.6448
10918TIP3    H254246   4.177   4.063  15.576  0.3174  0.2193  0.3549
10919TIP3   OH254247   2.645   5.388  15.081 -0.2117 -0.5576 -0.5361
10919TIP3    H154248   2.681   5.470  15.047  0.4223 -0.4998  0.2345
10919TIP3    H254249   2.717   5.325  15.075  0.0345 -0.4701  0.9075
10920TIP3   OH254250   5.897   2.569   0.274  0.0159 -0.6225  0.4335
10920TIP3    H154251   5.871   2.660   0.280 -0.5991 -0.6870 -0.9084
10920TIP3    H254252   5.923   2.557   0.183  0.2414 -1.7427  0.6269
10921TIP3   OH254253   4.672   5.780   0.704  0.3772  0.2249 -0.4583
10921TIP3    H154254   4.685   5.737   0.619  1.4281 -1.1418  0.3544
10921TIP3    H254255   4.595   5.836   0.691  0.3695 -0.1366 -2.2336
10922TIP3   OH254256   3.119   6.437   6.747 -0.1483 -0.2486 -0.0665
10922TIP3    H154257   3.039   6.488   6.761  0.0377  0.0246  0.0219
10922TIP3    H254258   3.157   6.474   6.667  0.6516  0.6299  0.6922
10923TIP3   OH254259   6.501   2.533   4.222  0.1197 -0.1524  0.0204
10923TIP3    H154260   6.412   2.516   4.252  0.5049 -1.5874  0.4024
10923TIP3    H254261   6.556   2.475   4.275  1.0342 -1.1928 -1.9842
10924TIP3   OH254262   3.420   0.265  16.650  0.8377 -0.2182  0.4901
10924TIP3    H154263   3.492   0.268  16.714  0.5928  1.5746  0.7374
10924TIP3    H254264   3.458   0.220  16.574  2.6797  1.6971  0.1554
10925TIP3   OH254265   5.347   4.798  10.963  0.1862  0.4935  0.5588
10925TIP3    H154266   5.281   4.731  10.980  0.9884 -0.2158  0.9200
10925TIP3    H254267   5.307   4.855  10.898 -1.4939  1.1033  2.0467
10926TIP3   OH254268   2.200   1.847   4.942  0.5474  0.2096 -0.3841
10926TIP3    H154269   2.153   1.764   4.939  0.9851 -0.0138 -1.6599
10926TIP3    H254270   2.151   1.905   4.884  0.2701  0.8349  0.4678
10927TIP3   OH254271   2.330   1.791   5.302 -0.1426  0.1663 -0.1172
10927TIP3    H154272   2.250   1.837   5.325 -1.0879 -1.1254 -0.6922
10927TIP3    H254273   2.387   1.800   5.379 -1.4282 -0.1756  0.9016
10928TIP3   OH254274   4.646   0.998   0.730  0.4738 -0.0136 -0.4087
10928TIP3    H154275   4.623   1.007   0.637  0.1704 -3.1646 -0.7548
10928TIP3    H254276   4.734   0.960   0.729  0.2808 -0.5030  0.5876
10929TIP3   OH254277   4.322   4.048  14.504  0.3355  0.2415  0.3047
10929TIP3    H154278   4.338   3.954  14.512  0.7511  0.3750  1.1083
10929TIP3    H254279   4.306   4.062  14.411  2.0922 -0.3600 -0.1308
10930TIP3   OH254280   1.167   2.343   5.665 -0.2064 -0.0277  0.2860
10930TIP3    H154281   1.172   2.324   5.759  1.9346  0.4974  0.3414
10930TIP3    H254282   1.161   2.439   5.661  0.1967 -0.0144 -0.0979
10931TIP3   OH254283   4.099   0.647   2.719 -0.9131  0.2700 -0.0738
10931TIP3    H154284   4.156   0.697   2.777 -1.7079  1.1904 -0.0617
10931TIP3    H254285   4.113   0.686   2.632  0.6997 -1.4692 -0.6569
10932TIP3   OH254286   0.512   5.343  16.572 -0.4379  0.0123 -0.2999
10932TIP3    H154287   0.558   5.275  16.522  1.1137  0.7829  0.0110
10932TIP3    H254288   0.548   5.425  16.538  0.6006  0.5615  1.9639
10933TIP3   OH254289   0.354   4.945   4.547  0.3929 -0.1554 -0.0630
10933TIP3    H154290   0.288   4.877   4.537  1.0407 -0.9861  0.9917
10933TIP3    H254291   0.435   4.903   4.516  0.5897  0.5201 -0.4627
10934TIP3   OH254292   0.864   1.190  12.379 -0.2227  0.2516  0.1595
10934TIP3    H154293   0.922   1.243  12.435  0.3768  0.3791 -0.5667
10934TIP3    H254294   0.864   1.236  12.295 -1.7032  0.4641  0.2594
10935TIP3   OH254295   0.765   1.653   1.318 -0.2949 -0.2504 -0.5611
10935TIP3    H154296   0.730   1.672   1.231  1.1127  0.2910 -1.0508
10935TIP3    H254297   0.860   1.656   1.306 -0.0708  0.4622  1.1304
10936TIP3   OH254298   5.140   3.787   4.362  0.1001  0.1478  0.4286
10936TIP3    H154299   5.119   3.705   4.318 -2.0290  1.7392 -1.7734
10936TIP3    H254300   5.092   3.782   4.445 -0.7906 -0.4895 -0.0973
10937TIP3   OH254301   0.886   6.059   3.666 -0.1277 -0.4418  0.2006
10937TIP3    H154302   0.835   6.061   3.747  0.1687 -0.4283  0.3909
10937TIP3    H254303   0.826   6.090   3.599  0.3054  1.8157  0.7866
10938TIP3   OH254304   0.803   1.653  13.863  0.0054 -0.1873  0.2438
10938TIP3    H154305   0.821   1.712  13.936  2.1611  0.5419 -0.7969
10938TIP3    H254306   0.796   1.710  13.787  1.0146 -1.1577 -0.6067
10939TIP3   OH254307   3.110   6.073  14.275  0.1202 -0.2280  0.0956
10939TIP3    H154308   3.198   6.052  14.305 -0.0458  0.6349  1.2178
10939TIP3    H254309   3.122   6.101  14.184  1.1288  0.6682  0.4830
10940TIP3   OH254310   1.840   4.254  14.138  0.5339 -0.0460  0.0193
10940TIP3    H154311   1.765   4.198  14.161  0.3293  0.2306  0.0345
10940TIP3    H254312   1.806   4.343  14.145  1.2440  0.1404  1.3641
10941TIP3   OH254313   4.403   4.569   2.443 -0.1138  0.4832  0.0073
10941TIP3    H154314   4.368   4.595   2.528 -0.0211 -1.1747  0.5902
10941TIP3    H254315   4.396   4.647   2.389 -0.3968  1.4974  1.4685
10942TIP3   OH254316   1.887   3.924   4.725 -0.4663 -0.4106 -0.4293
10942TIP3    H154317   1.821   3.971   4.674  1.2590  1.5355 -1.0189
10942TIP3    H254318   1.857   3.932   4.815 -0.3256  1.8033 -0.5140
10943TIP3   OH254319   1.908   2.089   2.083 -0.4173  0.1910  0.2138
10943TIP3    H154320   1.819   2.068   2.111 -0.8542  0.9437 -0.5549
10943TIP3    H254321   1.938   2.011   2.037 -1.8362  0.9579 -2.1934
10944TIP3   OH254322   1.126   6.037   1.660  0.7072  0.2457 -0.1874
10944TIP3    H154323   1.040   5.997   1.649  0.4060  0.4469  1.1849
10944TIP3    H254324   1.133   6.053   1.754  1.6314  1.5930 -0.4475
10945TIP3   OH254325   4.535   5.580   2.198 -0.0871 -0.0701 -0.4254
10945TIP3    H154326   4.571   5.610   2.115 -1.5612  2.2022 -0.3260
10945TIP3    H254327   4.595   5.615   2.264 -0.5341  0.7279 -0.4256
10946TIP3   OH254328   1.941   2.989  15.035  0.0355 -0.2295  0.1461
10946TIP3    H154329   2.001   2.960  15.104 -0.5879  0.1348  0.8573
10946TIP3    H254330   1.862   2.937  15.049  0.1109 -0.5829 -0.6740
10947TIP3   OH254331   0.408   0.420  11.658 -0.5408  0.0838  0.6378
10947TIP3    H154332   0.363   0.427  11.742  0.3096 -0.5641  1.1575
10947TIP3    H254333   0.492   0.379  11.678 -0.0665  0.4728 -0.4416
10948TIP3   OH254334   1.937   1.346  12.617 -0.1262 -0.2019  0.4868
10948TIP3    H154335   2.032   1.332  12.611 -0.0852 -0.4620  1.4570
10948TIP3    H254336   1.900   1.278  12.560  0.2656 -0.1898  0.2103
10949TIP3   OH254337   3.617   1.657   3.149 -0.5950 -0.0312 -0.3001
10949TIP3    H154338   3.692   1.682   3.203 -0.9049  0.7288 -0.2044
10949TIP3    H254339   3.648   1.583   3.098 -0.2915 -0.7845  0.9233
10950TIP3   OH254340   1.787   3.532   1.809 -0.0094  0.0830  0.1297
10950TIP3    H154341   1.846   3.546   1.883  0.9533  2.2422 -0.9578
10950TIP3    H254342   1.825   3.458   1.762  0.4775 -0.0435  0.7115
10951TIP3   OH254343   1.760   6.729  15.048  0.5707  0.0698  0.3687
10951TIP3    H154344   1.743   6.779  15.128  0.8342  0.1548  0.3760
10951TIP3    H254345   1.841   6.681  15.067  1.2588  0.9404 -0.2216
10952TIP3   OH254346   5.535   2.960   5.575  0.3054  0.5956 -0.0752
10952TIP3    H154347   5.497   2.910   5.502  0.8300 -0.4736  0.3475
10952TIP3    H254348   5.618   2.915   5.593 -1.1139 -1.1417  3.1252
10953TIP3   OH254349   0.442   1.599   0.186  0.0325 -0.0239 -0.1292
10953TIP3    H154350   0.399   1.619   0.269 -0.0160  1.3947 -0.4659
10953TIP3    H254351   0.534   1.619   0.200  0.7190 -3.1474  0.6165
10954TIP3   OH254352   0.186   1.667  15.400  0.4926 -0.0235  0.1398
10954TIP3    H154353   0.128   1.740  15.379 -1.8592 -0.9891  2.7079
10954TIP3    H254354   0.180   1.657  15.495  2.3528 -2.2939  0.1263
10955TIP3   OH254355   5.159   4.570   5.364  0.7421  0.3347  0.2589
10955TIP3    H154356   5.087   4.523   5.322  0.0460  1.3951  0.2039
10955TIP3    H254357   5.142   4.662   5.343  2.7741  0.5374 -0.7697
10956TIP3   OH254358   4.278   1.848  17.222  0.6620  0.0451 -0.0322
10956TIP3    H154359   4.314   1.887  17.142 -0.4508  0.5140 -0.3184
10956TIP3    H254360   4.215   1.913  17.253 -0.6641 -1.1863 -0.0850
10957TIP3   OH254361   0.625   2.106   0.868 -0.2400  0.3731  0.0646
10957TIP3    H154362   0.713   2.084   0.838 -0.1619 -0.7807  1.0448
10957TIP3    H254363   0.569   2.089   0.792  0.5424  3.0037 -1.2060
10958TIP3   OH254364   3.078   0.159  16.106  0.6164  0.5635 -0.2394
10958TIP3    H154365   3.082   0.215  16.183 -0.3813  1.9953 -1.2018
10958TIP3    H254366   3.051   0.074  16.140  1.8725  0.6856  1.2007
10959TIP3   OH254367   5.804   6.275  11.262  0.0822 -0.2739 -1.0166
10959TIP3    H154368   5.731   6.271  11.325  0.3635 -0.7635 -0.7158
10959TIP3    H254369   5.779   6.345  11.202  0.2629  0.9000  0.2220
10960TIP3   OH254370   5.097   1.893   4.708  0.0903  0.3455  0.5846
10960TIP3    H154371   5.089   1.988   4.698 -0.4903  0.2098 -0.3580
10960TIP3    H254372   5.074   1.858   4.622 -0.1650 -0.6726  1.0524
10961TIP3   OH254373   2.187   5.631  14.841  0.2176  0.1401  0.4287
10961TIP3    H154374   2.101   5.617  14.800  0.6338 -3.7270  0.5227
10961TIP3    H254375   2.249   5.629  14.769  0.4656 -0.6370  0.6506
10962TIP3   OH254376   4.588   2.240  10.419  0.0362  0.3805  0.4127
10962TIP3    H154377   4.496   2.251  10.441 -0.2955  2.5495 -1.7195
10962TIP3    H254378   4.592   2.158  10.371 -1.1347  1.1457 -1.0486
10963TIP3   OH254379   4.710   4.177   5.698  0.1573 -0.2731 -1.1006
10963TIP3    H154380   4.748   4.105   5.648  0.3874 -0.4124 -0.7252
10963TIP3    H254381   4.728   4.156   5.790  0.4749  0.4022 -0.9998
10964TIP3   OH254382   6.086   3.399  11.770  0.1141 -0.1101  0.1140
10964TIP3    H154383   6.050   3.373  11.685 -3.1380 -0.3978  1.4355
10964TIP3    H254384   6.119   3.317  11.807 -1.5163 -0.6674  0.4249
10965TIP3   OH254385   5.897   1.900   6.580  0.2605  0.5817 -0.8538
10965TIP3    H154386   5.857   1.952   6.510 -1.5128  0.4334  0.0221
10965TIP3    H254387   5.840   1.824   6.591  0.5808  0.5192  0.6484
10966TIP3   OH254388   4.574   0.155  12.554 -0.6888 -0.2683 -0.5529
10966TIP3    H154389   4.502   0.114  12.602 -1.5918  0.5407 -1.1659
10966TIP3    H254390   4.547   0.151  12.462  0.3461 -0.5075 -0.8575
10967TIP3   OH254391   5.255   5.862   5.616 -0.1001  0.6634  0.4961
10967TIP3    H154392   5.217   5.925   5.555  0.7929  0.3667 -0.4025
10967TIP3    H254393   5.203   5.871   5.696 -0.2073  2.2966  0.2797
10968TIP3   OH254394   3.444   6.355  14.317  0.0469 -0.2711  0.1135
10968TIP3    H154395   3.511   6.366  14.384  0.4878  0.4783 -0.4466
10968TIP3    H254396   3.385   6.429  14.330  1.4437  1.2744 -1.8227
10969TIP3   OH254397   1.688   1.336   3.921  0.1353 -0.0021  0.3400
10969TIP3    H154398   1.669   1.324   3.828 -1.5778 -2.1241  0.8643
10969TIP3    H254399   1.773   1.293   3.933 -0.1902 -0.7959 -0.0681
10970TIP3   OH254400   6.322   3.717   3.371 -0.3087  0.6445 -0.3158
10970TIP3    H154401   6.398   3.772   3.391  0.9259 -0.7364 -1.0255
10970TIP3    H254402   6.269   3.721   3.451  0.9258  0.9853  0.5304
10971TIP3   OH254403   3.395   6.770  14.743 -0.9387  0.0860  0.6110
10971TIP3    H154404   3.386   6.755  14.838  0.4398 -0.9013  0.6140
10971TIP3    H254405   3.465   6.834  14.735  1.7147 -2.6695  0.1953
10972TIP3   OH254406   4.819   0.141   1.229 -1.2068  0.2203 -0.1676
10972TIP3    H154407   4.787   0.201   1.162 -1.0795 -0.2064 -0.6113
10972TIP3    H254408   4.748   0.079   1.243 -1.0666  0.0463 -0.2232
10973TIP3   OH254409   0.556   6.244  14.791  0.4885  0.6229  0.3370
10973TIP3    H154410   0.640   6.290  14.795  1.6171 -1.2927 -0.3273
10973TIP3    H254411   0.533   6.245  14.698 -0.2836  1.1732  0.5197
10974TIP3   OH254412   6.336   5.939  11.243 -0.0018  0.5401  0.1798
10974TIP3    H154413   6.368   5.848  11.243 -1.1807  0.0655  2.1116
10974TIP3    H254414   6.249   5.934  11.203  0.4050  1.0650 -0.8258
10975TIP3   OH254415   3.274   2.687  11.859 -0.2193 -0.2285 -0.1007
10975TIP3    H154416   3.345   2.646  11.910 -1.1738 -0.7029  0.8817
10975TIP3    H254417   3.316   2.761  11.815  1.0909 -1.0328 -0.2707
10976TIP3   OH254418   5.052   6.638   5.121  0.3741 -0.0810 -0.2117
10976TIP3    H154419   5.066   6.560   5.175 -0.1897  1.2793  2.0400
10976TIP3    H254420   5.134   6.650   5.074 -0.0439 -2.8533 -1.8446
10977TIP3   OH254421   3.971   1.856  16.810  0.3809 -0.2650  0.1880
10977TIP3    H154422   3.885   1.854  16.851  0.7491  0.5561  1.0106
10977TIP3    H254423   3.956   1.897  16.725 -0.7544 -3.7785 -1.4932
10978TIP3   OH254424   3.410   3.294  10.756 -0.1127 -0.3478 -0.0715
10978TIP3    H154425   3.388   3.218  10.702  0.2721 -0.4456 -0.0921
10978TIP3    H254426   3.453   3.355  10.696 -2.5865  0.9609 -0.6545
10979TIP3   OH254427   4.310   4.331  17.251  0.2669  0.0759  0.2186
10979TIP3    H154428   4.290   4.317  17.158 -0.5041  0.4087  0.3294
10979TIP3    H254429   4.233   4.374  17.286  0.8876  0.7222  0.8308
10980TIP3   OH254430   0.961   3.818   0.907 -0.2398 -0.2205 -0.0189
10980TIP3    H154431   1.026   3.829   0.838  0.6590  0.0373  0.8476
10980TIP3    H254432   0.962   3.901   0.955  0.8775 -1.1929  1.7443
10981TIP3   OH254433   3.866   5.950  16.739 -0.4546  0.2085  0.5888
10981TIP3    H154434   3.876   6.044  16.720 -1.2813  0.1867 -0.0136
10981TIP3    H254435   3.803   5.919  16.674 -0.5095 -0.6843  1.0489
10982TIP3   OH254436   2.651   6.455   4.939 -0.5723 -0.1601 -0.4100
10982TIP3    H154437   2.642   6.490   5.028  0.1732  2.8831 -1.4196
10982TIP3    H254438   2.729   6.400   4.943 -0.4024  0.1377  0.7601
10983TIP3   OH254439   6.238   1.412   2.317 -0.3781 -1.3420  0.2130
10983TIP3    H154440   6.192   1.485   2.276  1.4320 -0.4521 -0.3361
10983TIP3    H254441   6.237   1.433   2.410 -0.9159 -1.2293  0.1830
10984TIP3   OH254442   1.133   4.298  12.250 -0.3799 -0.2803  0.1862
10984TIP3    H154443   1.112   4.379  12.295  2.3739  0.0307  1.1049
10984TIP3    H254444   1.141   4.323  12.158  0.8743  0.6457  0.5163
10985TIP3   OH254445   5.089   3.003   4.628  0.2962  0.3605 -0.1368
10985TIP3    H154446   5.041   2.935   4.674  0.5357  0.9234  0.9971
10985TIP3    H254447   5.111   3.067   4.696 -3.4246  3.7342 -1.6447
10986TIP3   OH254448   4.042   5.992  15.441 -0.0990  0.0152 -0.9116
10986TIP3    H154449   3.948   5.986  15.427 -0.0145  0.9181 -1.9634
10986TIP3    H254450   4.053   6.059  15.508 -0.2011 -0.1963 -0.6809
10987TIP3   OH254451   4.536   0.214  11.422 -0.5113  0.6837 -0.3200
10987TIP3    H154452   4.621   0.206  11.378 -0.1293 -0.1035  0.5154
10987TIP3    H254453   4.505   0.301  11.399  0.6686  1.1032 -0.4053
10988TIP3   OH254454   3.495   4.417   2.909  0.1194 -0.1206 -0.4648
10988TIP3    H154455   3.484   4.392   2.818 -1.9297 -2.0202  0.2004
10988TIP3    H254456   3.582   4.385   2.933  0.3194 -0.3880 -1.5082
10989TIP3   OH254457   5.908   1.734   0.404  0.1271 -0.3756  0.4950
10989TIP3    H154458   5.840   1.795   0.432 -1.5908 -1.4570 -1.0570
10989TIP3    H254459   5.935   1.766   0.318 -0.1183 -1.2738  0.0786
10990TIP3   OH254460   0.969   3.352   3.814 -0.1767 -0.6187  0.2950
10990TIP3    H154461   0.944   3.376   3.725  0.9666 -4.7420 -1.3914
10990TIP3    H254462   0.898   3.384   3.869 -1.8759  0.4733 -2.3515
10991TIP3   OH254463   3.838   0.336   3.683  0.9618  0.1070 -0.0226
10991TIP3    H154464   3.749   0.370   3.688  1.2187  0.6161  2.2972
10991TIP3    H254465   3.845   0.300   3.595 -1.7913 -0.6800 -0.0040
10992TIP3   OH254466   6.210   4.063   0.688 -0.3911  0.2008 -0.7805
10992TIP3    H154467   6.220   4.103   0.602  2.5650  0.6268 -0.3345
10992TIP3    H254468   6.222   3.970   0.673  0.9289  0.3505 -0.7709
10993TIP3   OH254469   3.121   2.992  13.354  0.5921  0.1480  0.0394
10993TIP3    H154470   3.047   2.995  13.293 -0.7342  1.4132  1.6197
10993TIP3    H254471   3.193   3.033  13.306 -0.1070  0.1307 -1.0512
10994TIP3   OH254472   2.250   3.248   2.546 -0.5713 -0.1680  0.0100
10994TIP3    H154473   2.189   3.237   2.618 -2.5729 -1.1447 -1.7193
10994TIP3    H254474   2.298   3.165   2.541  0.4190  0.3294  0.9052
10995TIP3   OH254475   5.062   0.575  12.525 -0.1884 -0.2272 -0.0198
10995TIP3    H154476   5.070   0.487  12.561 -4.4739 -0.3805  1.1181
10995TIP3    H254477   5.080   0.633  12.599  1.8918 -0.0568 -0.5877
10996TIP3   OH254478   6.377   0.715   3.497  0.4425  0.1296 -0.1310
10996TIP3    H154479   6.423   0.631   3.502 -1.0861 -0.7022  0.8189
10996TIP3    H254480   6.316   0.704   3.424  0.8912  0.7688 -0.6059
10997TIP3   OH254481   3.080   0.083  12.545  0.3303  0.1736  0.0682
10997TIP3    H154482   3.170   0.049  12.543 -0.6836 -2.7725 -1.5641
10997TIP3    H254483   3.071   0.129  12.462  0.1601 -0.1223 -0.0807
10998TIP3   OH254484   1.646   0.417  12.252  0.2314 -0.1561  0.4999
10998TIP3    H154485   1.569   0.459  12.290 -0.0772 -2.3261  2.4711
10998TIP3    H254486   1.709   0.411  12.324 -0.2565 -4.1196  0.8325
10999TIP3   OH254487   2.413   6.246   5.458  0.4534  0.0822 -0.6346
10999TIP3    H154488   2.365   6.179   5.506 -1.7107  0.6603 -1.8560
10999TIP3    H254489   2.464   6.292   5.525 -1.9630  0.4652  1.0598
11000TIP3   OH254490   4.191   5.781   1.596  0.2875  0.1063  0.0661
11000TIP3    H154491   4.228   5.695   1.619  0.3473  0.5789  1.9116
11000TIP3    H254492   4.165   5.772   1.504  2.8920 -0.9597 -0.6465
11001TIP3   OH254493   3.899   2.132  11.716 -0.4106  0.1179 -0.5406
11001TIP3    H154494   3.981   2.117  11.764  0.3034  1.1204 -1.3935
11001TIP3    H254495   3.882   2.049  11.672 -1.0105 -0.7824  1.2902
11002TIP3   OH254496   5.735   3.568  15.150  0.0047  0.8624 -0.3899
11002TIP3    H154497   5.810   3.605  15.104 -0.5133  0.3640 -1.6721
11002TIP3    H254498   5.764   3.482  15.180 -0.1247  0.5606 -1.1138
11003TIP3   OH254499   0.238   4.914  16.825 -0.2605  0.2014 -0.1341
11003TIP3    H154500   0.284   4.992  16.793 -0.2576  0.0261 -0.5654
11003TIP3    H254501   0.162   4.906  16.768 -2.4076  2.0616  2.2149
11004TIP3   OH254502   3.725   2.807  12.008  0.0748  0.4527  0.6841
11004TIP3    H154503   3.641   2.821  11.964 -1.1675 -1.1337  2.3900
11004TIP3    H254504   3.772   2.747  11.951  0.7726  2.5379 -1.0571
11005TIP3   OH254505   1.761   4.245   5.244  0.3792  0.1051 -0.7934
11005TIP3    H154506   1.693   4.292   5.194  0.2704 -0.1959 -0.9330
11005TIP3    H254507   1.816   4.315   5.281 -0.0683  0.3590 -0.5877
11006TIP3   OH254508   1.043   5.577   1.965  0.5353 -0.6268  0.2856
11006TIP3    H154509   1.093   5.639   2.019  0.0775  0.1365 -0.1377
11006TIP3    H254510   1.030   5.501   2.021 -4.0009  1.8114  3.2226
11007TIP3   OH254511   0.220   0.527   3.143 -0.1057  0.2288  0.2223
11007TIP3    H154512   0.217   0.611   3.097 -0.1885 -0.5197 -1.1670
11007TIP3    H254513   0.314   0.510   3.157 -0.0051 -0.1671 -0.8683
11008TIP3   OH254514   0.606   3.053   5.437 -0.3069  0.7919 -0.0869
11008TIP3    H154515   0.623   2.969   5.479  0.0312  1.3111  0.8420
11008TIP3    H254516   0.607   3.034   5.343 -0.8486 -0.3489  0.1268
11009TIP3   OH254517   2.838   4.511  16.774  0.6394 -0.3293  0.5244
11009TIP3    H154518   2.813   4.550  16.857  0.5980  1.0842 -0.1192
11009TIP3    H254519   2.864   4.422  16.796  2.7161  0.6304  2.3882
11010TIP3   OH254520   5.866   0.583   1.669  0.3469  0.0100  0.2852
11010TIP3    H154521   5.954   0.579   1.707  0.6411 -1.0429 -0.4826
11010TIP3    H254522   5.875   0.643   1.596  0.7314 -1.0048 -0.5247
11011TIP3   OH254523   6.749   1.187  17.230 -0.3315 -0.4721  0.3676
11011TIP3    H154524   6.811   1.160  17.298 -0.3879 -0.7243  0.3190
11011TIP3    H254525   6.722   1.105  17.189 -0.3279 -0.3225  0.0667
11012TIP3   OH254526   3.669   0.389   4.000  0.2844 -0.8517 -0.4998
11012TIP3    H154527   3.610   0.461   4.023  1.2538 -0.5384  1.1828
11012TIP3    H254528   3.754   0.432   3.986  0.9183 -1.6571  0.7179
11013TIP3   OH254529   0.820   1.972   0.015  0.2174 -0.6544 -1.0607
11013TIP3    H154530   0.763   1.912  -0.033 -0.1845 -1.2239  0.0951
11013TIP3    H254531   0.764   2.048   0.032 -0.0382 -0.9768 -0.4209
11014TIP3   OH254532   3.122   0.539  16.525  0.4500 -0.6171 -0.3116
11014TIP3    H154533   3.035   0.572  16.548 -0.2768 -1.9307 -1.0065
11014TIP3    H254534   3.170   0.616  16.497 -0.5012  0.1417  0.0776
11015TIP3   OH254535   2.257   4.606  13.260  0.4132 -0.1809 -0.4525
11015TIP3    H154536   2.228   4.514  13.258  0.9380 -0.3394 -1.9814
11015TIP3    H254537   2.347   4.602  13.292 -0.1448  0.0020  1.2208
11016TIP3   OH254538   1.434   6.273  12.767  0.4986 -0.5113 -0.4299
11016TIP3    H154539   1.434   6.303  12.676  1.2098 -0.3457 -0.3779
11016TIP3    H254540   1.363   6.323  12.808  0.1645 -0.5966 -0.8948
11017TIP3   OH254541   4.635   5.243   5.861 -0.2822 -0.8182 -0.3933
11017TIP3    H154542   4.632   5.148   5.868 -0.8100 -0.7686  0.2278
11017TIP3    H254543   4.728   5.263   5.849  0.2679 -1.2697  2.3024
11018TIP3   OH254544   1.061   5.985  12.322  0.1413 -0.3925 -0.2256
11018TIP3    H154545   1.057   5.892  12.343 -1.1924  0.0732  1.9225
11018TIP3    H254546   1.009   5.994  12.242 -1.4279 -1.2482  0.6586
11019TIP3   OH254547   3.250   5.572  13.126  0.5114  0.1660  0.1109
11019TIP3    H154548   3.290   5.490  13.154 -0.0160  0.0330  0.4704
11019TIP3    H254549   3.177   5.586  13.187  0.0273  0.4295 -0.5250
11020TIP3   OH254550   4.281   3.726  13.576  0.5437  0.0790  0.0115
11020TIP3    H154551   4.289   3.806  13.627  0.0810 -0.6961  1.3508
11020TIP3    H254552   4.188   3.720  13.554  0.4765 -0.3488  0.3835
11021TIP3   OH254553   2.784   0.031  12.081  0.3484  0.7374  0.1612
11021TIP3    H154554   2.864  -0.005  12.119 -1.1584 -0.8079  2.0794
11021TIP3    H254555   2.739  -0.045  12.044 -1.1281  1.2116  0.8971
11022TIP3   OH254556   1.647   6.805  12.457  0.2024 -0.5048 -0.2623
11022TIP3    H154557   1.687   6.753  12.527  1.3682 -1.0619 -1.2979
11022TIP3    H254558   1.710   6.800  12.385 -1.3872 -0.7323 -1.6978
11023TIP3   OH254559   5.814   6.590   2.737 -0.1083  0.3594 -0.4764
11023TIP3    H154560   5.906   6.615   2.727 -0.2243  1.0408  0.1305
11023TIP3    H254561   5.812   6.498   2.711  0.8240  0.2217 -0.1073
11024TIP3   OH254562   4.747   4.723  15.652  0.4598 -0.0595  0.1123
11024TIP3    H154563   4.730   4.738  15.559  0.1167 -1.5094 -0.0836
11024TIP3    H254564   4.836   4.757  15.666 -0.5232  2.8352 -0.0341
11025TIP3   OH254565   6.291   4.471   5.056  0.5462  0.7870 -0.0945
11025TIP3    H154566   6.342   4.548   5.081  2.3327 -0.1974 -0.4832
11025TIP3    H254567   6.280   4.479   4.961  0.8870  0.4844 -0.1612
11026TIP3   OH254568   6.436   0.230   3.300  0.4170  0.1738 -0.0673
11026TIP3    H154569   6.415   0.137   3.314 -0.0991  0.0918 -1.2905
11026TIP3    H254570   6.502   0.230   3.231  2.3289  0.6144  1.6509
11027TIP3   OH254571   0.048   0.053  11.174 -0.1294  0.5063  0.1080
11027TIP3    H154572   0.004  -0.021  11.215  0.0622  1.2340  1.7361
11027TIP3    H254573   0.045   0.035  11.080  0.5074 -1.8686  0.4882
11028TIP3   OH254574   5.854   6.617  13.136  0.0514  0.2217 -0.7692
11028TIP3    H154575   5.903   6.543  13.173 -2.1557 -0.6992  0.5077
11028TIP3    H254576   5.921   6.670  13.093  2.0059 -1.4796 -0.0408
11029TIP3   OH254577   5.508   3.815   6.279 -0.2286 -0.2628  0.5512
11029TIP3    H154578   5.560   3.834   6.201  0.9325  0.8775  1.5825
11029TIP3    H254579   5.546   3.734   6.313 -0.9924 -0.9860 -0.2424
11030TIP3   OH254580   5.543   5.168  11.407 -0.0043  0.1204  0.2610
11030TIP3    H154581   5.449   5.176  11.390 -0.5668 -1.3776  2.2863
11030TIP3    H254582   5.563   5.245  11.461 -0.5613 -0.5866  1.5247
11031TIP3   OH254583   4.229   4.355   5.249  0.6973 -0.0119  0.9008
11031TIP3    H154584   4.164   4.424   5.237  0.0015 -0.3848  2.3435
11031TIP3    H254585   4.186   4.275   5.217 -0.2061 -0.5407  3.2109
11032TIP3   OH254586   3.396   6.409   5.446 -0.3529 -0.1064  0.0743
11032TIP3    H154587   3.391   6.314   5.453  0.4621 -0.0387  2.2632
11032TIP3    H254588   3.331   6.432   5.379 -1.0387 -2.1329 -0.0068
11033TIP3   OH254589   4.863   4.932  13.051  0.3653  0.3742 -0.1400
11033TIP3    H154590   4.829   5.020  13.039 -1.6997 -0.2993  0.2582
11033TIP3    H254591   4.818   4.879  12.985  0.6900 -0.5859  0.3802
11034TIP3   OH254592   5.386   1.513  12.343 -0.4389  0.0185  0.5120
11034TIP3    H154593   5.360   1.421  12.346 -1.7952  0.3873  0.5725
11034TIP3    H254594   5.318   1.556  12.291 -0.2162  1.1255  1.1015
11035TIP3   OH254595   0.875   1.272   3.454  0.5607 -0.3728 -0.1038
11035TIP3    H154596   0.862   1.204   3.521  0.8991  0.5681  0.9370
11035TIP3    H254597   0.789   1.313   3.445  0.6198 -0.2144  0.0624
11036TIP3   OH254598   3.288   1.939   5.664 -0.1741 -0.2337 -0.2316
11036TIP3    H154599   3.201   1.899   5.672 -0.0740 -0.4395 -0.1641
11036TIP3    H254600   3.349   1.866   5.676  0.0090 -0.0819 -0.2364
11037TIP3   OH254601   5.812   4.156   5.176 -0.7205  0.2940  0.7157
11037TIP3    H154602   5.794   4.248   5.193 -0.4777  0.1815  1.6202
11037TIP3    H254603   5.755   4.134   5.102 -1.4928  0.9150  1.1087
11038TIP3   OH254604   6.242   6.563   0.935  0.1084 -0.2911 -0.2838
11038TIP3    H154605   6.296   6.532   0.862  0.0942  1.2691 -1.0184
11038TIP3    H254606   6.256   6.500   1.005  1.3004 -1.0210 -1.1472
11039TIP3   OH254607   1.101   2.985   6.491  0.7845 -0.3951  0.7940
11039TIP3    H154608   1.022   3.014   6.444 -0.0991 -0.9159  1.9001
11039TIP3    H254609   1.101   2.890   6.480  0.5935 -0.5189  1.7791
11040TIP3   OH254610   4.411   5.920  14.766 -0.1024 -0.4591  0.3916
11040TIP3    H154611   4.380   5.835  14.735  1.6733 -0.8375 -0.5280
11040TIP3    H254612   4.453   5.902  14.850  0.3026 -0.5232  0.1816
11041TIP3   OH254613   2.776   5.706  15.797  0.0481 -0.2210 -0.2815
11041TIP3    H154614   2.765   5.617  15.832  0.4501 -0.4169 -0.6499
11041TIP3    H254615   2.806   5.693  15.707  2.2947  0.2726  0.3257
11042TIP3   OH254616   1.723   5.490   1.045 -0.1656  0.9230 -0.2047
11042TIP3    H154617   1.694   5.472   1.134  1.8127 -0.0886  0.2964
11042TIP3    H254618   1.790   5.424   1.028 -0.6936  0.8979 -2.5668
11043TIP3   OH254619   5.041   5.432  11.103  0.6432  0.2268  0.2968
11043TIP3    H154620   5.072   5.376  11.032  0.4645 -2.0513  1.8880
11043TIP3    H254621   4.994   5.503  11.060  0.8982 -0.8246 -1.8403
11044TIP3   OH254622   0.007   5.638   5.876 -0.5103 -0.5679  0.4772
11044TIP3    H154623   0.100   5.635   5.852 -1.1358 -1.2783 -2.2805
11044TIP3    H254624  -0.005   5.562   5.933  0.2788 -1.6011 -0.6582
11045TIP3   OH254625   6.559   1.151  15.141 -0.0963 -0.2785 -0.0387
11045TIP3    H154626   6.631   1.199  15.099 -2.6637  0.3973 -4.2470
11045TIP3    H254627   6.585   1.059  15.136  0.4020 -0.0779 -1.7921
11046TIP3   OH254628   1.724   2.868  12.566  0.1537  0.3428  0.2803
11046TIP3    H154629   1.808   2.873  12.521  0.4329 -1.4991  0.5357
11046TIP3    H254630   1.743   2.900  12.654 -0.0454  2.4494 -0.3889
11047TIP3   OH254631   4.529   0.304   4.080 -0.2785 -0.5031 -0.5259
11047TIP3    H154632   4.579   0.383   4.099  0.0073 -0.3685 -1.7473
11047TIP3    H254633   4.574   0.265   4.005  0.2672 -2.4425  0.7316
11048TIP3   OH254634   1.662   2.858  15.279 -0.2473 -0.9530 -0.2636
11048TIP3    H154635   1.585   2.890  15.326 -1.0967 -0.0195 -2.1891
11048TIP3    H254636   1.642   2.873  15.187  1.9653 -1.3459 -0.8627
11049TIP3   OH254637   2.707   1.429  16.280  0.2963 -0.6664 -0.5122
11049TIP3    H154638   2.711   1.520  16.254  0.6773 -0.5313  0.0007
11049TIP3    H254639   2.719   1.380  16.199 -2.0947 -0.3011 -1.1811
11050TIP3   OH254640   6.384   0.789   4.053 -0.3367  0.0579  0.0975
11050TIP3    H154641   6.451   0.831   4.106  0.6727 -1.0533 -0.2551
11050TIP3    H254642   6.330   0.861   4.022  0.6205  0.9745  0.4867
11051TIP3   OH254643   1.192   5.741   5.637 -0.7780 -0.3298  0.4020
11051TIP3    H154644   1.182   5.788   5.555 -0.4694  1.2040  1.2152
11051TIP3    H254645   1.161   5.802   5.704  2.4405 -0.0608  1.8051
11052TIP3   OH254646   3.852   4.234   5.213  0.2879  0.3893 -0.3917
11052TIP3    H154647   3.765   4.198   5.228 -1.0760  2.6412 -2.1693
11052TIP3    H254648   3.901   4.212   5.293 -1.4061 -2.1795  0.0742
11053TIP3   OH254649   6.115   3.512  16.977 -0.1059 -0.0688  0.5064
11053TIP3    H154650   6.030   3.481  17.009 -2.0337  1.8651 -2.2820
11053TIP3    H254651   6.136   3.585  17.034 -0.7465 -0.0228  0.6956
11054TIP3   OH254652   1.299   0.747  14.299 -0.6329  0.0604 -0.1940
11054TIP3    H154653   1.336   0.803  14.231 -0.0731 -2.3119 -1.9784
11054TIP3    H254654   1.375   0.701  14.336 -1.1414 -0.0536  0.7405
11055TIP3   OH254655   2.307   5.170   6.031 -0.1743 -0.3918  0.0330
11055TIP3    H154656   2.380   5.174   5.968  0.8827 -0.5265  1.2219
11055TIP3    H254657   2.306   5.257   6.070 -0.9770 -0.2404 -0.3098
11056TIP3   OH254658   6.238   4.568  13.492 -0.2360  0.3211  0.0374
11056TIP3    H154659   6.180   4.509  13.444 -1.6393  0.1928  1.7600
11056TIP3    H254660   6.179   4.637  13.525  0.6522  0.4473  1.4525
11057TIP3   OH254661   1.426   3.030  11.730  0.5629 -0.2746  0.1708
11057TIP3    H154662   1.392   3.118  11.744  0.3249 -0.3780  0.2459
11057TIP3    H254663   1.359   2.987  11.677  0.2390 -0.6978  0.9084
11058TIP3   OH254664   6.753   0.505  16.702  0.0547  0.1165  0.3389
11058TIP3    H154665   6.804   0.427  16.679 -1.2233 -0.5031 -0.5278
11058TIP3    H254666   6.666   0.471  16.722 -0.8699  1.4212 -1.2782
11059TIP3   OH254667   6.478   1.805  12.374 -0.5681 -0.8764  0.1003
11059TIP3    H154668   6.438   1.833  12.291  0.5922  1.8145  0.3517
11059TIP3    H254669   6.555   1.754  12.347 -0.2438 -0.0929 -0.4831
11060TIP3   OH254670   0.997   4.809  15.884  0.5190 -0.4125 -0.4588
11060TIP3    H154671   1.018   4.757  15.962 -0.8621 -0.3526 -0.0162
11060TIP3    H254672   0.948   4.884  15.917  0.1856 -0.2182 -1.3523
11061TIP3   OH254673   2.326   0.079  16.607 -0.1321 -0.2909 -0.3411
11061TIP3    H154674   2.409   0.124  16.593 -0.2017 -0.3671 -0.9958
11061TIP3    H254675   2.352  -0.007  16.641 -0.0298  0.6347  2.1095
11062TIP3   OH254676   2.171   0.244   1.089 -0.3974 -0.7262  0.7867
11062TIP3    H154677   2.152   0.327   1.044 -0.5925 -0.7014  0.9118
11062TIP3    H254678   2.091   0.226   1.140  0.2974 -0.0725  2.1677
11063TIP3   OH254679   3.142   2.158  11.338 -0.7403 -0.1070 -0.3277
11063TIP3    H154680   3.142   2.201  11.252  3.1918  2.2855  0.6156
11063TIP3    H254681   3.193   2.078  11.325 -0.6250 -0.0321 -0.3374
11064TIP3   OH254682   1.072   4.473  15.709  0.0902  0.2545  0.2468
11064TIP3    H154683   1.143   4.436  15.657 -0.0833  0.2636  0.0014
11064TIP3    H254684   1.115   4.531  15.772  0.2381  0.9921 -0.5120
11065TIP3   OH254685   2.663   0.729  11.519  0.3048  0.5628  0.0383
11065TIP3    H154686   2.675   0.815  11.479  0.5252  0.1304 -0.8697
11065TIP3    H254687   2.721   0.671  11.469 -2.0118 -0.7098 -1.4300
11066TIP3   OH254688   2.058   1.124  11.854  0.0945  0.1212 -0.1262
11066TIP3    H154689   2.023   1.200  11.808 -0.3520 -0.8623 -1.4659
11066TIP3    H254690   2.138   1.156  11.895 -0.5271  1.5151  0.0316
11067TIP3   OH254691   4.382   2.977  12.951 -0.3206  0.0631 -0.1626
11067TIP3    H154692   4.415   3.067  12.949  4.0270 -1.3136 -1.7044
11067TIP3    H254693   4.349   2.961  12.862 -2.7895  0.5163  0.5828
11068TIP3   OH254694   0.123   6.014   3.743 -0.1163  0.1212  0.0510
11068TIP3    H154695   0.040   6.058   3.727 -0.4342  0.4999  2.3039
11068TIP3    H254696   0.134   5.953   3.670 -2.4206  0.0002 -0.2537
11069TIP3   OH254697   2.294   1.360   5.605 -0.2076 -0.3330  0.0108
11069TIP3    H154698   2.212   1.329   5.567  0.1569 -0.2115 -0.9052
11069TIP3    H254699   2.280   1.355   5.700 -2.1588  1.8840 -0.0459
11070TIP3   OH254700   2.678   0.726   0.125 -0.1098 -0.3603 -0.0361
11070TIP3    H154701   2.679   0.822   0.130  0.7177 -0.2645 -1.4625
11070TIP3    H254702   2.690   0.707   0.032  0.1948 -1.8642  0.2854
11071TIP3   OH254703   0.456   0.286   4.510 -0.0917 -0.3670  0.2122
11071TIP3    H154704   0.443   0.194   4.487 -2.0145  0.2994 -1.6918
11071TIP3    H254705   0.495   0.326   4.431 -1.3464  0.8600  0.1760
11072TIP3   OH254706   0.860   2.529  17.296  0.2730  0.3517 -0.1275
11072TIP3    H154707   0.917   2.515  17.372  1.0413 -0.7581 -0.8836
11072TIP3    H254708   0.915   2.510  17.220 -0.6417  0.8999 -0.9561
11073TIP3   OH254709   4.784   4.905  13.947 -0.1914 -0.0255 -0.0386
11073TIP3    H154710   4.791   4.813  13.973 -0.2184 -0.1270 -0.3866
11073TIP3    H254711   4.690   4.919  13.932 -0.1667  0.0110 -0.1586
11074TIP3   OH254712   2.388   2.208   3.969  0.1232  0.1056 -0.0397
11074TIP3    H154713   2.307   2.213   4.020  0.2168 -1.3652  0.3126
11074TIP3    H254714   2.366   2.249   3.885  0.2623  3.5499  1.4439
11075TIP3   OH254715   4.235   6.632  11.834  0.5893 -0.7379  0.4719
11075TIP3    H154716   4.296   6.706  11.835  0.4219 -0.5249 -1.2570
11075TIP3    H254717   4.195   6.633  11.921  0.7578  1.0810  0.5779
11076TIP3   OH254718   2.265   2.050  11.057 -0.2200  0.2083  0.2160
11076TIP3    H154719   2.318   2.129  11.048  0.4042 -0.3343 -1.1684
11076TIP3    H254720   2.329   1.978  11.060 -0.7045 -0.2097  2.6833
11077TIP3   OH254721   3.942   1.494   4.492 -0.0732 -0.0945 -0.1901
11077TIP3    H154722   4.033   1.492   4.521  0.3070  0.6416 -1.2820
11077TIP3    H254723   3.919   1.587   4.492 -2.0180 -0.3679  3.5521
11078TIP3   OH254724   0.156   1.298   1.836 -0.1291  0.4333 -0.0157
11078TIP3    H154725   0.074   1.285   1.789 -0.6106  0.6444  0.7416
11078TIP3    H254726   0.189   1.382   1.803  1.0302 -0.7485 -2.0770
11079TIP3   OH254727   2.227   0.718  16.490  0.4285  0.1874 -0.4667
11079TIP3    H154728   2.303   0.660  16.499 -0.1949 -0.3538  2.2958
11079TIP3    H254729   2.260   0.805  16.512  0.3359 -0.0068  0.4868
11080TIP3   OH254730   1.311   5.281  12.900  0.0068  0.2669 -0.1101
11080TIP3    H154731   1.347   5.316  12.981  0.9270 -1.4383  0.2560
11080TIP3    H254732   1.229   5.239  12.926 -0.1198  0.4445 -0.2160
11081TIP3   OH254733   0.898   2.570   6.458 -0.3700  0.0214 -0.0630
11081TIP3    H154734   0.917   2.516   6.534  0.2431 -1.1311 -1.0012
11081TIP3    H254735   0.911   2.660   6.488  0.4503 -0.4393  1.0265
11082TIP3   OH254736   0.286   3.560   1.826  0.1739 -0.4357  0.6253
11082TIP3    H154737   0.260   3.651   1.841 -0.2939 -0.6241  0.9666
11082TIP3    H254738   0.259   3.541   1.736 -1.5316 -0.8509  1.2034
11083TIP3   OH254739   3.531   5.281   0.049  0.3521  0.3742 -0.5944
11083TIP3    H154740   3.491   5.319  -0.030 -1.2688 -0.0374 -0.0118
11083TIP3    H254741   3.474   5.310   0.120  0.8188 -0.6792  0.2187
11084TIP3   OH254742   0.756   1.161  15.093  0.2575  0.3843  0.7130
11084TIP3    H154743   0.727   1.077  15.058  0.6074  0.2109  0.8273
11084TIP3    H254744   0.712   1.169  15.178  0.4059  0.2065  0.8065
11085TIP3   OH254745   1.726   3.062   5.827 -0.3635 -0.2221  0.0290
11085TIP3    H154746   1.787   3.067   5.753 -2.3980  1.3168 -1.6729
11085TIP3    H254747   1.774   3.101   5.900  0.7181  0.9042 -1.2303
11086TIP3   OH254748   6.321   3.758  14.842 -0.0807 -0.2245 -0.1836
11086TIP3    H154749   6.355   3.814  14.772 -0.4621 -0.0052 -0.1989
11086TIP3    H254750   6.247   3.712  14.803 -0.2761 -0.1235  0.0639
11087TIP3   OH254751   2.226   1.160   1.841 -0.0174  0.1776  0.1488
11087TIP3    H154752   2.263   1.176   1.754 -0.4625 -1.4428 -0.3657
11087TIP3    H254753   2.146   1.213   1.842 -1.7617 -2.1529 -1.7292
11088TIP3   OH254754   3.446   3.168   0.159  0.3365  0.3155 -0.3368
11088TIP3    H154755   3.490   3.182   0.075  1.5419 -0.0474  0.2018
11088TIP3    H254756   3.481   3.084   0.189 -0.5374  0.1576  0.2545
11089TIP3   OH254757   4.608   6.822  15.401 -0.2581 -0.3206  0.5935
11089TIP3    H154758   4.658   6.899  15.371  1.0532 -1.4557 -0.2669
11089TIP3    H254759   4.519   6.855  15.412 -0.5395  0.6056 -3.0871
11090TIP3   OH254760   4.442   6.614   0.266  0.2958 -0.2932 -0.0203
11090TIP3    H154761   4.452   6.703   0.300  2.4834 -1.6665  3.4455
11090TIP3    H254762   4.497   6.611   0.189 -0.4705  1.5206 -0.6841
11091TIP3   OH254763   2.413   1.146   2.080 -0.2883  0.2080  0.1518
11091TIP3    H154764   2.432   1.056   2.055 -2.2659  0.1728 -1.5233
11091TIP3    H254765   2.320   1.145   2.104  0.1425  1.4294  2.1953
11092TIP3   OH254766   1.725   5.762  12.173  0.5279 -0.1164  0.1172
11092TIP3    H154767   1.816   5.773  12.143  0.7473  1.2161  1.1971
11092TIP3    H254768   1.674   5.762  12.092  1.3763  0.3667 -0.4431
11093TIP3   OH254769   5.529   3.801  14.803  0.0882 -0.0461  0.2308
11093TIP3    H154770   5.491   3.722  14.764 -0.5263  0.5649 -0.4355
11093TIP3    H254771   5.535   3.781  14.896 -0.7721 -0.6050  0.1788
11094TIP3   OH254772   1.137   0.026   1.755  0.5521 -0.0124  0.4382
11094TIP3    H154773   1.080   0.010   1.680  1.6037 -0.1152 -0.3508
11094TIP3    H254774   1.114  -0.043   1.817  0.6484 -0.7908 -0.3720
11095TIP3   OH254775   3.862   5.272   2.712  0.4921 -0.3163  0.5145
11095TIP3    H154776   3.824   5.184   2.710  0.2413 -0.2017 -0.6089
11095TIP3    H254777   3.899   5.284   2.624 -0.1695  0.9918  0.3903
11096TIP3   OH254778   3.353   1.639   3.248 -0.6009  0.1833 -0.4201
11096TIP3    H154779   3.425   1.667   3.192 -0.2668 -1.5774 -0.9567
11096TIP3    H254780   3.388   1.564   3.297 -1.7827 -0.1549 -0.0436
11097TIP3   OH254781   1.632   3.427   4.115  0.4787  0.2560 -0.0614
11097TIP3    H154782   1.658   3.365   4.046 -1.3202 -0.3714 -0.2382
11097TIP3    H254783   1.608   3.372   4.189 -2.8979  0.4725 -0.8021
11098TIP3   OH254784   5.596   6.714   3.461 -0.1703  0.0676  0.0069
11098TIP3    H154785   5.511   6.674   3.477  0.4752 -1.1708  0.5147
11098TIP3    H254786   5.602   6.722   3.366 -1.1651  0.9086  0.0047
11099TIP3   OH254787   5.056   2.521   6.539 -0.5723  0.1447 -0.0124
11099TIP3    H154788   5.064   2.604   6.493 -0.3121 -0.4499 -1.0832
11099TIP3    H254789   4.969   2.488   6.514 -1.9172  1.3856  2.6775
11100TIP3   OH254790   6.281   2.875  13.861  0.6841  0.2809  0.3522
11100TIP3    H154791   6.358   2.851  13.911 -0.0549 -1.3167  0.7620
11100TIP3    H254792   6.210   2.877  13.925  0.4978  2.6972  0.1739
11101TIP3   OH254793   3.629   1.038   0.742 -0.8169 -0.2676 -0.1617
11101TIP3    H154794   3.699   0.975   0.762 -1.8917 -1.2537  0.6214
11101TIP3    H254795   3.659   1.120   0.780 -0.7029 -1.0163  1.4228
11102TIP3   OH254796   1.609   0.597  15.575  0.2212  0.4069 -0.1926
11102TIP3    H154797   1.685   0.585  15.633 -0.0711  1.9370  0.5493
11102TIP3    H254798   1.622   0.533  15.505  0.7401 -1.3308  1.3912
11103TIP3   OH254799   6.112   3.844   6.145 -0.4408 -0.1434  0.3667
11103TIP3    H154800   6.051   3.864   6.215  0.0726  1.2550  0.4521
11103TIP3    H254801   6.176   3.784   6.185 -0.8085 -0.2787  0.7521
11104TIP3   OH254802   5.577   3.664   0.117 -0.3196  0.4624  0.0962
11104TIP3    H154803   5.545   3.713   0.041 -0.8692 -0.9672 -0.6455
11104TIP3    H254804   5.552   3.718   0.192  1.6418  2.6917 -0.7317
11105TIP3   OH254805   4.620   2.589   3.222  0.4726  0.3652  0.1267
11105TIP3    H154806   4.712   2.598   3.247  0.4823  1.0621 -0.1541
11105TIP3    H254807   4.571   2.628   3.295  0.3793 -0.2823  0.4200
11106TIP3   OH254808   2.603   0.508   6.553  0.1433  0.4699 -0.3208
11106TIP3    H154809   2.508   0.503   6.539  0.1217 -1.1503  0.1931
11106TIP3    H254810   2.624   0.601   6.545 -1.4381  0.8124 -0.7620
11107TIP3   OH254811   2.778   2.433   1.335 -0.3014 -0.8060 -0.4338
11107TIP3    H154812   2.802   2.443   1.243 -0.4536  0.1038 -0.3791
11107TIP3    H254813   2.683   2.444   1.337 -0.0955  1.2192  0.0814
11108TIP3   OH254814   4.953   5.521  13.285 -0.2471  0.2967 -0.1167
11108TIP3    H154815   5.013   5.453  13.314 -0.1279  0.7911  0.8528
11108TIP3    H254816   4.963   5.525  13.190  0.4579 -0.3591 -0.0697
11109TIP3   OH254817   5.492   1.034   1.111 -0.4975 -0.0492 -0.0139
11109TIP3    H154818   5.513   1.127   1.119  1.1568 -0.4180  0.4555
11109TIP3    H254819   5.416   1.031   1.053  0.4519  1.4903 -1.4420
11110TIP3   OH254820   4.917   4.915  10.757  0.3508 -0.1586 -0.2111
11110TIP3    H154821   4.925   4.840  10.698 -1.5450  0.2773 -1.0874
11110TIP3    H254822   4.992   4.970  10.737  1.2153 -1.3319 -0.2646
11111TIP3   OH254823   5.916   5.938   2.098 -0.5380 -0.1396 -0.2949
11111TIP3    H154824   5.852   5.925   2.169  0.6354 -0.7483  0.6978
11111TIP3    H254825   5.872   5.905   2.020 -1.1049 -1.4233  0.5293
11112TIP3   OH254826   4.099   0.256  12.521  0.7651  0.0268 -0.0451
11112TIP3    H154827   4.071   0.263  12.612  0.6807 -0.8685  0.0104
11112TIP3    H254828   4.033   0.305  12.472  2.1357  2.6393  0.5603
11113TIP3   OH254829   4.271   1.215   4.741 -1.0720  0.0566 -0.4239
11113TIP3    H154830   4.321   1.223   4.660  0.6176  0.7417  0.6457
11113TIP3    H254831   4.333   1.235   4.811 -2.0888 -1.9747  1.1715
11114TIP3   OH254832   1.493   0.569   4.892  0.3869 -0.2394 -0.0033
11114TIP3    H154833   1.509   0.503   4.825  1.0830  1.3673 -1.5013
11114TIP3    H254834   1.402   0.555   4.918  0.3654 -1.4374 -0.6554
11115TIP3   OH254835   0.732   6.503   6.184 -0.0904  0.7105 -0.0331
11115TIP3    H154836   0.784   6.580   6.161 -0.0612  1.0495  1.0983
11115TIP3    H254837   0.765   6.476   6.270  0.3974 -1.0164 -0.7049
11116TIP3   OH254838   2.428   5.203  11.528 -0.0655 -0.7787 -0.0054
11116TIP3    H154839   2.501   5.178  11.470  1.3739  2.0837  0.3824
11116TIP3    H254840   2.466   5.200  11.616 -1.0074 -1.0764  0.3994
11117TIP3   OH254841   2.944   1.551  14.533  0.3848  0.0837  0.0991
11117TIP3    H154842   2.989   1.595  14.460  0.3072 -0.1673 -0.1010
11117TIP3    H254843   2.913   1.622  14.588 -0.3609  0.3109 -0.5952
11118TIP3   OH254844   5.799   4.712  10.493  0.8388  0.4698  0.2049
11118TIP3    H154845   5.759   4.705  10.407 -0.9269  0.0384  1.0291
11118TIP3    H254846   5.849   4.632  10.504 -0.1115 -0.1410  0.1419
11119TIP3   OH254847   1.056   0.357  16.194 -0.1201 -0.4843  0.6544
11119TIP3    H154848   0.984   0.360  16.132  1.0753 -0.4841 -0.7780
11119TIP3    H254849   1.103   0.276  16.172  0.3186 -0.4929  1.5698
11120TIP3   OH254850   1.493   6.591   4.374  0.5556 -0.3626  0.5744
11120TIP3    H154851   1.556   6.627   4.311  2.8179  0.3008  3.0475
11120TIP3    H254852   1.483   6.660   4.440  0.0903 -1.8895  2.1573
11121TIP3   OH254853   2.688   3.504   5.335 -0.2080  0.1091  0.6216
11121TIP3    H154854   2.596   3.480   5.328 -0.4804  1.0186  0.9423
11121TIP3    H254855   2.708   3.494   5.428  0.2632 -0.8904  0.4328
11122TIP3   OH254856   1.761   0.208   2.974 -0.5969 -0.1014 -0.3497
11122TIP3    H154857   1.700   0.243   3.038 -1.6174  0.0710 -1.3813
11122TIP3    H254858   1.732   0.245   2.890  1.9112  1.3334 -0.7065
11123TIP3   OH254859   1.797   5.117  13.099  0.0933 -0.2567 -0.0381
11123TIP3    H154860   1.854   5.178  13.053 -2.0643  3.0906  1.2932
11123TIP3    H254861   1.804   5.143  13.191 -2.1728 -0.8949  0.3730
11124TIP3   OH254862   1.087   3.225  14.460 -0.3704 -0.2431  0.1047
11124TIP3    H154863   1.121   3.213  14.549  4.3097 -1.4635 -1.5876
11124TIP3    H254864   1.068   3.136  14.429  1.7567 -0.2686 -1.2898
11125TIP3   OH254865   6.015   1.412   3.969 -0.3024  0.2217 -0.7323
11125TIP3    H154866   6.016   1.386   3.877 -0.4391 -0.9799 -0.4079
11125TIP3    H254867   6.066   1.344   4.014 -2.3504 -0.6328  0.4289
11126TIP3   OH254868   4.500   1.475   6.577  0.1289 -0.3754 -0.2780
11126TIP3    H154869   4.514   1.410   6.508  2.8069  1.3726 -1.5521
11126TIP3    H254870   4.445   1.542   6.536  0.2209 -0.1944 -0.1046
11127TIP3   OH254871   3.704   3.533   3.442 -0.5319 -0.3536  0.2907
11127TIP3    H154872   3.657   3.491   3.514  0.7911 -0.7775  0.9327
11127TIP3    H254873   3.712   3.624   3.469  0.0142 -0.5238  0.7173
11128TIP3   OH254874   2.644   4.484   5.375  0.1042 -0.1765  0.4253
11128TIP3    H154875   2.561   4.452   5.341  1.5324 -2.4083 -1.2217
11128TIP3    H254876   2.657   4.569   5.332 -0.4560 -0.6644 -0.7471
11129TIP3   OH254877   1.099   5.690  12.072 -0.1236 -0.6770  0.0296
11129TIP3    H154878   1.142   5.776  12.071  0.2815 -0.8815 -0.7549
11129TIP3    H254879   1.137   5.645  12.147  0.5437 -0.6063 -0.2580
11130TIP3   OH254880   0.355   0.469  14.296  0.0977  0.1423 -0.3374
11130TIP3    H154881   0.352   0.541  14.233 -2.2841  0.0020 -0.4709
11130TIP3    H254882   0.416   0.498  14.363 -1.0536  2.4942 -0.1945
11131TIP3   OH254883   4.188   0.739  11.056  0.6021  0.4516  0.2158
11131TIP3    H154884   4.165   0.664  11.001  1.1213 -0.8052  1.6569
11131TIP3    H254885   4.143   0.723  11.139  2.0731  0.8618  1.1240
11132TIP3   OH254886   4.028   1.384   3.138  0.2284  0.1907  0.0749
11132TIP3    H154887   4.112   1.358   3.177 -0.8446 -1.4473  1.4488
11132TIP3    H254888   4.000   1.460   3.190 -0.2207 -0.7099  1.1736
11133TIP3   OH254889   1.152   0.180   1.298  0.2538  0.2614  0.1937
11133TIP3    H154890   1.092   0.241   1.255  0.1368  0.0239  0.0163
11133TIP3    H254891   1.095   0.114   1.338  0.3643  0.4347  0.6492
11134TIP3   OH254892   0.801   6.105   3.945 -0.4109  0.0765  0.3175
11134TIP3    H154893   0.734   6.159   3.986 -2.0059 -1.3151 -0.3442
11134TIP3    H254894   0.769   6.015   3.956  0.1255 -0.4684 -2.1269
11135TIP3   OH254895   2.871   6.531  13.506 -0.8415  0.1238 -0.5544
11135TIP3    H154896   2.916   6.553  13.424 -1.7697  0.7206 -0.9160
11135TIP3    H254897   2.835   6.614  13.536 -1.2915 -0.2615 -0.0229
11136TIP3   OH254898   5.660   3.920   6.057  0.0232  0.4703 -0.5223
11136TIP3    H154899   5.686   3.831   6.032  0.0712  0.0507  0.9217
11136TIP3    H254900   5.604   3.949   5.986 -3.2850 -2.2343  0.6973
11137TIP3   OH254901   6.395   1.865  12.118 -0.1599  0.1803 -0.1784
11137TIP3    H154902   6.463   1.837  12.057 -1.0928 -0.3965 -0.9863
11137TIP3    H254903   6.320   1.811  12.096 -0.4069 -0.3399  1.7779
11138TIP3   OH254904   3.871   5.966  12.879  0.2934 -0.7314  0.4798
11138TIP3    H154905   3.818   5.891  12.851  1.2639 -1.1800 -0.2088
11138TIP3    H254906   3.938   5.928  12.935  0.3025 -0.2523  0.7986
11139TIP3   OH254907   1.315   6.140   0.053 -0.5275  0.3026 -0.6452
11139TIP3    H154908   1.401   6.107   0.079 -1.0556 -1.1562 -0.6498
11139TIP3    H254909   1.329   6.180  -0.033  0.0809 -0.2442 -0.8064
11140TIP3   OH254910   5.894   6.049  13.754 -0.4837  0.3687 -0.6821
11140TIP3    H154911   5.925   6.139  13.762 -0.3608  0.5755 -2.7770
11140TIP3    H254912   5.829   6.052  13.683 -0.5880 -1.1468 -0.6801
11141TIP3   OH254913   3.943   0.580  13.933  0.2805 -0.3629  0.3769
11141TIP3    H154914   3.937   0.675  13.918 -0.5752 -0.8040 -2.7140
11141TIP3    H254915   3.895   0.567  14.015 -0.1341  1.7785  0.5574
11142TIP3   OH254916   0.491   4.297  13.169 -0.1041  0.2606 -0.1866
11142TIP3    H154917   0.451   4.328  13.250  1.8446  2.3740  0.0937
11142TIP3    H254918   0.456   4.355  13.102  1.0298  0.9236 -0.2270
11143TIP3   OH254919   4.892   2.977   2.367 -0.2494  0.3318 -0.5374
11143TIP3    H154920   4.874   2.883   2.370 -2.1662  0.6841  0.3270
11143TIP3    H254921   4.943   2.994   2.446 -0.7872  0.1727 -0.1479
11144TIP3   OH254922   4.833   3.978  13.625 -0.0705  0.2805  0.6867
11144TIP3    H154923   4.808   3.952  13.713  0.7690  0.6038  1.0241
11144TIP3    H254924   4.841   3.896  13.577 -1.6492  0.1497  0.5829
11145TIP3   OH254925   5.821   4.411   5.526  0.1800 -0.3326  0.1763
11145TIP3    H154926   5.868   4.343   5.477 -0.8117 -0.0336 -1.2199
11145TIP3    H254927   5.886   4.446   5.587  1.3163 -1.0135 -0.6226
11146TIP3   OH254928   1.224   2.202  14.883  0.4781  0.4307 -0.0079
11146TIP3    H154929   1.196   2.240  14.800  0.1267 -0.1590 -0.1659
11146TIP3    H254930   1.319   2.194  14.875  0.5740  1.3841  0.0817
11147TIP3   OH254931   3.555   2.187   5.935  0.1250  0.6773 -0.8014
11147TIP3    H154932   3.617   2.114   5.934 -0.5618  0.0710 -0.3441
11147TIP3    H254933   3.500   2.171   6.013  1.0254  2.5917  0.2946
11148TIP3   OH254934   2.880   6.156   5.609  0.2674 -0.2179 -0.4555
11148TIP3    H154935   2.861   6.096   5.538  0.0878 -0.4315 -0.2261
11148TIP3    H254936   2.826   6.233   5.591  1.0295  0.1751 -1.1409
11149TIP3   OH254937   1.413   1.938  12.728  0.5288  0.0820 -0.1142
11149TIP3    H154938   1.324   1.930  12.693  0.8051 -0.5053 -0.7082
11149TIP3    H254939   1.416   2.025  12.768 -0.2840  0.1411 -0.1751
11150TIP3   OH254940   0.037   5.357  15.216 -0.1185  0.1659 -0.1235
11150TIP3    H154941   0.037   5.344  15.121  0.3002 -1.0164  0.0244
11150TIP3    H254942   0.010   5.272  15.252 -2.2296  1.1499  0.7721
11151TIP3   OH254943   0.701   3.844   0.853  0.1263 -0.1031 -0.0301
11151TIP3    H154944   0.710   3.937   0.832 -0.9508 -0.4152 -2.2262
11151TIP3    H254945   0.791   3.812   0.858  0.5110  0.6484 -1.4584
11152TIP3   OH254946   2.218   5.202  15.128  0.3233 -0.7483  0.1074
11152TIP3    H154947   2.150   5.166  15.185 -2.0678 -0.1944 -2.1704
11152TIP3    H254948   2.237   5.131  15.066  0.3059 -0.2249 -0.5065
11153TIP3   OH254949   2.877   4.318   4.835 -0.5851 -0.2534  0.5261
11153TIP3    H154950   2.852   4.357   4.751 -0.5069  0.1243  0.6777
11153TIP3    H254951   2.808   4.255   4.854 -0.6617 -0.2599  0.2340
11154TIP3   OH254952   2.088   0.143   4.385 -0.5541 -0.0752 -0.1830
11154TIP3    H154953   2.177   0.110   4.375 -1.1180 -2.0830  0.9007
11154TIP3    H254954   2.050   0.133   4.297  0.0740  0.1662 -0.4915
11155TIP3   OH254955   5.657   2.501  16.605 -0.1741 -0.3200 -0.5675
11155TIP3    H154956   5.631   2.460  16.522  0.8481  0.3058 -1.2263
11155TIP3    H254957   5.750   2.481  16.613  0.3540  1.7576 -0.8769
11156TIP3   OH254958   5.021   3.792  15.669  0.3365 -0.6317 -0.4590
11156TIP3    H154959   4.964   3.827  15.600  0.8380  1.7764  0.2444
11156TIP3    H254960   4.961   3.751  15.731 -0.4919  0.3668 -0.5690
11157TIP3   OH254961   4.107   0.279  15.987 -0.0538  0.2520  0.6427
11157TIP3    H154962   4.153   0.304  15.907  1.7462 -0.0488  1.5271
11157TIP3    H254963   4.140   0.191  16.007 -0.9015  0.0930  1.4090
11158TIP3   OH254964   2.544   0.362   4.036  0.5150  0.1128  0.0249
11158TIP3    H154965   2.578   0.449   4.011  2.2685 -0.2809  0.8339
11158TIP3    H254966   2.612   0.301   4.007  0.7623 -0.6939  2.1662
11159TIP3   OH254967   5.210   1.399   1.152 -0.3288  0.3007  0.0361
11159TIP3    H154968   5.134   1.456   1.138  0.5606  1.5603  0.1722
11159TIP3    H254969   5.281   1.441   1.103  0.2507 -0.9591 -0.2455
11160TIP3   OH254970   3.878   2.749   0.700 -0.8225 -0.0766 -0.1523
11160TIP3    H154971   3.864   2.704   0.784  3.3817  0.4551  1.0546
11160TIP3    H254972   3.824   2.827   0.705  0.1883  0.5573  2.7045
11161TIP3   OH254973   0.364   6.788   5.486 -0.2300  0.4331 -1.1720
11161TIP3    H154974   0.419   6.721   5.525 -2.0678  0.1900  1.2104
11161TIP3    H254975   0.323   6.745   5.411 -1.1854 -1.0943  0.1637
11162TIP3   OH254976   1.628   4.907   1.821 -0.0034 -0.0090  0.5783
11162TIP3    H154977   1.619   5.002   1.829  0.0516  0.0952 -0.4711
11162TIP3    H254978   1.572   4.872   1.891  1.1024  0.7888  1.9081
11163TIP3   OH254979   4.363   4.766   1.022 -0.1591  0.5685 -0.5645
11163TIP3    H154980   4.408   4.686   1.050 -0.5989  0.4112 -0.3083
11163TIP3    H254981   4.357   4.758   0.927 -1.0666 -0.1628 -0.4552
11164TIP3   OH254982   2.730   3.822   4.826  1.5872  0.0295 -0.0421
11164TIP3    H154983   2.743   3.838   4.920  0.0646 -1.3774  0.4759
11164TIP3    H254984   2.788   3.748   4.806 -1.2328 -2.7044  0.9857
11165TIP3   OH254985   2.346   4.881  11.709 -0.3500 -0.3718  0.4759
11165TIP3    H154986   2.270   4.882  11.650  1.4581  0.5579 -2.0288
11165TIP3    H254987   2.349   4.970  11.746 -0.7846 -0.5860  1.0424
11166TIP3   OH254988   4.677   2.364  15.895  0.6783 -0.0685 -0.1131
11166TIP3    H154989   4.664   2.269  15.891  1.2327 -0.1192 -1.5821
11166TIP3    H254990   4.669   2.386  15.988  0.0036 -1.4654  0.1895
11167TIP3   OH254991   5.462   6.780  11.161 -0.5467  0.8022 -0.5471
11167TIP3    H154992   5.385   6.738  11.122 -1.4232  0.9597  0.9395
11167TIP3    H254993   5.491   6.843  11.095 -1.0013 -0.0570 -1.5932
11168TIP3   OH254994   3.115   2.288   1.247  0.0994 -0.2302 -0.1721
11168TIP3    H154995   3.144   2.365   1.197 -0.9890  0.3251  0.0236
11168TIP3    H254996   3.190   2.228   1.243  1.0956  0.9498 -0.0811
11169TIP3   OH254997   1.116   1.682   4.710  0.1661  0.3756  0.2859
11169TIP3    H154998   1.042   1.679   4.772  0.3259  0.0732  0.4626
11169TIP3    H254999   1.097   1.758   4.655 -1.0963 -0.6005 -0.6842
11170TIP3   OH255000   4.508   0.684  16.364 -0.3787 -0.0548 -0.2807
11170TIP3    H155001   4.527   0.638  16.446 -0.1619  1.2231  0.4290
11170TIP3    H255002   4.561   0.640  16.299  1.5252  0.5065  0.7922
11171TIP3   OH255003   0.973   1.549   4.153  0.3910  0.4153  0.4270
11171TIP3    H155004   0.980   1.535   4.248 -2.8174 -1.8141  0.4922
11171TIP3    H255005   0.884   1.582   4.140  0.7631  0.6921 -1.8422
11172TIP3   OH255006   0.530   1.393   5.972 -0.0501  0.0006  0.1930
11172TIP3    H155007   0.483   1.375   6.054  0.5035  1.4215  0.8743
11172TIP3    H255008   0.623   1.392   5.998  0.0649  3.0496  0.2325
11173TIP3   OH255009   4.175   0.980   4.227  0.2503 -0.5952 -0.2373
11173TIP3    H155010   4.213   0.979   4.139  1.2243 -0.0173  0.1559
11173TIP3    H255011   4.085   1.010   4.214  0.8370  0.9998 -0.9019
11174TIP3   OH255012   5.824   2.624  11.262  0.0783 -0.0230  0.1367
11174TIP3    H155013   5.739   2.633  11.220  1.0037  1.7870 -1.4763
11174TIP3    H255014   5.852   2.535  11.241  0.1200  0.5315 -2.4274
11175TIP3   OH255015   1.789   6.673   1.673 -0.2876 -0.1416  0.5988
11175TIP3    H155016   1.709   6.696   1.626 -0.6913 -1.9093  0.3415
11175TIP3    H255017   1.850   6.646   1.605  0.2767  0.4436  0.8579
11176TIP3   OH255018   1.331   6.676  12.622 -0.2387  0.2434  0.3555
11176TIP3    H155019   1.366   6.765  12.631  1.8665 -0.4104 -0.5170
11176TIP3    H255020   1.308   6.669  12.529 -0.3262 -0.1377  0.4044
11177TIP3   OH255021   6.569   6.465  14.293 -0.0928 -0.1790  0.0043
11177TIP3    H155022   6.663   6.481  14.306 -0.1124  1.3359 -1.4581
11177TIP3    H255023   6.564   6.371  14.277  1.4034 -0.0608 -1.4487
11178TIP3   OH255024   6.798   4.627  13.943  0.5586 -0.4662 -0.3685
11178TIP3    H155025   6.859   4.696  13.970 -1.2626  0.9370  0.3357
11178TIP3    H255026   6.793   4.569  14.019 -1.0690  0.9666  0.6795
11179TIP3   OH255027   3.084   3.152  10.760  0.0676 -0.1199  0.1184
11179TIP3    H155028   3.140   3.135  10.685 -0.7188  1.0102 -0.7631
11179TIP3    H255029   3.044   3.237  10.742 -0.1338  0.1969  1.8275
11180TIP3   OH255030   0.581   1.468  11.369 -0.1683  0.6740 -0.4663
11180TIP3    H155031   0.583   1.463  11.274  0.6060  1.0577 -0.4790
11180TIP3    H255032   0.488   1.464  11.391 -0.2828 -1.0949 -1.1215
11181TIP3   OH255033   1.212   1.335  14.681 -0.4365 -0.3282  0.8461
11181TIP3    H155034   1.118   1.318  14.675 -0.3739 -0.5466  0.4166
11181TIP3    H255035   1.220   1.405  14.745 -0.9598  0.2770  0.2644
11182TIP3   OH255036   6.077   5.163   3.375 -0.2804  0.0664 -0.1793
11182TIP3    H155037   6.060   5.101   3.304 -0.7716 -2.3326  1.8945
11182TIP3    H255038   6.011   5.143   3.441  1.4045  0.7634  1.8401
11183TIP3   OH255039   3.444   1.381   0.015  0.1639  0.0784 -0.1746
11183TIP3    H155040   3.495   1.439   0.072  0.2940  0.5646 -0.7746
11183TIP3    H255041   3.354   1.386   0.050  0.5037 -0.8000  0.8988
11184TIP3   OH255042   5.482   2.508   4.974 -0.8104  0.2554 -0.5145
11184TIP3    H155043   5.574   2.520   4.949 -1.0196  1.9318 -0.6138
11184TIP3    H255044   5.434   2.518   4.892 -1.0735 -1.0541 -0.5356
11185TIP3   OH255045   4.279   5.222  10.607  0.4231 -0.3961  0.1200
11185TIP3    H155046   4.284   5.305  10.559 -0.9033 -1.0328 -1.1679
11185TIP3    H255047   4.216   5.239  10.677  0.0038 -0.3644 -0.2607
11186TIP3   OH255048   4.873   4.020  11.370  0.1027 -0.4671 -0.1247
11186TIP3    H155049   4.927   4.076  11.316 -0.6798 -0.5638 -1.0294
11186TIP3    H255050   4.882   4.055  11.459  0.5560  0.3387 -0.4885
11187TIP3   OH255051   0.162   4.230   3.609 -0.6865  0.6217 -0.5299
11187TIP3    H155052   0.177   4.321   3.633  3.0270 -0.7697  3.8428
11187TIP3    H255053   0.229   4.210   3.543 -0.3638  0.6432 -0.2077
11188TIP3   OH255054   0.984   0.550  13.008 -0.2003  0.5522  0.7551
11188TIP3    H155055   0.899   0.532  12.968 -1.3801 -1.1731  3.7916
11188TIP3    H255056   1.044   0.490  12.964 -0.9181  0.4162 -0.0747
11189TIP3   OH255057   5.765   3.037   1.715  0.3983  0.4394 -0.3257
11189TIP3    H155058   5.767   2.942   1.728  1.5422  0.3941 -0.7608
11189TIP3    H255059   5.821   3.053   1.639 -1.5844  1.2588 -1.7040
11190TIP3   OH255060   2.106   1.484   6.991  0.5520  0.2436  0.0915
11190TIP3    H155061   2.166   1.468   6.918 -0.9530 -0.3943 -1.0609
11190TIP3    H255062   2.019   1.485   6.950 -0.2689  0.5840  1.7870
11191TIP3   OH255063   1.397   4.659   4.396  0.4242  0.2590  0.3894
11191TIP3    H155064   1.319   4.714   4.386  0.5164  0.3890  0.3860
11191TIP3    H255065   1.382   4.613   4.479  0.4835  0.5131  0.5441
11192TIP3   OH255066   6.515   0.835  11.617 -0.0740 -0.1420 -0.2765
11192TIP3    H155067   6.532   0.908  11.677  0.5083 -0.7751  0.3362
11192TIP3    H255068   6.472   0.769  11.670 -0.3429 -0.3612 -0.7643
11193TIP3   OH255069   0.094   1.993  16.734 -0.3610  0.7527 -0.3199
11193TIP3    H155070   0.066   1.959  16.649 -0.2680  0.8210 -0.3780
11193TIP3    H255071   0.015   1.987  16.788 -0.8367  2.0514 -0.8169
11194TIP3   OH255072   4.757   6.722   5.221  0.4652 -0.0848 -0.4295
11194TIP3    H155073   4.750   6.633   5.256 -0.4660  0.8434  2.0386
11194TIP3    H255074   4.850   6.745   5.232  0.5354 -0.4602 -0.2154
11195TIP3   OH255075   2.865   2.537  12.041 -0.3359 -0.3148 -0.0431
11195TIP3    H155076   2.782   2.508  12.080 -0.1834 -0.9656 -0.1960
11195TIP3    H255077   2.839   2.582  11.960 -0.4780 -1.7281 -0.8163
11196TIP3   OH255078   6.643   2.798  13.401  0.3583 -0.6061 -0.3120
11196TIP3    H155079   6.657   2.730  13.467  0.0855  1.3970  1.9551
11196TIP3    H255080   6.548   2.813  13.402  0.5466  0.6382  0.1384
11197TIP3   OH255081   4.367   5.837   2.927  0.0571  0.1800  0.0570
11197TIP3    H155082   4.276   5.850   2.902 -0.0626  0.2362  0.5093
11197TIP3    H255083   4.409   5.922   2.910  0.3025 -0.1843 -1.2745
11198TIP3   OH255084   0.087   1.652  16.011  0.2113 -0.0272  0.2005
11198TIP3    H155085  -0.001   1.663  16.046  0.3606  1.0388  0.2743
11198TIP3    H255086   0.079   1.582  15.946 -0.2371 -1.4946  1.7610
11199TIP3   OH255087   4.757   1.387   5.954 -0.3953  0.2627 -0.4805
11199TIP3    H155088   4.706   1.415   5.878 -1.5266 -0.6929 -0.1013
11199TIP3    H255089   4.813   1.462   5.974 -2.5243  1.8919 -0.1657
11200TIP3   OH255090   4.525   4.984  13.905  0.0051 -0.1002  0.0747
11200TIP3    H155091   4.540   5.078  13.902  1.5334 -0.3055 -3.0421
11200TIP3    H255092   4.449   4.973  13.962  0.3320  2.8925  1.2396
11201TIP3   OH255093   2.752   5.228   1.193  0.8255 -0.2869 -0.1938
11201TIP3    H155094   2.828   5.209   1.138  2.5933 -1.6364  2.4645
11201TIP3    H255095   2.777   5.305   1.244  1.4187 -1.9329  2.1866
11202TIP3   OH255096   1.648   3.619  14.570  0.2342  0.3249 -0.0198
11202TIP3    H155097   1.567   3.670  14.579 -0.6344 -1.0468  0.2348
11202TIP3    H255098   1.641   3.578  14.484  1.3548  1.3172 -0.6096
11203TIP3   OH255099   6.439   1.092  11.399  0.2107 -0.2354  0.4749
11203TIP3    H155100   6.380   1.124  11.467  0.0506 -1.0860  0.7455
11203TIP3    H255101   6.446   0.998  11.416  0.1720 -0.4560 -0.6777
11204TIP3   OH255102   4.064   2.920  15.138 -0.1449  0.0226  0.1297
11204TIP3    H155103   4.083   3.010  15.114 -0.4295 -0.3498 -1.5822
11204TIP3    H255104   3.969   2.914  15.138 -0.1370 -0.1941  0.6288
11205TIP3   OH255105   0.426   0.666  12.167 -0.0316 -0.4180 -0.2774
11205TIP3    H155106   0.422   0.638  12.076 -2.1852  0.8402 -0.6396
11205TIP3    H255107   0.384   0.596  12.216 -1.1831  0.0255 -0.5982
11206TIP3   OH255108   0.530   1.065   1.073 -0.4354 -0.5476 -0.0533
11206TIP3    H155109   0.470   1.138   1.057 -0.4187 -0.8184 -1.5157
11206TIP3    H255110   0.580   1.057   0.991  2.3180  0.3055  1.4203
11207TIP3   OH255111   4.664   4.780   1.029  0.0986 -0.2432  0.1080
11207TIP3    H155112   4.606   4.768   0.953 -0.3872  0.4268  0.3576
11207TIP3    H255113   4.624   4.726   1.098 -0.4094  0.4400  0.3642
11208TIP3   OH255114   1.811   4.535   5.921  0.2767 -0.2773  0.7051
11208TIP3    H155115   1.869   4.608   5.897 -2.0332  1.5607  0.4202
11208TIP3    H255116   1.807   4.538   6.016  1.1361 -0.8475  0.7724
11209TIP3   OH255117   4.935   6.211   4.370 -0.1148  0.0948  0.4599
11209TIP3    H155118   4.947   6.280   4.305  1.3402  1.0756  1.7086
11209TIP3    H255119   4.898   6.256   4.447  0.7079 -0.5178  1.2379
11210TIP3   OH255120   0.376   0.103   4.881  0.1974  0.4727 -0.0007
11210TIP3    H155121   0.444   0.059   4.932  0.4716  0.4054 -0.4191
11210TIP3    H255122   0.421   0.175   4.838 -0.1879  0.9740  0.4262
11211TIP3   OH255123   0.415   2.287  11.847 -0.0321 -0.0830 -0.5719
11211TIP3    H155124   0.441   2.357  11.907  0.9981 -1.7488  1.0373
11211TIP3    H255125   0.337   2.320  11.803  1.0740  2.4943 -0.7272
11212TIP3   OH255126   6.726   1.807   0.818 -0.0290  0.5010  0.3790
11212TIP3    H155127   6.713   1.713   0.803 -3.2813  1.0139 -0.8446
11212TIP3    H255128   6.733   1.845   0.730  0.0188  1.5498  0.8138
11213TIP3   OH255129   0.240   6.563   0.748  0.5271  0.2987  0.2368
11213TIP3    H155130   0.188   6.556   0.668 -1.2980  0.3740  1.3733
11213TIP3    H255131   0.178   6.546   0.819  1.6276  2.2366  1.7548
11214TIP3   OH255132   4.242   3.074  12.373  0.0196 -0.1707 -0.0247
11214TIP3    H155133   4.298   3.151  12.372 -1.2234  0.7647 -0.3852
11214TIP3    H255134   4.213   3.066  12.464 -0.2658  0.1118 -0.0885
11215TIP3   OH255135   5.461   1.755   1.902 -0.0525  0.6791  0.4669
11215TIP3    H155136   5.504   1.670   1.897  1.1835  1.2718  0.5769
11215TIP3    H255137   5.371   1.735   1.928  0.2242 -0.5824  0.5318
11216TIP3   OH255138   5.996   6.745   6.391  0.5248 -0.0509  1.1485
11216TIP3    H155139   5.921   6.804   6.395  1.1477  0.7632  1.0183
11216TIP3    H255140   5.962   6.661   6.421 -0.3851  0.3618  1.2984
11217TIP3   OH255141   1.063   0.342   6.152 -0.2915 -0.9000  0.0585
11217TIP3    H155142   1.001   0.396   6.103 -1.2778  0.4528  2.6022
11217TIP3    H255143   1.040   0.252   6.129 -1.1996 -0.3507 -1.3131
11218TIP3   OH255144   6.391   0.434  13.834  0.4869 -0.5381  0.3651
11218TIP3    H155145   6.336   0.375  13.886 -1.6996  0.1747 -0.9855
11218TIP3    H255146   6.385   0.518  13.878 -0.8648 -0.0809 -0.6302
11219TIP3   OH255147   0.665   4.699   0.036 -0.0726  0.6685  0.3996
11219TIP3    H155148   0.681   4.784   0.078  1.4111  1.1930 -1.1463
11219TIP3    H255149   0.579   4.709  -0.005 -0.0457  1.3100  0.4884
11220TIP3   OH255150   3.032   1.979  16.107  0.1156  0.1289 -0.2186
11220TIP3    H155151   3.039   2.064  16.151 -0.4886 -1.2588  2.8122
11220TIP3    H255152   2.938   1.963  16.101  0.2308 -0.4603 -0.5416
11221TIP3   OH255153   2.518   1.801  12.278  0.0949 -0.0969 -0.4000
11221TIP3    H155154   2.488   1.723  12.231 -1.6944 -0.7567  1.6757
11221TIP3    H255155   2.468   1.873  12.238 -0.3483 -0.4398 -0.4690
11222TIP3   OH255156   6.156   0.728  16.599  0.1428 -0.0919 -0.2366
11222TIP3    H155157   6.062   0.726  16.617  0.0398  1.2411 -0.5419
11222TIP3    H255158   6.190   0.795  16.658  0.5965  0.7485 -1.4204
11223TIP3   OH255159   0.704   0.765  12.222 -0.0644  0.1790 -0.1511
11223TIP3    H155160   0.746   0.832  12.168 -0.5049 -0.1867 -0.9586
11223TIP3    H255161   0.614   0.795  12.232  0.5406  1.4273  2.3379
11224TIP3   OH255162   5.041   4.801   3.316  0.0720  0.2469  0.5616
11224TIP3    H155163   4.992   4.728   3.355  1.9168 -0.9921  0.7214
11224TIP3    H255164   5.019   4.877   3.370 -0.1553 -0.6833  1.8309
11225TIP3   OH255165   5.274   5.112   5.726  0.0659  0.2931 -0.3779
11225TIP3    H155166   5.341   5.114   5.795 -0.1622  2.0154 -0.1689
11225TIP3    H255167   5.305   5.173   5.660 -1.0109  0.6978 -0.5354
11226TIP3   OH255168   5.480   1.439  17.004 -0.2286  0.8907  0.1376
11226TIP3    H155169   5.566   1.416  17.040 -1.2789 -0.3714  2.0624
11226TIP3    H255170   5.461   1.526  17.040 -0.7281  0.1628  1.7648
11227TIP3   OH255171   4.813   1.100   1.290  0.5704 -0.2655  0.6898
11227TIP3    H155172   4.754   1.037   1.331  0.7131 -0.8124  0.0742
11227TIP3    H255173   4.809   1.079   1.197  1.1106  0.2254  0.5480
11228TIP3   OH255174   3.723   1.806  11.065  0.4145  0.0584 -0.1291
11228TIP3    H155175   3.682   1.722  11.082  0.0469  0.2869  0.1468
11228TIP3    H255176   3.719   1.817  10.970 -0.3745  0.1746 -0.0864
11229TIP3   OH255177   6.524   6.256  16.299  0.2419 -0.2799 -0.1705
11229TIP3    H155178   6.457   6.320  16.325 -0.5911 -1.5440  0.9124
11229TIP3    H255179   6.507   6.240  16.207 -1.5023 -1.1734  0.2665
11230TIP3   OH255180   5.248   6.331   1.447 -0.2732  0.0018 -0.3444
11230TIP3    H155181   5.205   6.246   1.440  0.7684 -0.4816 -1.2789
11230TIP3    H255182   5.297   6.340   1.365 -1.1903  1.9870 -0.7509
11231TIP3   OH255183   2.178   4.544   2.048  0.0343 -0.5454 -0.0799
11231TIP3    H155184   2.089   4.536   2.083 -0.3624 -0.3321 -1.0130
11231TIP3    H255185   2.178   4.488   1.970  0.7233 -0.5478 -0.0852
11232TIP3   OH255186   2.977   1.933  15.588  0.5495 -0.1161 -0.7041
11232TIP3    H155187   3.069   1.959  15.598  0.0645  1.1655  0.8354
11232TIP3    H255188   2.958   1.883  15.667 -0.1892 -0.0532 -0.8374
11233TIP3   OH255189   3.148   3.971   3.617  0.3262  0.1038 -0.0486
11233TIP3    H155190   3.164   4.065   3.621  0.2374  0.2244 -1.7361
11233TIP3    H255191   3.062   3.963   3.574  1.2346 -0.7659 -1.8017
11234TIP3   OH255192   2.251   3.280   5.062  0.5808 -0.4446 -0.3137
11234TIP3    H155193   2.246   3.224   5.139  0.8741  0.4417  0.3623
11234TIP3    H255194   2.344   3.301   5.054  0.2811  1.3906  0.5176
11235TIP3   OH255195   0.030   5.747   1.407 -0.2207  0.0847  0.3283
11235TIP3    H155196  -0.020   5.793   1.474 -2.8042  1.0651 -2.0785
11235TIP3    H255197   0.011   5.655   1.421  0.0840  0.1844  1.5062
11236TIP3   OH255198   3.252   3.933  15.361  0.4830  0.3735  0.0938
11236TIP3    H155199   3.346   3.921  15.376  0.4892  0.2385 -0.0489
11236TIP3    H255200   3.235   3.888  15.278  0.1312 -0.3399  0.5430
11237TIP3   OH255201   0.266   6.272   0.984  0.6290 -0.4421 -0.4697
11237TIP3    H155202   0.272   6.192   0.932  1.0523 -0.3420 -0.5847
11237TIP3    H255203   0.331   6.330   0.945  0.1504  0.0479 -0.5435
11238TIP3   OH255204   2.294   2.666   5.901 -0.1200 -0.3242  0.2927
11238TIP3    H155205   2.223   2.728   5.914 -1.8190 -1.8760 -1.0167
11238TIP3    H255206   2.272   2.592   5.958  1.8278  0.1544  1.7837
11239TIP3   OH255207   0.598   2.777   4.960  0.2165 -0.0639 -0.0742
11239TIP3    H155208   0.645   2.724   4.897 -0.4191 -1.1277  0.3197
11239TIP3    H255209   0.511   2.787   4.923  0.5680  1.4682 -0.5583
11240TIP3   OH255210   5.431   0.054   0.538  0.3143 -0.2360  0.2071
11240TIP3    H155211   5.336   0.064   0.528  0.1093 -1.6622  0.3735
11240TIP3    H255212   5.469   0.130   0.495 -0.9182  0.5374  0.4420
11241TIP3   OH255213   4.149   5.909   2.261 -0.6408 -0.5766 -0.1896
11241TIP3    H155214   4.128   5.821   2.229  1.6600 -0.6714 -1.7266
11241TIP3    H255215   4.137   5.966   2.184 -0.4888  0.1624  0.3214
11242TIP3   OH255216   0.621   0.418  13.199  0.4147 -0.2694  0.1436
11242TIP3    H155217   0.555   0.461  13.145  1.0260  0.9413  0.3189
11242TIP3    H255218   0.700   0.419  13.145  0.4533 -1.1427  0.1731
11243TIP3   OH255219   6.657   2.355  15.659  0.4075  0.0356 -0.2734
11243TIP3    H155220   6.705   2.309  15.728 -0.8063  0.5181  0.9395
11243TIP3    H255221   6.572   2.312  15.655 -0.3407  1.3912  0.1032
11244TIP3   OH255222   5.696   5.089  16.719 -0.1440  0.0589  0.0926
11244TIP3    H155223   5.655   5.098  16.805 -0.7243  0.0233 -0.1756
11244TIP3    H255224   5.652   5.014  16.679 -2.8579  2.4880 -1.8694
11245TIP3   OH255225   1.899   3.696  11.227 -0.3749 -0.3170  0.2951
11245TIP3    H155226   1.849   3.762  11.274 -1.0732 -1.8229  1.7443
11245TIP3    H255227   1.931   3.742  11.149 -1.2523  1.5695  0.9806
11246TIP3   OH255228   6.298   2.808  13.209  0.1837  0.1071  0.0107
11246TIP3    H155229   6.305   2.773  13.298  0.6360  0.1307 -0.0143
11246TIP3    H255230   6.306   2.732  13.152 -0.5364  0.0346 -0.0038
11247TIP3   OH255231   0.525   6.599   0.625 -0.2213  0.3347 -0.2445
11247TIP3    H155232   0.434   6.626   0.634 -0.5181 -0.3704 -0.9987
11247TIP3    H255233   0.527   6.548   0.544  1.0026  1.0298 -0.6844
11248TIP3   OH255234   2.894   3.975  16.765 -0.3946  0.0930 -0.0307
11248TIP3    H155235   2.904   3.880  16.758  0.4099  0.0406  1.5285
11248TIP3    H255236   2.853   4.000  16.682  2.1036 -1.2159 -1.7720
11249TIP3   OH255237   0.164   3.102   6.140  0.3513 -0.5418  0.1063
11249TIP3    H155238   0.160   3.086   6.234  3.1265  0.6237  0.5308
11249TIP3    H255239   0.248   3.065   6.113  0.6291  1.0702 -1.4519
11250TIP3   OH255240   3.760   4.149  14.152  0.1843 -0.2918  0.0170
11250TIP3    H155241   3.730   4.224  14.101 -2.8732 -0.4216  1.3861
11250TIP3    H255242   3.851   4.137  14.127 -0.0493  2.0853 -2.3619
11251TIP3   OH255243   6.062   5.410   1.580 -0.1118  0.0671  1.0315
11251TIP3    H155244   6.122   5.468   1.626  0.2292  0.4041  0.1816
11251TIP3    H255245   6.108   5.386   1.500  0.0004 -1.8651  1.6188
11252TIP3   OH255246   6.716   0.204   0.763 -0.0878  0.0779 -0.4975
11252TIP3    H155247   6.622   0.206   0.784  0.1882 -0.8770  0.9147
11252TIP3    H255248   6.757   0.167   0.841  1.3176 -0.9269 -1.6741
11253TIP3   OH255249   0.580   2.605  15.503 -0.2843 -1.0039  0.4651
11253TIP3    H155250   0.548   2.690  15.473 -0.2737 -0.2900  2.3572
11253TIP3    H255251   0.504   2.563  15.542 -0.3567 -2.0294 -0.6949
11254TIP3   OH255252   0.543   2.249  12.502 -0.1954 -0.0718  0.3030
11254TIP3    H155253   0.472   2.306  12.473 -1.3664 -1.0139  1.2031
11254TIP3    H255254   0.594   2.302  12.563 -0.5523  0.3793  0.2153
11255TIP3   OH255255   0.528   1.829   4.990  0.5682  0.4665  0.1429
11255TIP3    H155256   0.523   1.919   5.022 -2.4409  0.4800 -0.1349
11255TIP3    H255257   0.470   1.827   4.914  2.2403 -1.2314 -1.1840
11256TIP3   OH255258   6.249   5.756   5.547  0.3529  0.8218  0.1741
11256TIP3    H155259   6.290   5.725   5.467 -1.0751  0.9493 -0.6446
11256TIP3    H255260   6.305   5.827   5.577  0.7079  1.0151 -0.9107
11257TIP3   OH255261   0.746   4.231  12.574  0.0244 -0.3415  0.1276
11257TIP3    H155262   0.789   4.172  12.635 -0.1617  1.3536  1.9811
11257TIP3    H255263   0.657   4.198  12.567 -0.6220  0.6987  2.6110
11258TIP3   OH255264   3.558   4.159   3.227  0.1404  0.2792 -0.6182
11258TIP3    H155265   3.511   4.239   3.204 -0.4608  0.6342  1.6210
11258TIP3    H255266   3.612   4.184   3.302 -0.8456 -1.6250  0.8196
11259TIP3   OH255267   2.884   0.920  17.179  0.5074  0.6746  0.6705
11259TIP3    H155268   2.832   0.840  17.171  0.2256  0.6825  2.1360
11259TIP3    H255269   2.940   0.920  17.102 -3.0992  1.7527 -2.2605
11260TIP3   OH255270   4.973   5.657  11.713  0.4579  0.0925 -0.1166
11260TIP3    H155271   4.910   5.614  11.655  2.7440 -1.8109 -1.3334
11260TIP3    H255272   4.956   5.619  11.799  1.0478 -1.7402 -0.7731
11261TIP3   OH255273   0.843   2.594  15.636  0.0099 -0.4604  0.0988
11261TIP3    H155274   0.798   2.549  15.708 -0.1938  1.3991  1.1814
11261TIP3    H255275   0.773   2.630  15.582  0.1781  0.2966  0.3814
11262TIP3   OH255276   6.213   4.360   0.253  0.1296  0.0193 -0.5990
11262TIP3    H155277   6.261   4.369   0.170  0.5170 -0.5345 -0.4392
11262TIP3    H255278   6.254   4.424   0.311  0.1658  0.0891 -0.7012
11263TIP3   OH255279   1.454   3.437   3.635  0.7858  0.0692 -0.1333
11263TIP3    H155280   1.364   3.424   3.663  1.3233 -0.1082  1.6576
11263TIP3    H255281   1.450   3.512   3.575 -0.8121 -1.3145 -1.8537
11264TIP3   OH255282   5.590   0.353  15.675 -0.1991 -0.0074 -0.3913
11264TIP3    H155283   5.654   0.403  15.624 -0.4068  0.6846  0.0195
11264TIP3    H255284   5.511   0.353  15.621 -0.3785  0.6138 -0.1315
11265TIP3   OH255285   4.989   0.819   6.023 -0.4457  0.0978  0.5467
11265TIP3    H155286   4.930   0.804   6.096  0.3275  0.4162  1.2604
11265TIP3    H255287   4.979   0.743   5.967 -2.1392  0.5286  0.2101
11266TIP3   OH255288   6.138   2.477  11.980 -0.1897  0.0562 -0.8246
11266TIP3    H155289   6.145   2.486  12.075 -0.5984 -0.0366 -0.7841
11266TIP3    H255290   6.075   2.544  11.954  2.6131  2.6959 -1.5104
11267TIP3   OH255291   0.142   4.237   1.526 -0.0918 -0.1813 -0.2987
11267TIP3    H155292   0.056   4.207   1.499 -0.3702  0.1037  0.2546
11267TIP3    H255293   0.176   4.167   1.582  0.3823 -0.6596 -1.1545
11268TIP3   OH255294   5.680   4.487  12.945 -0.7669  0.0997  0.0056
11268TIP3    H155295   5.592   4.523  12.939  0.0949  2.0546 -2.8342
11268TIP3    H255296   5.679   4.409  12.890 -0.4780  0.7753 -0.9813
11269TIP3   OH255297   5.005   0.361  12.170  0.4772  0.0240  0.2639
11269TIP3    H155298   5.010   0.265  12.171  0.6986  0.0144  2.1177
11269TIP3    H255299   5.095   0.390  12.154  0.5417 -0.0805  0.4350
11270TIP3   OH255300   6.351   1.162  11.085  0.5437  0.2570 -0.1283
11270TIP3    H155301   6.290   1.155  11.011  1.4518 -4.3155 -0.7249
11270TIP3    H255302   6.320   1.097  11.148  1.2722  2.2756  2.4770
11271TIP3   OH255303   0.236   1.504   1.622  0.0353 -0.0926 -0.7360
11271TIP3    H155304   0.274   1.551   1.548  0.0399  0.4444 -0.3996
11271TIP3    H255305   0.142   1.521   1.615 -0.0443 -0.6327 -1.0236
11272TIP3   OH255306   0.469   4.573   0.894 -1.0495 -0.0153  0.1317
11272TIP3    H155307   0.409   4.508   0.929  0.2685 -1.1138  0.4296
11272TIP3    H255308   0.443   4.584   0.803 -0.8289 -1.5298 -0.1278
11273TIP3   OH255309   0.554   1.311  12.916  0.6026  0.3754  0.3092
11273TIP3    H155310   0.507   1.264  12.847  0.9129 -1.7576  1.4828
11273TIP3    H255311   0.570   1.398  12.879  0.6553 -0.6478 -2.2562
11274TIP3   OH255312   3.164   3.189   4.413  0.0583  0.4522  0.7005
11274TIP3    H155313   3.148   3.227   4.327 -0.3519 -0.9791  0.1089
11274TIP3    H255314   3.259   3.178   4.418  0.0712  0.4095  0.3680
11275TIP3   OH255315   1.467   3.383  11.354 -0.1170  0.4484  0.0115
11275TIP3    H155316   1.477   3.456  11.415  0.4174  1.2002 -0.9392
11275TIP3    H255317   1.536   3.396  11.289 -0.3004 -0.6538 -0.4388
11276TIP3   OH255318   0.178   3.565  15.985 -0.1439  0.4614  0.3150
11276TIP3    H155319   0.135   3.508  16.048  0.0812  0.0423  0.0896
11276TIP3    H255320   0.108   3.592  15.925  0.1829 -1.5830 -1.0768
11277TIP3   OH255321   6.733   6.482   2.895 -0.1823  0.0932  0.0080
11277TIP3    H155322   6.757   6.573   2.881 -0.1071  0.3855  1.8197
11277TIP3    H255323   6.712   6.476   2.988 -0.2119 -1.7303 -0.0699
11278TIP3   OH255324   5.320   6.247  15.420 -0.1181 -0.5971 -0.2377
11278TIP3    H155325   5.302   6.317  15.483  0.3316  0.1207 -0.8891
11278TIP3    H255326   5.299   6.166  15.467 -3.0439  0.0315 -0.2383
11279TIP3   OH255327   4.827   5.054  14.732  0.6575 -0.0742  0.4148
11279TIP3    H155328   4.871   5.100  14.661 -0.9524  0.4431 -0.3034
11279TIP3    H255329   4.862   4.965  14.730  3.1893  0.8254  1.2640
11280TIP3   OH255330   0.583   3.416  14.410 -0.3618  0.7611  0.0322
11280TIP3    H155331   0.547   3.420  14.322  0.7305  0.2739 -0.4526
11280TIP3    H255332   0.636   3.495  14.418 -1.1276  1.2295  0.5644
11281TIP3   OH255333   0.484   3.366  10.769  0.2780  0.0590 -0.2797
11281TIP3    H155334   0.462   3.438  10.709  0.7763 -1.2740 -2.1835
11281TIP3    H255335   0.579   3.373  10.780  0.0220  1.1340  1.5641
11282TIP3   OH255336   0.120   3.110   4.676 -0.4324 -0.0714 -0.6540
11282TIP3    H155337   0.179   3.143   4.743 -1.1829  0.2731 -0.1493
11282TIP3    H255338   0.054   3.060   4.725  0.8475 -2.6984 -1.3866
11283TIP3   OH255339   2.693   6.594   1.440 -0.3155 -0.0247 -0.4712
11283TIP3    H155340   2.642   6.650   1.499  0.4574 -0.5033  0.6856
11283TIP3    H255341   2.652   6.507   1.448  0.5538 -0.3798  0.3567
11284TIP3   OH255342   3.505   2.531   2.195 -0.4429  0.1513 -0.3101
11284TIP3    H155343   3.413   2.546   2.175 -0.3911 -1.0057 -1.5532
11284TIP3    H255344   3.550   2.539   2.111  0.0575 -2.9965 -0.4689
11285TIP3   OH255345   1.926   1.240   2.576  0.3358  0.0910  0.0096
11285TIP3    H155346   1.986   1.201   2.513 -0.0561 -0.5599  0.0382
11285TIP3    H255347   1.871   1.168   2.606 -0.7872  0.7621 -0.3756
11286TIP3   OH255348   5.734   3.876   1.786 -0.8736 -0.8030 -0.3158
11286TIP3    H155349   5.720   3.864   1.880 -0.3877 -3.2952 -0.5024
11286TIP3    H255350   5.646   3.887   1.750 -1.0558  0.3183  0.3925
11287TIP3   OH255351   4.453   4.913   2.450  0.0051 -0.2635  0.0526
11287TIP3    H155352   4.530   4.947   2.496  0.0172 -2.1006  1.4978
11287TIP3    H255353   4.464   4.942   2.359  1.2313  1.4001  0.6854
11288TIP3   OH255354   5.877   4.134   2.830  0.5146 -0.0551 -0.1024
11288TIP3    H155355   5.916   4.143   2.917 -1.5599  0.4539  0.8481
11288TIP3    H255356   5.783   4.146   2.845  0.1021  0.0777 -2.4308
11289TIP3   OH255357   3.965   5.103  14.921  0.4025  0.4627  0.4868
11289TIP3    H155358   3.959   5.073  15.011  1.0636 -0.6117  0.1941
11289TIP3    H255359   4.060   5.110  14.904  0.3707 -1.2706 -0.7006
11290TIP3   OH255360   6.011   2.011   4.670 -0.1388  0.2441 -0.2080
11290TIP3    H155361   6.088   2.046   4.626  0.0630 -0.1823 -0.1963
11290TIP3    H255362   6.013   2.051   4.757 -0.7678  1.4157 -0.7061
11291TIP3   OH255363   3.349   1.023   2.514 -0.3265 -0.5667  0.1987
11291TIP3    H155364   3.436   1.031   2.473 -0.4937 -0.7486 -0.1961
11291TIP3    H255365   3.339   1.104   2.564  0.7424 -1.2161  1.5585
11292TIP3   OH255366   0.478   4.186  12.258  0.2809 -0.5085 -0.3407
11292TIP3    H155367   0.383   4.192  12.249 -0.1316 -1.2428  2.4457
11292TIP3    H255368   0.498   4.095  12.233 -0.1214 -1.0316  1.1141
11293TIP3   OH255369   6.379   0.566   6.425 -0.3803 -0.6889 -0.1760
11293TIP3    H155370   6.449   0.562   6.360 -0.5823 -1.2820 -0.3545
11293TIP3    H255371   6.391   0.488   6.479 -1.3934 -1.2215 -0.7069
11294TIP3   OH255372   4.498   3.746  15.932  0.2215  0.1147 -0.4275
11294TIP3    H155373   4.468   3.674  15.987 -0.7547  0.1220 -0.9144
11294TIP3    H255374   4.573   3.782  15.978  1.1247 -1.5945 -0.4887
11295TIP3   OH255375   0.298   4.874  13.144  0.0964  0.0007  0.5314
11295TIP3    H155376   0.242   4.938  13.188  0.7941  0.0069  1.4240
11295TIP3    H255377   0.239   4.801  13.123 -0.4371  0.3921  0.6462
11296TIP3   OH255378   4.571   3.682  15.639  0.8571 -0.2660 -0.0364
11296TIP3    H155379   4.631   3.658  15.710  0.8331  1.1918  0.5053
11296TIP3    H255380   4.519   3.754  15.675  1.8045  1.5001 -1.9667
11297TIP3   OH255381   2.614   3.535  16.452  0.3876 -0.1053 -0.2763
11297TIP3    H155382   2.557   3.543  16.528  0.2448  0.4853 -0.4340
11297TIP3    H255383   2.703   3.538  16.487  0.3375 -1.5473  0.0246
11298TIP3   OH255384   5.350   0.803   6.262 -0.1433  0.2803 -0.1435
11298TIP3    H155385   5.351   0.894   6.293 -1.5704  0.3424 -0.2187
11298TIP3    H255386   5.329   0.810   6.169  3.1302  0.0350 -1.0209
11299TIP3   OH255387   6.538   0.355   3.632  0.0201  0.1467 -0.8016
11299TIP3    H155388   6.517   0.264   3.616 -0.4273  0.3032 -1.1138
11299TIP3    H255389   6.526   0.366   3.726 -1.5416  0.2824 -0.9859
11300TIP3   OH255390   1.716   1.763   0.836 -0.5695  0.1696  0.2686
11300TIP3    H155391   1.700   1.848   0.796  0.6240  0.4495  0.3202
11300TIP3    H255392   1.671   1.767   0.920 -0.6302  0.7109  0.2123
11301TIP3   OH255393   2.794   5.473  12.671  0.3375  0.6929  0.6852
11301TIP3    H155394   2.852   5.465  12.596 -0.3923  0.1314  0.1559
11301TIP3    H255395   2.851   5.463  12.748  0.7491 -1.4132  0.1723
11302TIP3   OH255396   1.210   1.646   5.673  0.3360 -0.3249 -0.6352
11302TIP3    H155397   1.125   1.688   5.674  0.0562 -0.8820 -0.2047
11302TIP3    H255398   1.265   1.703   5.619  0.6877  1.9734  1.9266
11303TIP3   OH255399   6.297   1.410   5.711  0.7578 -0.1577  0.6225
11303TIP3    H155400   6.245   1.333   5.688 -0.4037  0.9624 -0.6786
11303TIP3    H255401   6.365   1.414   5.644  1.1932 -0.3750  1.0434
11304TIP3   OH255402   3.798   2.841   5.496  0.2814 -0.2885 -0.6286
11304TIP3    H155403   3.868   2.785   5.531  0.0205 -0.2310  0.0077
11304TIP3    H255404   3.804   2.920   5.550  1.4917  0.8558 -2.3522
11305TIP3   OH255405   4.397   1.298  13.980  0.3229 -0.0911  0.6327
11305TIP3    H155406   4.462   1.309  14.049  0.4472 -0.9543  0.6633
11305TIP3    H255407   4.389   1.385  13.941 -0.4322  0.6653  2.3331
11306TIP3   OH255408   2.777   6.470  14.259  0.2048  0.4165  0.1638
11306TIP3    H155409   2.867   6.437  14.249 -0.7070 -2.1265 -0.3859
11306TIP3    H255410   2.742   6.470  14.170 -0.2633  1.7316  0.3293
11307TIP3   OH255411   6.514   5.543  12.951  0.4023 -0.1671  0.0404
11307TIP3    H155412   6.540   5.630  12.921  0.6891 -0.7845 -1.6056
11307TIP3    H255413   6.476   5.558  13.038  1.5975  1.4139  0.3324
11308TIP3   OH255414   2.585   0.128   3.264 -0.0726 -0.5798 -0.1929
11308TIP3    H155415   2.596   0.202   3.325  0.6107 -0.8384  0.0026
11308TIP3    H255416   2.616   0.052   3.314  0.8890 -0.7347 -1.0017
11309TIP3   OH255417   3.448   4.703  15.651  0.0068 -0.1383 -0.0668
11309TIP3    H155418   3.453   4.798  15.637  2.0249  0.5286  3.7462
11309TIP3    H255419   3.356   4.682  15.638 -0.6624  2.5097 -0.2782
11310TIP3   OH255420   0.680   5.275  14.446 -0.1662 -0.1651  0.4567
11310TIP3    H155421   0.585   5.283  14.435  0.0638  0.0341 -1.6138
11310TIP3    H255422   0.702   5.343  14.511 -1.0801  1.8025 -1.1872
11311TIP3   OH255423   5.297   3.592   5.140 -0.7264 -0.7196 -0.0752
11311TIP3    H155424   5.266   3.507   5.173  0.4879 -0.7728  0.9590
11311TIP3    H255425   5.322   3.641   5.218 -2.3055  1.0028 -0.5701
11312TIP3   OH255426   6.464   0.961   0.533 -0.4483  0.2465  0.1083
11312TIP3    H155427   6.557   0.980   0.538 -0.6779  2.1921 -1.6217
11312TIP3    H255428   6.454   0.905   0.456 -0.6867 -0.1807  0.4451
11313TIP3   OH255429   6.155   2.240   2.727 -0.1825 -0.1222  0.7525
11313TIP3    H155430   6.166   2.276   2.639  1.5686  0.1497  1.0452
11313TIP3    H255431   6.218   2.287   2.781 -0.0420 -1.4369  1.8120
11314TIP3   OH255432   4.730   6.770   1.651 -0.0224  0.2199  0.2926
11314TIP3    H155433   4.769   6.847   1.610 -2.4941  1.5368  0.2359
11314TIP3    H255434   4.690   6.804   1.731  0.1023 -1.3015  1.0276
11315TIP3   OH255435   2.940   0.557   6.725 -0.0914  0.0696  0.3032
11315TIP3    H155436   2.912   0.615   6.796 -2.0984 -1.1057  0.5549
11315TIP3    H255437   2.905   0.471   6.749 -0.2893 -0.4884 -1.7924
11316TIP3   OH255438   3.983   5.623   0.711 -0.2454  0.3867  0.1268
11316TIP3    H155439   3.994   5.643   0.804 -1.7318  1.2562  0.1352
11316TIP3    H255440   3.946   5.535   0.711  0.7398 -0.0473  0.2965
11317TIP3   OH255441   0.130   0.307   6.404  0.6044  0.0228  0.5270
11317TIP3    H155442   0.211   0.294   6.355  0.0817 -0.1794 -0.2981
11317TIP3    H255443   0.070   0.348   6.342  0.9996  3.0843  1.9578
11318TIP3   OH255444   3.442   5.607  15.604  0.1247  0.4136  0.1403
11318TIP3    H155445   3.491   5.546  15.549 -1.3564 -0.2929 -0.4273
11318TIP3    H255446   3.488   5.605  15.689  2.6594  1.7784 -1.0750
11319TIP3   OH255447   3.341   6.740   1.851 -0.1888  0.1157  0.0019
11319TIP3    H155448   3.400   6.679   1.808 -1.0222 -0.8961  0.2584
11319TIP3    H255449   3.390   6.823   1.854  0.7969 -0.4200 -0.7118
11320TIP3   OH255450   0.864   0.644  14.374  0.3204 -0.6510  0.1830
11320TIP3    H155451   0.784   0.670  14.419  1.1710  2.0258  0.3373
11320TIP3    H255452   0.928   0.711  14.399  1.9591 -1.3735 -1.8007
11321TIP3   OH255453   0.227   6.374   4.977 -0.0185 -0.0605 -0.2655
11321TIP3    H155454   0.157   6.437   4.958  0.3560  0.0077 -1.4811
11321TIP3    H255455   0.303   6.408   4.930  0.8694 -0.1082  1.0715
11322TIP3   OH255456   3.489   6.553  12.695  0.8220 -0.1274 -0.0348
11322TIP3    H155457   3.393   6.557  12.694  0.7476 -1.1707 -1.5225
11322TIP3    H255458   3.510   6.495  12.768  0.4166  1.2660  1.2281
11323TIP3   OH255459   6.665   3.366  11.715  0.2651 -0.2033  0.0126
11323TIP3    H155460   6.572   3.344  11.711  0.2812 -0.1045 -1.4951
11323TIP3    H255461   6.710   3.289  11.678  0.4792  1.1865 -2.9389
11324TIP3   OH255462   5.838   1.139  15.054  0.1608  0.1617 -0.2819
11324TIP3    H155463   5.919   1.189  15.057 -0.4880  1.2010  0.8493
11324TIP3    H255464   5.786   1.173  15.127 -0.8214 -1.3043 -0.2480
11325TIP3   OH255465   0.089   6.107  13.588  0.2798  0.6019  0.3817
11325TIP3    H155466   0.082   6.202  13.592  0.8213  0.6618  0.1088
11325TIP3    H255467   0.131   6.090  13.503  0.3723  0.1330  0.5188
11326TIP3   OH255468   2.221   1.555  12.033 -0.3216 -0.1791  0.4575
11326TIP3    H155469   2.294   1.495  12.019  0.6361  0.9248  0.5884
11326TIP3    H255470   2.250   1.638  11.996 -0.5421  0.9174  2.5788
11327TIP3   OH255471   4.374   2.482   0.443  0.3735  0.0861  0.5033
11327TIP3    H155472   4.402   2.559   0.493  1.5631 -1.0062  1.6177
11327TIP3    H255473   4.379   2.410   0.507 -0.7544 -0.9123 -0.4903
11328TIP3   OH255474   1.850   4.059   0.281  0.6668  0.0847  0.2313
11328TIP3    H155475   1.766   4.106   0.288  0.8334  0.1752  2.4693
11328TIP3    H255476   1.909   4.108   0.338  0.9218 -2.5949  2.5110
11329TIP3   OH255477   2.653   1.566   0.930 -0.1367 -0.0782 -0.0666
11329TIP3    H155478   2.703   1.493   0.893  0.4841 -0.0150  0.6354
11329TIP3    H255479   2.688   1.577   1.018  0.0247  1.2984 -0.2787
11330TIP3   OH255480   5.140   4.538  10.746 -0.0612  0.1203 -0.1228
11330TIP3    H155481   5.093   4.455  10.741 -1.3271  0.8393 -0.6831
11330TIP3    H255482   5.129   4.566  10.837 -0.1064 -0.0548 -0.0730
11331TIP3   OH255483   0.244   6.128  11.606 -0.3339  0.1821 -0.1965
11331TIP3    H155484   0.234   6.222  11.620  0.9207  0.3056 -0.0741
11331TIP3    H255485   0.308   6.100  11.671  0.7801 -0.3935 -1.4840
11332TIP3   OH255486   6.813   1.250   1.028 -0.5843 -0.2714  0.6461
11332TIP3    H155487   6.857   1.204   1.100  0.8146  0.2003  0.1135
11332TIP3    H255488   6.874   1.245   0.955 -2.0342 -0.8254 -0.5650
11333TIP3   OH255489   0.598   0.982   2.198 -0.2568  0.4775  0.0204
11333TIP3    H155490   0.685   0.950   2.224 -0.9539 -0.7090  0.9696
11333TIP3    H255491   0.568   0.920   2.132 -1.6030 -0.9099  1.8473
11334TIP3   OH255492   2.292   3.860  13.653 -0.1506 -0.7580  0.2332
11334TIP3    H155493   2.380   3.861  13.616 -0.3607 -1.4309 -0.3134
11334TIP3    H255494   2.234   3.856  13.577 -0.7295  1.1084  0.5196
11335TIP3   OH255495   2.539   5.147  15.826  0.7057  0.0618 -0.2110
11335TIP3    H155496   2.570   5.194  15.904 -0.8373 -0.5838  0.8379
11335TIP3    H255497   2.450   5.120  15.848 -0.2269  0.8629 -2.6665
11336TIP3   OH255498   3.060   5.299   4.351  0.1789 -0.7686 -0.0622
11336TIP3    H155499   3.100   5.382   4.323 -1.7378  0.5762  0.9325
11336TIP3    H255500   3.128   5.255   4.401  1.0566  0.4956 -0.1017
11337TIP3   OH255501   4.665   4.918   0.123  0.0758  0.4362 -0.0239
11337TIP3    H155502   4.631   4.875   0.201 -1.7700  0.9224 -0.4956
11337TIP3    H255503   4.747   4.958   0.150 -0.6855  0.8660  1.7551
11338TIP3   OH255504   0.128   6.755   1.115  0.5953  0.0431 -0.1090
11338TIP3    H155505   0.114   6.664   1.087 -0.3999 -0.2035  1.1111
11338TIP3    H255506   0.222   6.761   1.129  0.9536 -0.2192 -2.0664
11339TIP3   OH255507   3.750   5.412   0.347  0.4083 -0.6331 -0.5095
11339TIP3    H155508   3.690   5.411   0.421  0.1934 -1.3779 -0.6953
11339TIP3    H255509   3.817   5.347   0.369  1.3155  0.3760 -0.1743
11340TIP3   OH255510   6.444   0.877  10.707 -0.1759  0.6801  0.0576
11340TIP3    H155511   6.374   0.836  10.657  0.7113 -1.3698  0.3906
11340TIP3    H255512   6.521   0.870  10.651  0.8055 -1.5415  1.5276
11341TIP3   OH255513   2.175   0.063  16.380  0.2413 -0.2648 -0.0195
11341TIP3    H155514   2.226   0.048  16.459  1.7916  0.0182 -0.9327
11341TIP3    H255515   2.183  -0.018  16.330 -1.9858 -1.0160  0.7389
11342TIP3   OH255516   1.208   0.575   1.006 -0.6418  0.4416 -0.5485
11342TIP3    H155517   1.268   0.516   1.051  2.5906  2.5141 -1.7383
11342TIP3    H255518   1.160   0.518   0.945  2.2978 -1.0745 -1.6607
11343TIP3   OH255519   0.823   6.710   6.447 -0.1493  0.1510  0.5313
11343TIP3    H155520   0.841   6.758   6.528  0.5672 -0.7969  0.9564
11343TIP3    H255521   0.886   6.745   6.384 -1.0298  1.2310  0.2321
11344TIP3   OH255522   1.051   2.148  12.016 -0.2219  0.1228 -0.0301
11344TIP3    H155523   1.008   2.069  11.983 -0.0381  0.3662 -0.8782
11344TIP3    H255524   1.102   2.180  11.942  0.5637  0.4438  0.6320
11345TIP3   OH255525   4.983   6.346   4.893  0.6543  0.3530  0.2999
11345TIP3    H155526   5.011   6.258   4.919  1.2722  0.8982  1.5682
11345TIP3    H255527   5.057   6.382   4.845  0.1487 -0.0310 -0.8215
11346TIP3   OH255528   4.368   3.619  11.203  1.2870  0.6212 -0.2303
11346TIP3    H155529   4.413   3.544  11.163 -0.1423  0.8452 -2.4536
11346TIP3    H255530   4.385   3.610  11.297 -0.4974 -3.6833 -0.1014
11347TIP3   OH255531   2.324   2.481   0.953 -0.0457  0.3178 -0.0756
11347TIP3    H155532   2.267   2.483   0.876 -2.6371  0.5716  1.7275
11347TIP3    H255533   2.362   2.569   0.957 -2.7091  1.5338  0.8162
11348TIP3   OH255534   1.777   5.876   3.777  0.7819 -0.4418  0.1812
11348TIP3    H155535   1.765   5.825   3.697  2.2013  0.7713 -0.8461
11348TIP3    H255536   1.731   5.958   3.760  2.9591  0.7195 -0.3185
11349TIP3   OH255537   5.274   0.407   4.899  0.3568 -0.0640  0.4349
11349TIP3    H155538   5.254   0.329   4.848 -2.4119  1.0831 -0.4481
11349TIP3    H255539   5.351   0.444   4.856 -0.1700 -0.6796 -1.1007
11350TIP3   OH255540   4.622   0.410  13.388  0.2982 -0.0965 -0.1436
11350TIP3    H155541   4.626   0.489  13.334  0.6413 -0.1201 -0.1535
11350TIP3    H255542   4.670   0.433  13.468 -0.7659  0.1618  0.4434
11351TIP3   OH255543   3.387   1.811   1.382  0.1349  0.3146  0.4246
11351TIP3    H155544   3.364   1.756   1.457  1.1298 -0.0198  0.4959
11351TIP3    H255545   3.372   1.755   1.306 -0.3861  0.4875  0.3922
11352TIP3   OH255546   3.273   0.578   6.410 -0.4076 -0.1436  0.0456
11352TIP3    H155547   3.205   0.600   6.346  1.3111 -0.9326 -2.1882
11352TIP3    H255548   3.355   0.600   6.366  0.8814 -0.8172  1.9748
11353TIP3   OH255549   1.754   2.304  15.460 -0.1848  0.2441  0.1249
11353TIP3    H155550   1.753   2.209  15.466  0.4052  0.1936 -0.3814
11353TIP3    H255551   1.662   2.330  15.456 -0.4025 -0.1992  1.5713
11354TIP3   OH255552   4.844   3.597  13.547 -0.0400  0.4294  0.4223
11354TIP3    H155553   4.857   3.573  13.455 -0.5500 -1.2066  0.7466
11354TIP3    H255554   4.749   3.605  13.556 -0.2451 -2.0902  1.3706
11355TIP3   OH255555   2.244   5.426  11.067 -0.4361 -0.2753  0.1171
11355TIP3    H155556   2.321   5.476  11.039 -0.2941 -1.5998 -2.1019
11355TIP3    H255557   2.213   5.383  10.987 -2.5104 -1.0907  1.2856
11356TIP3   OH255558   4.028   1.305  16.216 -0.2165 -0.2675  0.3922
11356TIP3    H155559   4.111   1.257  16.208  0.3595  0.8031 -0.3266
11356TIP3    H255560   3.991   1.305  16.128  0.4951  1.7607  0.0295
11357TIP3   OH255561   1.125   4.204  17.079  0.6013 -0.1946  0.1896
11357TIP3    H155562   1.177   4.193  17.159 -2.2126  0.5892  2.3104
11357TIP3    H255563   1.140   4.123  17.029 -0.6663 -2.7488  3.5447
11358TIP3   OH255564   2.534   3.766   0.274 -0.2423 -0.0165  0.2282
11358TIP3    H155565   2.515   3.849   0.319  1.0732 -0.4589  1.6626
11358TIP3    H255566   2.583   3.792   0.196  0.2620  0.5596  0.7272
11359TIP3   OH255567   0.262   3.322  12.299  0.6086  0.2812 -0.4108
11359TIP3    H155568   0.255   3.301  12.392  1.8480 -1.6084 -0.6980
11359TIP3    H255569   0.260   3.418  12.296 -1.0518  0.3756  1.3825
11360TIP3   OH255570   1.033   1.109  11.803  0.9160 -0.1695  0.2345
11360TIP3    H155571   1.122   1.072  11.804  1.3281  0.7941  0.5830
11360TIP3    H255572   0.978   1.038  11.772  1.7315 -0.9721  0.5700
11361TIP3   OH255573   4.371   1.909   2.013 -0.0529 -0.0391  0.1664
11361TIP3    H155574   4.277   1.929   2.015 -0.0537 -0.0980  1.1834
11361TIP3    H255575   4.412   1.990   1.984 -0.4116 -0.0360 -0.3606
11362TIP3   OH255576   0.715   3.048  11.013  0.4639  0.2342  0.0706
11362TIP3    H155577   0.677   2.982  10.956 -0.4375  0.7285  0.0825
11362TIP3    H255578   0.802   3.064  10.977  0.0251  0.3111 -0.9732
11363TIP3   OH255579   6.491   0.776   1.038 -0.1775 -0.2342  0.4642
11363TIP3    H155580   6.506   0.682   1.043 -3.6313 -0.9747 -0.4251
11363TIP3    H255581   6.472   0.792   0.945  0.4848  1.4215  0.5675
11364TIP3   OH255582   2.132   2.087   6.971 -0.5184  0.3711 -0.2590
11364TIP3    H155583   2.196   2.017   6.981 -1.8732 -0.9823 -0.6633
11364TIP3    H255584   2.185   2.167   6.965  1.0293 -0.4655  1.2529
11365TIP3   OH255585   2.264   6.799  13.421  0.6399  0.1944 -0.7293
11365TIP3    H155586   2.200   6.844  13.365  2.9542  2.3716 -1.8209
11365TIP3    H255587   2.259   6.708  13.394 -3.0345 -0.0904  0.3515
11366TIP3   OH255588   2.330   3.000   0.959 -0.0916  0.0011  0.0196
11366TIP3    H155589   2.393   3.056   0.914  1.3175 -1.7031 -0.2674
11366TIP3    H255590   2.281   3.058   1.016  0.6773  1.6280 -0.9192
11367TIP3   OH255591   1.068   3.266   4.522 -0.3357 -0.2194 -0.5697
11367TIP3    H155592   1.135   3.257   4.454 -0.4303  0.9878 -0.8400
11367TIP3    H255593   1.101   3.213   4.595 -0.3110 -1.6626 -1.5947
11368TIP3   OH255594   4.841   1.816  15.952  0.1261  0.0199  0.3032
11368TIP3    H155595   4.824   1.842  16.043 -1.5347  1.2213 -0.2980
11368TIP3    H255596   4.896   1.886  15.917  1.1480 -0.6714  0.4726
11369TIP3   OH255597   4.842   5.479   1.953 -0.3752 -0.1468 -0.1476
11369TIP3    H155598   4.801   5.403   1.911 -1.7578  0.2095  0.5188
11369TIP3    H255599   4.782   5.551   1.938  1.0117  0.8964 -0.9200
11370TIP3   OH255600   0.403   3.941   2.244  0.1525 -0.0622  0.5220
11370TIP3    H155601   0.391   3.849   2.265  0.9244 -0.4053 -0.4816
11370TIP3    H255602   0.475   3.943   2.181 -0.7007  1.1008 -0.4650
11371TIP3   OH255603   1.906   0.199   3.703  0.6031  0.8246  0.1721
11371TIP3    H155604   1.882   0.132   3.639 -0.3556 -1.3677  2.6960
11371TIP3    H255605   1.851   0.274   3.680  0.4071  0.1775 -1.6386
11372TIP3   OH255606   6.351   4.359  12.264  0.0891 -0.6079 -0.0256
11372TIP3    H155607   6.444   4.346  12.285  0.1055 -1.3786 -0.5117
11372TIP3    H255608   6.325   4.435  12.315  1.1788  0.0664 -0.4293
11373TIP3   OH255609   3.200   4.569   3.964 -0.1196 -0.3883 -0.0313
11373TIP3    H155610   3.294   4.562   3.949 -0.0465  1.1652 -0.5020
11373TIP3    H255611   3.161   4.571   3.876 -0.3839  1.0481  0.0913
11374TIP3   OH255612   5.392   4.414  17.222  0.5940 -0.2430 -0.2045
11374TIP3    H155613   5.436   4.421  17.306  0.2797  1.9436 -0.1745
11374TIP3    H255614   5.453   4.453  17.159  0.4088 -0.9543 -0.8462
11375TIP3   OH255615   1.400   0.774   1.501 -0.3635 -0.2627 -0.2097
11375TIP3    H155616   1.333   0.799   1.438 -0.4494  0.9337  0.3298
11375TIP3    H255617   1.416   0.853   1.551 -1.7541 -1.6273  2.6416
11376TIP3   OH255618   3.706   3.468  11.397  0.1841  0.2179  0.0524
11376TIP3    H155619   3.725   3.545  11.450  1.8083 -1.0778  1.4329
11376TIP3    H255620   3.611   3.457  11.405  0.1533  1.1248  1.1696
11377TIP3   OH255621   6.721   5.863   4.274 -0.1522  0.3234 -0.2967
11377TIP3    H155622   6.802   5.814   4.289  0.2318  0.6320 -1.2945
11377TIP3    H255623   6.691   5.887   4.361  1.0951  0.6358  0.0602
11378TIP3   OH255624   3.170   0.716   4.270  0.3640 -0.3469  0.0810
11378TIP3    H155625   3.203   0.648   4.328  1.0289 -1.2277 -1.2802
11378TIP3    H255626   3.116   0.669   4.206  0.8055  0.3760 -0.8539
11379TIP3   OH255627   3.439   6.144  15.711 -0.0146  0.0243  0.0831
11379TIP3    H155628   3.464   6.113  15.623  1.0518 -0.1461  0.4352
11379TIP3    H255629   3.477   6.079  15.770  0.1792  0.7227  0.7252
11380TIP3   OH255630   4.753   5.633   2.373  0.6160  0.1093  0.0975
11380TIP3    H155631   4.795   5.685   2.305 -0.0120  0.7123  0.1555
11380TIP3    H255632   4.746   5.692   2.448 -0.3882  0.0474  0.0632
11381TIP3   OH255633   5.577   5.443  16.117  0.1409  0.2267 -0.5670
11381TIP3    H155634   5.484   5.459  16.134  0.3608 -1.6191  3.3686
11381TIP3    H255635   5.581   5.352  16.089  0.8879 -0.6645  2.1702
11382TIP3   OH255636   3.866   3.109   4.365  0.4790  0.4741 -0.1589
11382TIP3    H155637   3.786   3.072   4.328  0.0088 -0.0958  1.3394
11382TIP3    H255638   3.839   3.194   4.400  0.9123  1.0049 -1.1168
11383TIP3   OH255639   6.642   0.544  12.661  0.7187  0.0919 -0.1550
11383TIP3    H155640   6.566   0.600  12.643  0.8385 -0.1398 -1.5406
11383TIP3    H255641   6.643   0.534  12.756 -0.8084  0.3516 -0.0815
11384TIP3   OH255642   3.161   1.236   3.796  0.0971  0.6137  0.1872
11384TIP3    H155643   3.255   1.238   3.778 -0.0369  0.3958 -0.5563
11384TIP3    H255644   3.126   1.312   3.750 -0.3809 -0.4667 -1.2768
11385TIP3   OH255645   3.118   1.001   4.908  0.7317  0.2641 -0.2268
11385TIP3    H155646   3.203   1.009   4.952 -0.0611 -0.9428  1.6724
11385TIP3    H255647   3.055   1.031   4.974 -0.3679  0.5123 -1.3690
11386TIP3   OH255648   4.240   0.236   4.170 -0.3242  0.2259 -0.9265
11386TIP3    H155649   4.333   0.239   4.191  0.2975  0.8688 -3.4166
11386TIP3    H255650   4.219   0.143   4.170  0.1373  0.1018  0.2563
11387TIP3   OH255651   0.106   1.678  13.751  0.3595 -0.1026  0.4530
11387TIP3    H155652   0.133   1.602  13.801  2.0586  0.3658  0.3010
11387TIP3    H255653   0.097   1.748  13.815  1.4466  0.2197  0.2732
11388TIP3   OH255654   5.014   5.013   0.439 -0.1989 -0.6002 -0.0419
11388TIP3    H155655   5.066   4.933   0.440  0.2631 -0.3041  0.4255
11388TIP3    H255656   4.978   5.019   0.528 -0.0292 -0.1703  0.0042
11389TIP3   OH255657   1.311   2.435   1.851  0.1588  0.0632  0.3798
11389TIP3    H155658   1.272   2.461   1.768  0.9331 -0.9748 -0.3387
11389TIP3    H255659   1.331   2.517   1.896  1.4848  0.7052 -1.2918
11390TIP3   OH255660   4.106   5.280  13.087 -0.2034 -0.0545  0.3412
11390TIP3    H155661   4.012   5.299  13.095 -0.5866 -1.5358 -0.2548
11390TIP3    H255662   4.129   5.239  13.170 -0.1284  0.1226  0.4077
11391TIP3   OH255663   0.300   5.400   3.245  0.2950  0.2578  0.0253
11391TIP3    H155664   0.291   5.314   3.287 -0.1313  1.4134  2.4779
11391TIP3    H255665   0.214   5.416   3.204 -0.6284  0.6757  2.0136
11392TIP3   OH255666   1.480   2.083  16.017  0.2909 -0.0584 -0.1021
11392TIP3    H155667   1.432   2.004  15.994  0.7264 -0.6450  0.9058
11392TIP3    H255668   1.558   2.082  15.962  0.1429 -0.1726 -0.3070
11393TIP3   OH255669   3.280   3.028  10.916 -0.1889  0.2831 -0.3231
11393TIP3    H155670   3.219   3.092  10.878  1.0608  0.8451 -1.4781
11393TIP3    H255671   3.332   2.998  10.842  0.4867 -0.6987  0.5226
11394TIP3   OH255672   2.735   3.849   4.314 -0.4364  0.5845  0.4302
11394TIP3    H155673   2.828   3.835   4.298 -0.3478 -0.6847  1.8731
11394TIP3    H255674   2.703   3.891   4.234  0.7958 -1.4818 -1.2324
11395TIP3   OH255675   6.596   2.510  11.865  0.6054  0.2611  0.3726
11395TIP3    H155676   6.515   2.500  11.815  0.3950 -1.2185  0.9628
11395TIP3    H255677   6.666   2.493  11.801  0.4467  1.0216 -0.0129
11396TIP3   OH255678   3.587   5.682   4.881  0.2735  0.5888 -0.0754
11396TIP3    H155679   3.529   5.754   4.908 -1.7698 -0.4483 -1.4694
11396TIP3    H255680   3.534   5.604   4.891  2.2416 -0.7311  0.7805
11397TIP3   OH255681   4.653   2.229   1.984  0.2772  0.4042  0.6803
11397TIP3    H155682   4.717   2.213   1.915 -0.1489  0.0302  0.3582
11397TIP3    H255683   4.680   2.311   2.024  2.6835 -1.1415  2.5244
11398TIP3   OH255684   1.543   5.363   4.381 -0.2855 -0.4780 -0.5537
11398TIP3    H155685   1.634   5.335   4.393 -0.5895 -0.9296  0.7392
11398TIP3    H255686   1.539   5.387   4.288  1.1045 -0.6108 -0.6803
11399TIP3   OH255687   3.725   4.477  14.288 -0.2471 -0.3164 -0.4208
11399TIP3    H155688   3.761   4.518  14.368 -0.3950  0.9206 -0.9586
11399TIP3    H255689   3.630   4.480  14.301 -0.3182  0.8601 -1.0750
11400TIP3   OH255690   5.564   6.744   4.931  0.1824  0.0209  0.1205
11400TIP3    H155691   5.595   6.749   5.021 -0.3224  1.3767  0.2517
11400TIP3    H255692   5.640   6.769   4.878  0.1829  0.3108  0.2524
11401TIP3   OH255693   6.732   4.472  11.121 -0.3369  0.8215  0.6993
11401TIP3    H155694   6.765   4.399  11.069  1.1087  0.5802  1.9080
11401TIP3    H255695   6.757   4.550  11.071  0.8859  0.5849  0.9230
11402TIP3   OH255696   0.186   0.589  11.822  0.2151 -0.7445 -0.5949
11402TIP3    H155697   0.232   0.540  11.890  1.9895  1.0580 -0.3808
11402TIP3    H255698   0.250   0.655  11.793 -1.7741  0.9840 -1.3271
11403TIP3   OH255699   1.587   3.813  14.241 -0.0127 -0.0490  0.0402
11403TIP3    H155700   1.513   3.873  14.253 -0.4302 -0.7041  0.8507
11403TIP3    H255701   1.573   3.745  14.306  2.5806  0.9986  1.8515
11404TIP3   OH255702   5.508   0.361   6.349 -0.0136 -0.3097  0.1523
11404TIP3    H155703   5.578   0.339   6.411 -0.1674  0.7613  0.7258
11404TIP3    H255704   5.477   0.447   6.378 -0.9308 -0.3549 -0.6699
11405TIP3   OH255705   4.312   0.498   0.459 -0.3010 -0.5120  0.5829
11405TIP3    H155706   4.364   0.456   0.390 -1.1812  0.0520 -0.4580
11405TIP3    H255707   4.349   0.465   0.540  0.1886 -1.9102 -0.1722
11406TIP3   OH255708   3.498   3.240   5.480  0.6616  0.1687 -0.3128
11406TIP3    H155709   3.449   3.183   5.539  2.2206 -0.8811  0.0233
11406TIP3    H255710   3.546   3.180   5.423 -0.1996  1.1551 -2.1881
11407TIP3   OH255711   0.063   3.673  15.497  0.2263 -0.5038 -0.2992
11407TIP3    H155712  -0.001   3.737  15.466  0.5217 -0.4561 -0.8159
11407TIP3    H255713   0.095   3.631  15.418 -0.7512 -2.0523  0.0818
11408TIP3   OH255714   4.567   6.449  15.989 -0.9778  0.1386 -0.1936
11408TIP3    H155715   4.491   6.475  15.937 -2.3453 -0.6758  1.2786
11408TIP3    H255716   4.574   6.354  15.976 -1.0137  0.0067  0.6421
11409TIP3   OH255717   3.970   0.954  15.779  0.1348  0.0699  0.1745
11409TIP3    H155718   3.907   1.016  15.816  0.0044  1.4999 -2.2378
11409TIP3    H255719   3.993   0.991  15.694  1.7745 -2.1031 -0.4162
11410TIP3   OH255720   2.170   3.903   2.385  0.8937  0.1899 -0.1450
11410TIP3    H155721   2.256   3.929   2.417  1.4701  0.9873 -2.1829
11410TIP3    H255722   2.115   3.980   2.398  1.0423  0.3976 -0.6987
11411TIP3   OH255723   4.678   1.794  14.179 -0.1877 -0.3103 -0.2566
11411TIP3    H155724   4.771   1.807  14.161  0.3079  2.5338  3.1267
11411TIP3    H255725   4.677   1.728  14.248 -0.7506 -0.6449 -0.5825
11412TIP3   OH255726   0.228   6.350  12.802 -0.2065 -0.5773  0.0239
11412TIP3    H155727   0.136   6.378  12.805  0.3582  2.1107 -2.6949
11412TIP3    H255728   0.232   6.292  12.726  0.8188  2.1408 -2.1745
11413TIP3   OH255729   5.541   5.217   4.267  0.3721  0.5135 -0.9348
11413TIP3    H155730   5.637   5.225   4.261  0.5888  0.3590  1.3030
11413TIP3    H255731   5.521   5.139   4.216  1.5642  0.0422 -0.7280
11414TIP3   OH255732   5.577   4.341  11.329  0.5028 -0.0411  0.1374
11414TIP3    H155733   5.654   4.287  11.347 -0.1323 -2.1633 -2.8589
11414TIP3    H255734   5.591   4.420  11.382  3.5026 -1.3669  1.5692
11415TIP3   OH255735   6.781   0.235  12.410 -0.4874 -0.2811 -0.6215
11415TIP3    H155736   6.830   0.276  12.481 -1.4618 -1.6541  0.8894
11415TIP3    H255737   6.844   0.229  12.338  0.3512  1.6759 -0.1207
11416TIP3   OH255738   1.010   5.527  13.148 -0.2826  0.1120 -0.1261
11416TIP3    H155739   1.076   5.534  13.080 -0.6198 -0.1526 -0.4864
11416TIP3    H255740   0.937   5.580  13.116 -0.0067  0.9300  0.5666
11417TIP3   OH255741   6.452   2.140  13.006  0.0356  0.2041  0.6609
11417TIP3    H155742   6.502   2.154  12.925 -0.8742  1.2682  0.2740
11417TIP3    H255743   6.509   2.083  13.058 -0.5998 -3.2032 -1.9341
11418TIP3   OH255744   6.388   2.996   0.221  0.1762  0.3967 -0.0694
11418TIP3    H155745   6.475   2.987   0.259  0.1182  1.8468  0.4682
11418TIP3    H255746   6.328   2.989   0.295 -0.0797  0.8994 -0.2279
11419TIP3   OH255747   6.494   2.158  15.028  0.5215  0.0255 -0.0826
11419TIP3    H155748   6.474   2.249  15.010  2.6585  0.8879  1.5186
11419TIP3    H255749   6.466   2.145  15.118 -2.5729 -1.8658 -1.1666
11420TIP3   OH255750   2.743   1.354   3.487 -0.0448 -0.0379  0.2692
11420TIP3    H155751   2.671   1.341   3.425  0.1288 -0.6212  0.1806
11420TIP3    H255752   2.821   1.324   3.439  0.1170 -0.3334  0.7129
11421TIP3   OH255753   0.263   4.604  16.552  0.3936 -0.1033  0.2221
11421TIP3    H155754   0.202   4.578  16.621 -0.9222 -1.1186 -1.2555
11421TIP3    H255755   0.222   4.573  16.471  2.1649  0.5340 -0.9720
11422TIP3   OH255756   3.067   3.805   4.734 -0.6423 -0.2826 -0.0074
11422TIP3    H155757   3.121   3.813   4.813 -1.8662 -2.0015  1.0726
11422TIP3    H255758   3.022   3.889   4.728  1.6331  0.9938 -0.6327
11423TIP3   OH255759   0.600   6.655   0.912  0.0402  0.6246  0.2851
11423TIP3    H155760   0.696   6.659   0.911  0.1072 -0.1234 -2.3950
11423TIP3    H255761   0.576   6.619   0.827 -2.7074  1.9557  0.3890
11424TIP3   OH255762   3.331   2.438  11.400  0.0220 -0.1524  0.5493
11424TIP3    H155763   3.273   2.476  11.335  0.4016 -0.7544 -0.1654
11424TIP3    H255764   3.360   2.355  11.361 -1.2599 -1.4933  2.3121
11425TIP3   OH255765   4.824   4.952   5.897  0.0968 -0.1877  0.6472
11425TIP3    H155766   4.908   4.983   5.862 -0.1227 -0.4972 -0.1865
11425TIP3    H255767   4.829   4.969   5.991 -0.2524  3.0376  0.2244
11426TIP3   OH255768   3.393   6.606  14.523 -0.6215 -0.2968 -0.0462
11426TIP3    H155769   3.397   6.641  14.613  0.9867 -1.2272  0.2991
11426TIP3    H255770   3.482   6.575  14.506 -1.0159 -0.5727 -1.8080
11427TIP3   OH255771   5.996   3.565  15.925 -0.3288 -0.6523 -0.1464
11427TIP3    H155772   5.931   3.496  15.910  0.0251 -1.3304  1.2682
11427TIP3    H255773   6.080   3.520  15.922 -0.0577 -0.1789  0.1829
11428TIP3   OH255774   5.958   1.845  14.824 -0.4463 -0.0795 -0.2607
11428TIP3    H155775   5.940   1.760  14.785 -2.5512  0.9927 -1.9190
11428TIP3    H255776   5.988   1.899  14.750  1.0647  0.5793  0.7947
11429TIP3   OH255777   6.130   3.520   6.467 -0.0102 -0.1711  0.2963
11429TIP3    H155778   6.069   3.452   6.438 -0.0464 -0.2908  0.6505
11429TIP3    H255779   6.210   3.503   6.417 -1.0123  1.5079 -2.1120
11430TIP3   OH255780   3.064   4.893  13.632 -0.0172  0.0480  0.2490
11430TIP3    H155781   3.005   4.942  13.689  1.2276  1.9647 -0.0522
11430TIP3    H255782   3.007   4.829  13.589 -1.5559  0.7007  1.2285
11431TIP3   OH255783   6.194   2.026  11.103  0.0912  0.0547  0.0523
11431TIP3    H155784   6.106   1.999  11.077 -0.5092 -0.4716  2.4299
11431TIP3    H255785   6.252   1.990  11.036 -1.3907 -0.6177 -0.8999
11432TIP3   OH255786   3.229   5.378  14.606 -0.7702 -0.3406 -0.0945
11432TIP3    H155787   3.164   5.338  14.547  0.5072  0.2358 -2.0047
11432TIP3    H255788   3.241   5.314  14.676 -1.0711 -1.8951 -1.4067
11433TIP3   OH255789   2.479   3.501  11.963  0.0560  0.2772 -0.3756
11433TIP3    H155790   2.427   3.571  11.925 -1.2943 -1.6649 -2.3758
11433TIP3    H255791   2.441   3.486  12.049  0.2883  1.8435  0.0324
11434TIP3   OH255792   3.384   0.566   3.995 -0.1650 -0.7632 -0.1456
11434TIP3    H155793   3.391   0.474   4.022 -1.1877 -0.5070  1.0996
11434TIP3    H255794   3.304   0.570   3.942  0.2855 -0.7228 -0.8313
11435TIP3   OH255795   3.426   3.567   5.239 -0.6905 -0.0150 -0.1136
11435TIP3    H155796   3.417   3.656   5.274 -0.0806  0.2559 -0.6245
11435TIP3    H255797   3.364   3.515   5.290 -0.9689  0.6794  0.2742
11436TIP3   OH255798   0.839   5.975  15.348 -0.2212 -0.2483  0.1344
11436TIP3    H155799   0.756   6.022  15.344  0.1575  0.4746  0.4755
11436TIP3    H255800   0.890   6.023  15.414  1.3800  0.8461 -1.7688
11437TIP3   OH255801   3.492   4.609  11.018 -0.0592 -0.6018  0.1283
11437TIP3    H155802   3.423   4.659  11.062  1.8449  1.1656  1.2280
11437TIP3    H255803   3.530   4.555  11.087  1.3108  0.3375  0.1358
11438TIP3   OH255804   5.054   3.710   6.119  0.0380 -0.0945 -0.4415
11438TIP3    H155805   4.997   3.633   6.120 -0.7140  0.4279  1.3078
11438TIP3    H255806   4.998   3.781   6.153  0.9794  1.0271 -1.1653
11439TIP3   OH255807   1.195   3.564   4.820  0.0661 -0.5128 -0.1280
11439TIP3    H155808   1.154   3.497   4.874  0.6867  0.3719  1.5042
11439TIP3    H255809   1.275   3.523   4.787 -0.3933 -1.1096 -0.5104
11440TIP3   OH255810   3.086   0.273   1.069 -0.2381  0.1924  0.2569
11440TIP3    H155811   3.055   0.202   1.014 -1.1048  1.2507 -0.6697
11440TIP3    H255812   3.065   0.246   1.158 -0.3315 -0.8133 -0.0615
11441TIP3   OH255813   3.119   5.502   1.292 -0.2345  0.6009 -0.6803
11441TIP3    H155814   3.058   5.477   1.223  1.7594 -1.9409 -1.6718
11441TIP3    H255815   3.063   5.515   1.369 -2.0908 -1.6838 -1.4956
11442TIP3   OH255816   5.258   1.273  17.182 -0.2800 -0.2368  0.1031
11442TIP3    H155817   5.300   1.247  17.264 -0.7827 -0.6282  0.2433
11442TIP3    H255818   5.319   1.242  17.114 -0.1549 -0.4581  0.3115
11443TIP3   OH255819   5.155   6.490   5.853  0.1629  0.7348  0.0043
11443TIP3    H155820   5.064   6.484   5.884  0.3446 -1.0375  0.3154
11443TIP3    H255821   5.168   6.583   5.835 -2.9189  0.6832 -3.6790
11444TIP3   OH255822   6.409   0.522   4.116  0.1775  0.1250 -0.1086
11444TIP3    H155823   6.411   0.611   4.080  1.5601  2.1799  4.2498
11444TIP3    H255824   6.318   0.509   4.143 -0.0159  0.2444 -0.6918
11445TIP3   OH255825   6.345   4.819  10.963 -0.0037 -0.0397  0.1705
11445TIP3    H155826   6.327   4.864  10.881 -0.4718  0.0778  0.3355
11445TIP3    H255827   6.428   4.856  10.993  0.0141  0.1334 -0.0934
11446TIP3   OH255828   3.458   5.182   3.973  0.0120  0.4957 -0.0091
11446TIP3    H155829   3.449   5.160   3.880 -0.1400 -1.7593  0.4954
11446TIP3    H255830   3.389   5.133   4.016  0.6636  0.7835  1.4138
11447TIP3   OH255831   1.022   3.232  12.701  0.6271  0.1699 -0.2680
11447TIP3    H155832   1.084   3.275  12.643  1.2105 -0.0796  0.1571
11447TIP3    H255833   1.076   3.190  12.767 -0.0453  0.9227  0.7981
11448TIP3   OH255834   6.212   2.508  16.226  0.7730 -0.0788 -0.1001
11448TIP3    H155835   6.147   2.462  16.173 -0.5602  0.8191  0.7157
11448TIP3    H255836   6.174   2.512  16.313  2.1163  0.1294  0.5047
11449TIP3   OH255837   6.289   4.665  16.074  0.2482  0.4792 -0.1348
11449TIP3    H155838   6.307   4.572  16.090  0.1504  0.4377 -0.2710
11449TIP3    H255839   6.208   4.666  16.023 -1.1238  0.7174  1.9225
11450TIP3   OH255840   4.955   3.342   0.779  0.0161  0.3376 -0.2555
11450TIP3    H155841   5.017   3.416   0.783 -2.0830  2.2696 -1.1736
11450TIP3    H255842   4.979   3.295   0.699 -0.2824  1.6574 -1.1476
11451TIP3   OH255843   3.102   3.206   6.456 -0.3082 -0.5722  0.2588
11451TIP3    H155844   3.151   3.281   6.423  1.2697 -1.2968  0.8224
11451TIP3    H255845   3.021   3.242   6.491  0.5922  0.9180  0.8830
11452TIP3   OH255846   0.814   3.836  12.655 -0.4046 -0.2658 -0.2647
11452TIP3    H155847   0.812   3.770  12.724  0.3134  0.2254  0.2487
11452TIP3    H255848   0.727   3.875  12.657 -0.5534 -0.6036  0.0203
11453TIP3   OH255849   2.002   5.287  17.184  0.3088 -0.0320 -0.3384
11453TIP3    H155850   1.954   5.275  17.265 -0.5599 -0.2295 -0.8746
11453TIP3    H255851   2.073   5.347  17.207 -2.1052  3.0681 -0.2002
11454TIP3   OH255852   5.012   6.494   5.369  0.0291  0.1399  0.4847
11454TIP3    H155853   4.950   6.534   5.429  0.7424  1.4153  0.4297
11454TIP3    H255854   5.095   6.493   5.417  0.4074  0.3419 -0.1464
11455TIP3   OH255855   0.928   5.545   3.581 -0.0895  0.3456 -0.1224
11455TIP3    H155856   0.890   5.593   3.507  1.1879 -1.2588 -1.9253
11455TIP3    H255857   0.853   5.508   3.627 -0.8852  0.2381 -1.4480
11456TIP3   OH255858   1.296   3.947   2.741  0.4481  0.5205 -0.2053
11456TIP3    H155859   1.339   3.948   2.827 -0.6658  1.2117  0.3593
11456TIP3    H255860   1.244   4.027   2.739 -0.7666 -0.2558 -0.8974
11457TIP3   OH255861   6.045   1.426   0.722 -0.2635 -0.8876 -0.4553
11457TIP3    H155862   6.022   1.519   0.716 -0.6331 -0.9252  0.2368
11457TIP3    H255863   6.054   1.397   0.631  1.5032  0.2269 -0.6675
11458TIP3   OH255864   3.617   1.518   0.202 -0.3301 -0.6827  0.0318
11458TIP3    H155865   3.654   1.479   0.282  2.8380  0.9043 -0.5033
11458TIP3    H255866   3.581   1.602   0.230 -1.8040 -1.3386  0.1973
11459TIP3   OH255867   2.323   0.948   0.515  0.2129 -0.4721 -0.0867
11459TIP3    H155868   2.345   0.868   0.468 -0.0904  0.4197 -1.7940
11459TIP3    H255869   2.318   1.016   0.448  3.0650  1.5873  1.5472
11460TIP3   OH255870   1.941   2.888   4.680 -0.1394  0.0130 -0.7833
11460TIP3    H155871   1.932   2.950   4.607 -0.6082  0.6377 -0.2029
11460TIP3    H255872   2.036   2.875   4.687  0.1631  2.2668  0.3665
11461TIP3   OH255873   2.258   0.744   2.702 -0.0494  0.4946  0.0868
11461TIP3    H155874   2.189   0.799   2.663 -0.5290  0.3362  0.6826
11461TIP3    H255875   2.314   0.806   2.749  1.2601  0.8477 -1.8175
11462TIP3   OH255876   4.171   0.569  16.353 -0.1911 -0.3449  0.0349
11462TIP3    H155877   4.210   0.482  16.355  0.7517 -0.0789  4.8059
11462TIP3    H255878   4.077   0.553  16.349 -0.0076 -1.5753  0.2396
11463TIP3   OH255879   1.368   1.241   0.762  0.0541 -0.3886  0.3241
11463TIP3    H155880   1.334   1.181   0.696  0.0382  1.5161 -1.5545
11463TIP3    H255881   1.460   1.254   0.737 -0.7311  2.8939 -1.5719
11464TIP3   OH255882   6.375   3.259   4.137  0.3868 -0.1719 -0.5068
11464TIP3    H155883   6.346   3.293   4.222  2.0880 -0.8640  0.3950
11464TIP3    H255884   6.333   3.173   4.130  1.5803 -0.8691  0.4687
11465TIP3   OH255885   1.539   1.510  14.809  0.3964 -0.0719  0.4984
11465TIP3    H155886   1.446   1.529  14.813  0.4031  0.0358  0.1979
11465TIP3    H255887   1.560   1.472  14.894  0.1230  0.0965  0.6417
11466TIP3   OH255888   0.002   3.962  11.975 -0.1080  0.4469  0.1223
11466TIP3    H155889   0.082   3.920  11.942  0.7012  1.8794  0.1430
11466TIP3    H255890  -0.023   4.024  11.906 -0.7938  0.5103  0.4183
11467TIP3   OH255891   5.345   3.888   3.819  0.9831  0.1501  0.1297
11467TIP3    H155892   5.326   3.831   3.893  0.5742 -0.0647 -0.1372
11467TIP3    H255893   5.353   3.828   3.744 -0.8633  0.5432 -0.4256
11468TIP3   OH255894   2.743   4.686  14.655  0.3736  0.0459  0.3151
11468TIP3    H155895   2.788   4.612  14.696 -1.5154 -1.7738 -0.6650
11468TIP3    H255896   2.662   4.695  14.705 -0.0082  0.5811 -0.3903
11469TIP3   OH255897   5.056   5.582   4.993 -0.2712  0.1968  0.5712
11469TIP3    H155898   5.006   5.618   5.066 -0.4164  0.3254  0.4104
11469TIP3    H255899   5.094   5.658   4.949 -2.0038  0.3258 -0.8063
11470TIP3   OH255900   0.073   1.086   5.810 -0.1572 -0.5249 -0.2504
11470TIP3    H155901   0.059   1.161   5.752  0.1130  0.6568  1.1451
11470TIP3    H255902   0.161   1.100   5.845 -0.9420 -0.2379  1.7472
11471TIP3   OH255903   4.433   6.415   0.627 -0.1052 -0.1976 -0.1493
11471TIP3    H155904   4.361   6.432   0.565  0.9483 -2.2199 -2.0634
11471TIP3    H255905   4.403   6.453   0.709 -1.3576  3.1998 -1.9690
11472TIP3   OH255906   6.208   3.826   0.447 -0.2021  0.1684  0.4762
11472TIP3    H155907   6.222   3.806   0.539 -0.5724 -0.1918  0.4596
11472TIP3    H255908   6.264   3.902   0.429 -0.0320  0.1576  0.9614
11473TIP3   OH255909   1.750   0.714  15.962 -0.8664  0.2416 -0.6270
11473TIP3    H155910   1.700   0.634  15.945 -0.9474  0.5552 -1.9565
11473TIP3    H255911   1.824   0.709  15.901 -0.6371  0.9738 -0.4133
11474TIP3   OH255912   6.279   0.314  10.928  0.4157 -0.2442  0.0930
11474TIP3    H155913   6.340   0.327  11.001  3.4582 -0.9615 -2.1120
11474TIP3    H255914   6.275   0.400  10.886 -0.0084 -0.2281  0.1694
11475TIP3   OH255915   2.633   5.704   0.152 -0.3063  0.1681 -0.1319
11475TIP3    H155916   2.590   5.707   0.237  1.9094 -1.0442  1.1439
11475TIP3    H255917   2.696   5.777   0.155  0.0304 -0.0973 -0.5586
11476TIP3   OH255918   1.568   0.971  16.549  0.0582  0.4526 -0.0498
11476TIP3    H155919   1.557   0.947  16.641  1.1960  0.7103  0.1582
11476TIP3    H255920   1.528   1.058  16.541 -3.3913 -1.0039 -0.6421
11477TIP3   OH255921   3.270   3.707   1.133  0.3304 -0.0800 -0.1390
11477TIP3    H155922   3.357   3.732   1.164  0.0701  3.1057 -1.4885
11477TIP3    H255923   3.285   3.634   1.074  2.1806  0.6841 -0.6836
11478TIP3   OH255924   4.681   5.452   1.517  0.0092 -0.5706 -0.0001
11478TIP3    H155925   4.742   5.525   1.528 -1.2434  0.2079  2.7371
11478TIP3    H255926   4.623   5.480   1.446  1.7779 -0.6150 -1.5250
11479TIP3   OH255927   1.614   0.512   5.465  0.5990  0.2739 -0.2702
11479TIP3    H155928   1.524   0.543   5.453  0.1492 -1.2582 -0.9608
11479TIP3    H255929   1.627   0.445   5.398  1.8877 -0.3128  0.5176
11480TIP3   OH255930   5.389   0.099  17.250 -0.1999  0.7078  0.7808
11480TIP3    H155931   5.387   0.044  17.329  2.2048  3.0873  2.6828
11480TIP3    H255932   5.475   0.083  17.212 -0.3637  1.4890  0.0742
11481TIP3   OH255933   5.866   4.531  11.191  0.0069  0.0647  0.3016
11481TIP3    H155934   5.933   4.562  11.129  0.0458  1.6483  1.0647
11481TIP3    H255935   5.784   4.568  11.158 -0.1526 -0.0869  0.5253
11482TIP3   OH255936   0.439   1.968   1.015  0.1398 -0.3360  0.0663
11482TIP3    H155937   0.505   2.007   0.957  1.2604  0.6963  1.8975
11482TIP3    H255938   0.355   1.996   0.979  0.8534  1.8797 -0.0343
11483TIP3   OH255939   2.750   4.893   1.006 -0.2886 -0.1634  0.4624
11483TIP3    H155940   2.780   4.938   0.927 -1.2356  0.6285  0.5314
11483TIP3    H255941   2.718   4.809   0.975 -2.3926  0.8593 -0.3066
11484TIP3   OH255942   0.879   4.841   0.697  0.3237  0.3316  0.3267
11484TIP3    H155943   0.844   4.841   0.608 -2.4071  0.8779  1.3115
11484TIP3    H255944   0.974   4.848   0.685  0.0398  0.5430 -2.5160
11485TIP3   OH255945   1.189   2.881  16.208 -0.6629  0.1258 -0.4207
11485TIP3    H155946   1.134   2.810  16.242  0.3745 -0.2867  0.4424
11485TIP3    H255947   1.279   2.852  16.222 -0.2113  1.4135 -0.4564
11486TIP3   OH255948   6.667   4.316  15.636  0.8492 -0.9329 -0.1597
11486TIP3    H155949   6.757   4.329  15.608  0.5929  0.4763 -0.3976
11486TIP3    H255950   6.664   4.354  15.724 -0.0560  1.3546 -1.0866
11487TIP3   OH255951   5.558   0.975  14.092 -0.0480  0.2311 -0.5287
11487TIP3    H155952   5.631   1.006  14.146 -1.7064  4.3703 -0.2993
11487TIP3    H255953   5.593   0.971  14.004  0.6969  1.5063 -0.3231
11488TIP3   OH255954   1.407   4.452  11.077  0.8831 -0.3287 -0.2845
11488TIP3    H155955   1.312   4.452  11.088  0.8301 -1.7691 -0.5983
11488TIP3    H255956   1.421   4.427  10.986  1.5783 -0.7286 -0.0762
11489TIP3   OH255957   0.103   2.507   2.079  0.4941 -0.4653 -0.8016
11489TIP3    H155958   0.190   2.475   2.104 -0.7162 -3.7817 -0.2920
11489TIP3    H255959   0.072   2.443   2.014 -2.0497 -0.1972  0.0318
11490TIP3   OH255960   5.871   3.618   3.634 -0.5683  0.3328  0.4948
11490TIP3    H155961   5.862   3.642   3.726  0.0256  1.2820  0.3228
11490TIP3    H255962   5.788   3.644   3.594  0.0061  2.0500  0.3440
11491TIP3   OH255963   1.211   0.493  14.151 -0.9030 -0.4197  0.1584
11491TIP3    H155964   1.223   0.534  14.237 -2.5842  1.0510 -0.2718
11491TIP3    H255965   1.237   0.561  14.088  1.3305 -1.8227 -0.5540
11492TIP3   OH255966   6.502   0.314  13.265  0.0853 -0.0357 -0.1007
11492TIP3    H155967   6.484   0.388  13.323 -0.1466  0.3174 -0.6120
11492TIP3    H255968   6.597   0.316  13.252 -0.1604  1.8321 -2.2286
11493TIP3   OH255969   4.236   5.500  16.014 -0.4882 -0.2442 -0.2447
11493TIP3    H155970   4.207   5.505  16.105  0.3563 -1.1193  0.0956
11493TIP3    H255971   4.216   5.410  15.988  2.6553 -1.2623  0.3401
11494TIP3   OH255972   0.089   4.134   4.802  0.8119  0.1853 -0.0060
11494TIP3    H155973   0.129   4.050   4.785 -0.4414 -0.2756 -0.8237
11494TIP3    H255974   0.135   4.196   4.746  0.7771 -0.2252 -0.4857
11495TIP3   OH255975   6.508   1.430  11.106 -0.0643  0.3741  0.2176
11495TIP3    H155976   6.500   1.335  11.093 -0.7190  0.5935 -1.1584
11495TIP3    H255977   6.528   1.465  11.019 -0.3593  1.5529  0.6024
11496TIP3   OH255978   6.482   5.443   2.674  0.0538 -0.8410  0.0182
11496TIP3    H155979   6.516   5.366   2.721 -1.9520 -2.0654 -0.4275
11496TIP3    H255980   6.513   5.518   2.726  1.6363 -1.9366  0.7548
11497TIP3   OH255981   5.142   0.900  11.141  0.2403  0.4791 -0.0874
11497TIP3    H155982   5.191   0.856  11.211  1.9156 -0.6320 -1.8683
11497TIP3    H255983   5.051   0.879  11.158  0.8063 -1.7677  0.4541
11498TIP3   OH255984   1.856   4.377  14.552  0.3979  0.0687  0.2038
11498TIP3    H155985   1.799   4.444  14.514  0.3452  0.0587  0.2660
11498TIP3    H255986   1.941   4.391  14.509  0.8350  1.2056  1.3757
11499TIP3   OH255987   6.466   6.395  10.522  0.1247  0.3121  0.2046
11499TIP3    H155988   6.391   6.349  10.485  0.8896 -0.0576 -0.9534
11499TIP3    H255989   6.428   6.463  10.577 -1.0571  0.4323 -0.7241
11500TIP3   OH255990   6.655   1.861   1.066 -0.0717  0.6245  0.0256
11500TIP3    H155991   6.731   1.820   1.107  0.4276  1.9314  0.4634
11500TIP3    H255992   6.673   1.858   0.972  1.4561  2.5847  0.1930
11501TIP3   OH255993   4.876   0.277  13.514  0.2339 -0.3681 -0.6146
11501TIP3    H155994   4.950   0.336  13.531 -1.8588  1.9558  1.3313
11501TIP3    H255995   4.868   0.225  13.594  0.1840 -1.0958 -1.0899
11502TIP3   OH255996   2.659   4.907  14.171 -0.4367  0.4396 -0.2584
11502TIP3    H155997   2.674   4.940  14.083  0.0272  0.9956  0.0202
11502TIP3    H255998   2.608   4.827  14.159  0.5483 -0.0814 -1.0950
11503TIP3   OH255999   4.246   4.394   0.839  0.3513 -0.4246  0.4941
11503TIP3    H156000   4.186   4.469   0.839  0.8067 -0.0508  0.2396
11503TIP3    H256001   4.315   4.420   0.779  0.8096 -0.8146  0.8493
11504TIP3   OH256002   1.415   0.960  11.068 -0.0726  0.2446  0.2516
11504TIP3    H156003   1.333   0.941  11.023  0.0688 -0.9486  0.4769
11504TIP3    H256004   1.431   0.883  11.123  2.1914 -0.4591 -1.2393
11505TIP3   OH256005   1.459   4.715  16.049 -0.4293 -0.3004  0.0536
11505TIP3    H156006   1.551   4.719  16.075 -0.4824  0.0426  0.1963
11505TIP3    H256007   1.416   4.782  16.102 -0.7269 -0.3184 -0.1600
11506TIP3   OH256008   5.034   1.126   6.795  0.2413 -0.0175  0.2246
11506TIP3    H156009   5.114   1.147   6.843 -0.2483  0.2993  0.9152
11506TIP3    H256010   4.993   1.212   6.779 -1.3684 -0.3135  2.3474
11507TIP3   OH256011   0.156   4.581  12.829 -0.2738 -0.4510  0.2687
11507TIP3    H156012   0.101   4.503  12.832 -0.3792 -0.3377  1.4554
11507TIP3    H256013   0.104   4.644  12.778  0.0390 -1.2905 -1.1671
11508TIP3   OH256014   4.185   3.660  13.981 -0.2705 -0.4117 -0.3152
11508TIP3    H156015   4.211   3.728  14.043  1.4913 -0.9748 -0.3877
11508TIP3    H256016   4.089   3.664  13.980 -0.2951  0.4737  1.4482
11509TIP3   OH256017   5.441   4.114  12.698  0.0715  0.2898  0.1503
11509TIP3    H156018   5.376   4.153  12.640 -0.7735 -1.7241 -0.3644
11509TIP3    H256019   5.405   4.028  12.720  1.4985  0.0432  1.7410
11510TIP3   OH256020   4.315   1.635   7.033 -0.3787  0.2473  0.0714
11510TIP3    H156021   4.400   1.612   7.071  0.4001 -0.1213 -1.8061
11510TIP3    H256022   4.318   1.730   7.026 -0.4157  0.2957  0.6549
11511TIP3   OH256023   2.710   4.138   0.867  0.3106  0.3655  0.1568
11511TIP3    H156024   2.785   4.186   0.901 -0.0841  0.3955  0.9955
11511TIP3    H256025   2.749   4.066   0.817  0.8934  0.8406 -0.0829
11512TIP3   OH256026   2.406   2.202  13.186 -0.0274  0.1859 -0.3413
11512TIP3    H156027   2.360   2.125  13.218  0.2019 -0.4022 -1.3975
11512TIP3    H256028   2.338   2.269  13.179 -0.3387 -0.0842  0.0034
11513TIP3   OH256029   0.194   1.794  13.151  0.2732 -0.3492 -0.2471
11513TIP3    H156030   0.126   1.739  13.112  0.0782 -0.4991  0.2920
11513TIP3    H256031   0.242   1.830  13.076  0.7201 -1.6340 -0.6252
11514TIP3   OH256032   3.827   0.639  10.971  0.7292 -0.4363  0.0078
11514TIP3    H156033   3.888   0.566  10.963 -0.8954 -2.2937  2.7882
11514TIP3    H256034   3.845   0.676  11.057 -0.3662  0.6234 -0.1975
11515TIP3   OH256035   3.474   4.524  14.130 -0.5128  0.3336  0.3083
11515TIP3    H156036   3.483   4.605  14.079 -1.1548 -0.3480 -0.9245
11515TIP3    H256037   3.408   4.545  14.196 -1.4928  0.5137 -0.6950
11516TIP3   OH256038   3.426   2.167  16.575  0.0021  0.3567  0.1516
11516TIP3    H156039   3.358   2.164  16.642 -0.5712 -1.1283 -0.4503
11516TIP3    H256040   3.390   2.225  16.508 -1.0929 -1.0644 -0.5450
11517TIP3   OH256041   4.099   2.243   0.472 -0.2172  0.3017  0.2064
11517TIP3    H156042   4.074   2.232   0.380  2.5178  0.5124 -0.6567
11517TIP3    H256043   4.061   2.327   0.497 -0.3301  0.6263 -0.9933
11518TIP3   OH256044   6.356   6.703  11.619  0.2866 -0.0456 -0.0029
11518TIP3    H156045   6.309   6.685  11.701 -0.6610 -0.8981 -0.7145
11518TIP3    H256046   6.442   6.735  11.648 -0.5000  0.9908  1.3264
11519TIP3   OH256047   1.439   4.204   1.341 -0.2599  0.5907  0.1048
11519TIP3    H156048   1.526   4.241   1.358  0.3240 -0.4362 -0.5158
11519TIP3    H256049   1.401   4.191   1.427  0.0134  1.4947  0.3682
11520TIP3   OH256050   0.261   6.732  12.562 -0.0701  0.0049 -0.0877
11520TIP3    H156051   0.289   6.806  12.508 -0.9964  0.0612 -0.5005
11520TIP3    H256052   0.174   6.757  12.594 -0.0841 -0.5979  0.3654
11521TIP3   OH256053   5.468   6.658  16.948  0.1968  0.5980  0.6712
11521TIP3    H156054   5.516   6.722  16.895  1.3756 -0.6979  0.1176
11521TIP3    H256055   5.377   6.684  16.940  0.7639  3.4560  2.1674
11522TIP3   OH256056   2.347   2.896  14.974 -0.7480  0.1307 -0.0079
11522TIP3    H156057   2.406   2.838  14.925 -0.0293  1.0153 -0.2118
11522TIP3    H256058   2.269   2.902  14.919 -0.4905  0.0174 -0.3886
11523TIP3   OH256059   0.883   1.645  11.349 -0.8954 -0.1445 -0.1712
11523TIP3    H156060   0.814   1.706  11.376 -1.6134 -0.8028 -0.4664
11523TIP3    H256061   0.866   1.630  11.256  0.1485  0.3065 -0.4505
11524TIP3   OH256062   4.110   4.881   5.454 -0.2145 -0.5449 -0.3450
11524TIP3    H156063   4.123   4.975   5.460 -0.5163 -0.2006 -3.2910
11524TIP3    H256064   4.021   4.871   5.420 -0.4342 -1.9494  0.5606
11525TIP3   OH256065   5.582   0.858  15.411  0.5981  0.0407 -0.3632
11525TIP3    H156066   5.507   0.841  15.353  1.3475 -1.4088 -0.9470
11525TIP3    H256067   5.575   0.792  15.479  0.0261  1.4055  0.9642
11526TIP3   OH256068   1.955   6.550   2.879 -0.0267 -0.5875 -0.1950
11526TIP3    H156069   1.920   6.633   2.911  1.3567 -0.4540  1.1032
11526TIP3    H256070   1.897   6.484   2.917 -0.2587 -0.2792 -0.0044
11527TIP3   OH256071   2.847   1.042   4.313  0.3436  0.4102  0.4534
11527TIP3    H156072   2.810   1.083   4.391  1.1747  0.4821  0.8212
11527TIP3    H256073   2.941   1.042   4.329  0.3810 -1.7203  0.5274
11528TIP3   OH256074   4.860   3.770  11.447  0.0691  0.3214 -0.0979
11528TIP3    H156075   4.867   3.859  11.413 -0.3637 -0.1267 -1.4244
11528TIP3    H256076   4.766   3.752  11.444  0.0786  0.0700  0.8608
11529TIP3   OH256077   2.680   5.302  16.881  0.5033 -0.4349 -0.1680
11529TIP3    H156078   2.773   5.287  16.898  0.8156  1.7025  0.2403
11529TIP3    H256079   2.643   5.324  16.966  0.2473  1.5794 -0.7541
11530TIP3   OH256080   4.263   5.982   1.779  0.0324 -0.0904 -0.6786
11530TIP3    H156081   4.274   6.053   1.716  1.0147 -0.1111 -0.5495
11530TIP3    H256082   4.229   5.909   1.727  0.1116  0.1216 -1.0352
11531TIP3   OH256083   4.618   5.715  12.550  0.1437  0.5289 -0.5098
11531TIP3    H156084   4.606   5.707  12.455  1.4187 -0.4003 -0.6097
11531TIP3    H256085   4.587   5.803  12.570 -0.6032  0.5690 -1.7025
11532TIP3   OH256086   0.532   2.184   2.525 -0.2197 -0.2260 -0.2289
11532TIP3    H156087   0.472   2.231   2.468 -0.0256  0.6349  0.2612
11532TIP3    H256088   0.495   2.095   2.530 -2.2069  0.5932  1.0688
11533TIP3   OH256089   2.564   6.546   2.548  0.7965 -0.5961  0.3061
11533TIP3    H156090   2.634   6.526   2.611  0.4416 -0.8333  0.6344
11533TIP3    H256091   2.485   6.551   2.602  0.6077 -0.0068 -0.0147
11534TIP3   OH256092   3.286   2.960  17.051  0.9085  0.3628 -0.4003
11534TIP3    H156093   3.287   2.869  17.022  1.2895  0.3558 -0.3716
11534TIP3    H256094   3.310   3.010  16.974 -1.3884  0.6370 -1.0316
11535TIP3   OH256095   5.187   2.236   1.693  0.0123  0.2726  0.1368
11535TIP3    H156096   5.241   2.284   1.756  0.8286 -0.1062 -0.2589
11535TIP3    H256097   5.109   2.290   1.682  0.9112  1.5185 -0.2993
11536TIP3   OH256098   6.604   5.858   3.673 -0.0930 -0.0086 -0.0653
11536TIP3    H156099   6.519   5.847   3.716  0.1995 -0.1402  0.4907
11536TIP3    H256100   6.637   5.941   3.708  0.2488 -0.2303  0.1419
11537TIP3   OH256101   2.290   1.905   4.479 -0.1562  0.6415  0.2569
11537TIP3    H156102   2.251   1.859   4.554 -0.8440  1.3805  0.3646
11537TIP3    H256103   2.274   1.998   4.497 -1.9687  0.7811 -1.6370
11538TIP3   OH256104   3.470   3.372  15.245  0.6220  0.3782 -0.4038
11538TIP3    H156105   3.539   3.313  15.276  1.3410  0.0193 -2.5499
11538TIP3    H256106   3.389   3.336  15.284  1.0654 -1.8797 -1.3738
11539TIP3   OH256107   5.808   2.687  15.335  0.0815 -0.1830 -0.1719
11539TIP3    H156108   5.806   2.708  15.429 -1.6183 -0.5169 -0.0935
11539TIP3    H256109   5.896   2.710  15.307  0.8495 -0.7054  1.6545
11540TIP3   OH256110   3.742   2.729   4.018 -0.1421  0.3450  0.1807
11540TIP3    H156111   3.773   2.685   3.939  0.1903  0.5778  0.1823
11540TIP3    H256112   3.654   2.760   3.995  0.4346  1.5126 -0.5310
11541TIP3   OH256113   3.244   0.233  16.365 -0.1644 -0.0329 -0.0672
11541TIP3    H156114   3.207   0.224  16.453  1.7919  0.1692  0.8228
11541TIP3    H256115   3.233   0.146  16.326  1.5485 -1.0415  1.5007
11542TIP3   OH256116   1.211   1.469  11.154 -0.3278 -0.0145 -0.1309
11542TIP3    H156117   1.293   1.457  11.202  0.1123  1.8195 -0.3483
11542TIP3    H256118   1.210   1.398  11.090  1.2398  0.0762 -0.3038
11543TIP3   OH256119   3.781   2.298  13.750 -0.4036  0.1707 -0.0155
11543TIP3    H156120   3.744   2.313  13.662  2.1837  1.3356 -0.9947
11543TIP3    H256121   3.768   2.381  13.795 -0.5211  0.0136  0.2400
11544TIP3   OH256122   3.499   4.499   1.409  0.0295 -0.1395  0.7706
11544TIP3    H156123   3.457   4.511   1.324  0.4556  1.6536  0.7628
11544TIP3    H256124   3.495   4.586   1.449  1.2322 -0.5951  1.9257
11545TIP3   OH256125   6.711   5.910   5.738  0.3814  0.1048 -0.2739
11545TIP3    H156126   6.762   5.886   5.815 -0.2259 -1.2808 -0.2692
11545TIP3    H256127   6.733   6.001   5.721  1.5619  0.0181  0.7196
11546TIP3   OH256128   1.466   1.474  16.232  0.1365 -0.3377 -0.2451
11546TIP3    H156129   1.371   1.460  16.227  0.2217 -0.6250 -1.3154
11546TIP3    H256130   1.501   1.390  16.261 -0.0170  0.1187  1.3578
11547TIP3   OH256131   4.071   5.599  12.687  0.5068  0.4832  0.0217
11547TIP3    H156132   4.163   5.582  12.706  0.5635  0.3767 -0.3414
11547TIP3    H256133   4.070   5.632  12.598 -0.0292 -1.7300 -0.8687
11548TIP3   OH256134   5.980   6.667  11.491 -0.1063  0.3676 -0.3561
11548TIP3    H156135   5.949   6.632  11.574  1.4230  2.0195  0.9745
11548TIP3    H256136   6.015   6.591  11.444 -3.3326 -1.0490 -0.7184
11549TIP3   OH256137   0.824   1.286   2.208 -0.4242  0.0337  0.3885
11549TIP3    H156138   0.833   1.208   2.154  0.7158 -0.2257  0.9180
11549TIP3    H256139   0.730   1.296   2.221 -0.5456 -1.7945  1.0837
11550TIP3   OH256140   5.980   4.871  15.042 -0.8396  0.2121  0.7246
11550TIP3    H156141   5.979   4.777  15.029 -1.3815  0.4138 -0.8667
11550TIP3    H256142   6.044   4.904  14.979 -2.4341  1.1082 -0.4947
11551TIP3   OH256143   3.674   3.199  15.766 -0.3682 -0.3825 -0.5380
11551TIP3    H156144   3.752   3.143  15.766  0.0637  0.2084 -0.9519
11551TIP3    H256145   3.701   3.277  15.717 -0.6563  0.6063  0.8225
11552TIP3   OH256146   0.178   4.619   1.067 -0.0349 -0.1166 -0.3085
11552TIP3    H156147   0.087   4.649   1.071 -0.0674 -0.3879  1.6146
11552TIP3    H256148   0.229   4.691   1.104  0.5339 -0.0654 -1.1516
11553TIP3   OH256149   2.449   5.389   1.217  0.3237 -0.1314  0.2786
11553TIP3    H156150   2.514   5.354   1.278  0.7588 -3.8210 -2.0311
11553TIP3    H256151   2.497   5.458   1.170  1.9660 -1.3949 -0.0008
11554TIP3   OH256152   1.039   0.821  15.932  0.0766  0.2310 -0.1690
11554TIP3    H156153   1.000   0.878  15.999  0.4163 -0.1369  0.3494
11554TIP3    H256154   1.058   0.880  15.859  0.1627  0.7323  0.2513
11555TIP3   OH256155   3.090   4.652   4.204  0.1698 -0.4547 -0.4479
11555TIP3    H156156   3.064   4.705   4.129  0.8323  0.5966  0.0397
11555TIP3    H256157   3.141   4.580   4.166  4.1386  2.2442 -0.8916
11556TIP3   OH256158   4.194   6.474  12.677  0.0406 -0.0076 -0.0912
11556TIP3    H156159   4.237   6.541  12.624 -0.4397  1.2182  1.0357
11556TIP3    H256160   4.250   6.465  12.754  1.0639 -2.2100 -0.9854
11557TIP3   OH256161   2.231   5.997  16.985  0.2297  0.3753  0.7190
11557TIP3    H156162   2.228   5.953  16.901 -0.1901  0.2179  0.8112
11557TIP3    H256163   2.141   6.025  17.001  0.3596  0.6548  0.9820
11558TIP3   OH256164   3.143   0.130  15.596  0.0602  0.5390  0.1989
11558TIP3    H156165   3.058   0.135  15.640 -0.3127 -0.4332 -0.3746
11558TIP3    H256166   3.204   0.170  15.658 -0.9172  1.9460  0.2939
11559TIP3   OH256167   1.301   0.253   3.704 -0.5767  1.0866  0.0083
11559TIP3    H156168   1.312   0.342   3.737  0.1737  0.4122  1.6885
11559TIP3    H256169   1.207   0.235   3.715 -0.3217  0.7635  2.2719
11560TIP3   OH256170   4.989   2.226   4.637 -0.1165 -0.2444  0.1274
11560TIP3    H156171   5.053   2.276   4.586 -2.4778  0.9603 -1.8867
11560TIP3    H256172   4.979   2.145   4.588 -2.7192  1.0972 -1.8035
11561TIP3   OH256173   0.258   1.951   3.310  0.0702  0.0284 -0.0669
11561TIP3    H156174   0.255   1.855   3.318 -0.0141  0.1505  1.9879
11561TIP3    H256175   0.352   1.971   3.304  0.1112 -0.1695 -0.0916
11562TIP3   OH256176   2.922   1.301   2.122  0.0752  0.4425 -0.2736
11562TIP3    H156177   2.910   1.225   2.178 -1.4936  0.4943 -0.4922
11562TIP3    H256178   2.902   1.269   2.034 -0.2439  1.0083 -0.4132
11563TIP3   OH256179   6.057   6.799  15.480 -0.3590  0.3411 -0.3246
11563TIP3    H156180   5.997   6.724  15.479 -0.6834  0.5175  1.7358
11563TIP3    H256181   6.141   6.763  15.508 -0.5908  0.7555  0.9800
11564TIP3   OH256182   4.722   0.246  15.382  0.6740  0.8766 -0.2170
11564TIP3    H156183   4.712   0.296  15.301 -0.2580  0.5253 -0.3317
11564TIP3    H256184   4.684   0.303  15.449 -0.1481  0.4476 -0.3062
11565TIP3   OH256185   5.857   5.337  16.685 -0.5524  0.0764  0.6464
11565TIP3    H156186   5.794   5.388  16.635 -0.6133  0.1989  0.8507
11565TIP3    H256187   5.808   5.261  16.715  0.5452 -2.6069 -3.5072
11566TIP3   OH256188   1.336   4.520   1.609 -0.1369 -0.4755 -0.0163
11566TIP3    H156189   1.422   4.508   1.567 -0.2778 -1.4578 -0.0502
11566TIP3    H256190   1.276   4.532   1.535  0.2323  2.4595  0.0341
11567TIP3   OH256191   2.747   3.655  11.292 -0.3695 -1.0087  0.1506
11567TIP3    H156192   2.763   3.749  11.301 -0.1926 -0.9391 -0.7674
11567TIP3    H256193   2.808   3.627  11.223  0.2179 -1.9727  1.0337
11568TIP3   OH256194   0.268   5.651   5.799  0.0541 -0.2923  0.1040
11568TIP3    H156195   0.327   5.587   5.838 -0.0828 -0.4063  0.1229
11568TIP3    H256196   0.313   5.679   5.719 -1.3098 -2.7768 -1.6403
11569TIP3   OH256197   3.707   6.411  14.415 -0.5364 -0.7531 -0.7230
11569TIP3    H156198   3.763   6.336  14.392 -0.2423 -0.6690 -0.2940
11569TIP3    H256199   3.713   6.416  14.510  0.5635  0.6863 -0.8416
11570TIP3   OH256200   0.213   2.002   0.230  0.3994  0.0260 -0.0861
11570TIP3    H156201   0.300   1.976   0.202  0.1456 -0.0909 -0.7972
11570TIP3    H256202   0.155   1.932   0.198 -0.1098  0.7480 -0.8123
11571TIP3   OH256203   1.746   4.452   2.252  0.0333 -0.2814  0.3543
11571TIP3    H156204   1.762   4.476   2.161 -1.9201 -0.7883 -0.1859
11571TIP3    H256205   1.777   4.526   2.303  1.7311 -0.2542 -0.6550
11572TIP3   OH256206   4.952   2.516   6.078 -0.7041 -0.1012 -0.3124
11572TIP3    H156207   4.881   2.471   6.032 -0.5661  1.3921 -2.1143
11572TIP3    H256208   4.952   2.605   6.042  0.5901  0.6301  1.3393
11573TIP3   OH256209   4.613   4.342   1.365 -0.0057  0.1153 -0.5185
11573TIP3    H156210   4.573   4.385   1.441 -2.6426  0.9420 -2.2387
11573TIP3    H256211   4.704   4.372   1.365 -1.4230  5.3500 -1.1431
11574TIP3   OH256212   3.351   0.477   2.282 -0.0548 -0.0053 -0.0418
11574TIP3    H156213   3.343   0.465   2.187  1.4207 -0.4673 -0.1429
11574TIP3    H256214   3.266   0.451   2.317 -0.1589 -1.2399 -1.1340
11575TIP3   OH256215   0.476   5.846  17.066  1.2831  0.6431  0.6767
11575TIP3    H156216   0.503   5.790  16.993  1.0945  1.0508  0.2856
11575TIP3    H256217   0.516   5.806  17.143  1.3543  0.1163  0.3701
11576TIP3   OH256218   4.451   6.170  11.982 -0.0876 -0.1639 -0.3337
11576TIP3    H156219   4.429   6.080  12.007 -0.2778  0.2053  0.9078
11576TIP3    H256220   4.546   6.171  11.975  0.1305  0.0275  1.8597
11577TIP3   OH256221   5.632   6.562   5.501 -0.1322  0.2314  0.1289
11577TIP3    H156222   5.664   6.519   5.422 -1.7857 -0.5067 -0.1841
11577TIP3    H256223   5.578   6.495   5.544 -3.8761  2.2198 -1.0046
11578TIP3   OH256224   5.705   5.128  12.801  0.0227 -0.1872  0.0248
11578TIP3    H156225   5.699   5.140  12.896  0.9328  1.4223 -0.0824
11578TIP3    H256226   5.798   5.112  12.785 -0.2891 -1.6058 -0.5130
11579TIP3   OH256227   3.662   2.567  13.219  0.3200  0.2785 -0.0737
11579TIP3    H156228   3.733   2.579  13.156  0.3354 -0.1381 -0.1382
11579TIP3    H256229   3.596   2.633  13.195  0.2419 -0.0056 -0.6447
11580TIP3   OH256230   0.023   5.422  15.483 -0.4986 -0.5234  0.1015
11580TIP3    H156231   0.078   5.345  15.501 -0.5899 -0.7973 -0.7306
11580TIP3    H256232   0.006   5.418  15.389  1.2981  1.7247 -0.3953
11581TIP3   OH256233   0.951   6.823  16.584  0.2505 -0.3141  0.4632
11581TIP3    H156234   0.898   6.747  16.605 -0.1696  0.1372  1.0863
11581TIP3    H256235   0.933   6.885  16.655 -0.1847  0.7436 -0.5277
11582TIP3   OH256236   4.312   1.969  14.745  0.0509  0.1116 -0.0944
11582TIP3    H156237   4.393   1.947  14.697  0.0134  1.8713 -1.0437
11582TIP3    H256238   4.245   1.975  14.677 -0.6622 -0.2061  0.5596
11583TIP3   OH256239   0.945   5.036  15.154 -0.0460 -0.3788  0.1689
11583TIP3    H156240   1.007   5.094  15.110 -1.2725  0.8008 -0.0579
11583TIP3    H256241   0.974   5.034  15.245 -0.0168  0.6641  0.1976
11584TIP3   OH256242   6.753   2.275   5.417 -0.1897 -0.0741 -0.3084
11584TIP3    H156243   6.792   2.320   5.492  0.8750  0.6015 -1.2383
11584TIP3    H256244   6.746   2.184   5.444 -2.5950  0.5893  1.7179
11585TIP3   OH256245   0.764   5.813   0.273 -0.1385  0.3777  0.0077
11585TIP3    H156246   0.802   5.757   0.341  0.4709  0.5996 -0.1439
11585TIP3    H256247   0.680   5.841   0.310  0.0659  0.2811  0.5601
11586TIP3   OH256248   1.146   4.738   5.060 -1.0248  0.2164 -0.8292
11586TIP3    H156249   1.054   4.726   5.084 -0.6833 -1.9317 -0.4037
11586TIP3    H256250   1.194   4.732   5.142 -0.4262  0.3976 -1.1573
11587TIP3   OH256251   4.471   3.822  14.077 -0.0677  0.3728  0.2378
11587TIP3    H156252   4.510   3.782  13.999  1.5363 -0.5912  1.4755
11587TIP3    H256253   4.502   3.913  14.074 -1.5964  0.8952 -1.2116
11588TIP3   OH256254   0.777   6.396  14.907 -0.6092 -0.2528  0.2996
11588TIP3    H156255   0.751   6.414  14.998 -0.4721 -0.5659  0.4026
11588TIP3    H256256   0.802   6.482  14.872 -0.7081 -0.1231  0.5416
11589TIP3   OH256257   1.348   6.388   0.227  0.0299 -0.1719  0.6154
11589TIP3    H156258   1.294   6.445   0.173 -1.1695  1.3613  3.2381
11589TIP3    H256259   1.344   6.302   0.184  0.1031  1.1606 -2.2484
11590TIP3   OH256260   2.857   1.665  11.992 -0.4956  0.3139 -0.1112
11590TIP3    H156261   2.894   1.613  12.063 -1.5515  3.2266  2.8578
11590TIP3    H256262   2.909   1.745  11.992 -1.8855  1.2567 -1.1586
11591TIP3   OH256263   6.812   3.442   2.756 -0.1448  0.3709 -0.2042
11591TIP3    H156264   6.849   3.392   2.683 -2.0986  1.4694 -2.0908
11591TIP3    H256265   6.873   3.516   2.768  1.1654 -0.7960  0.5830
11592TIP3   OH256266   2.308   3.127   3.773  0.4526  0.3710  0.0093
11592TIP3    H156267   2.300   3.049   3.718 -0.2621  0.9552 -0.7230
11592TIP3    H256268   2.222   3.137   3.813  0.8280  0.2266  0.8811
11593TIP3   OH256269   6.332   1.435   3.946  0.2329 -0.3144 -0.4944
11593TIP3    H156270   6.293   1.360   3.901 -1.1920  1.0811 -1.6970
11593TIP3    H256271   6.319   1.417   4.039 -1.2481 -0.9724 -0.8036
11594TIP3   OH256272   5.969   1.564  14.733  0.4856  0.1783 -0.5528
11594TIP3    H156273   6.037   1.503  14.702  1.1929  2.0824 -3.0458
11594TIP3    H256274   5.890   1.537  14.685  0.3956  0.2531 -0.4459
11595TIP3   OH256275   5.105   3.291   3.654  0.2649 -0.2523  0.5315
11595TIP3    H156276   5.195   3.267   3.677  1.0549  1.5238 -0.4912
11595TIP3    H256277   5.068   3.211   3.616  0.4486 -1.8320  3.4169
11596TIP3   OH256278   5.249   6.017   1.085 -0.0584  0.1844  0.3037
11596TIP3    H156279   5.304   6.090   1.114  0.8705 -0.7481  0.9695
11596TIP3    H256280   5.258   6.017   0.989  0.1567  0.7725  0.3236
11597TIP3   OH256281   1.593   5.852  14.953  0.0841  0.2511  0.4029
11597TIP3    H156282   1.668   5.808  14.992 -0.7382 -1.6453 -0.0660
11597TIP3    H256283   1.625   5.885  14.869  0.1303 -1.5475 -0.3169
11598TIP3   OH256284   5.691   3.016  16.061  0.5724  0.1930 -0.7714
11598TIP3    H156285   5.666   2.930  16.027 -0.9889 -0.5029  1.8420
11598TIP3    H256286   5.776   3.034  16.020  1.2501 -2.8748 -0.9645
11599TIP3   OH256287   2.207   2.807  11.526  0.2298 -0.4967  0.4082
11599TIP3    H156288   2.174   2.778  11.441 -1.5560  1.5859  0.3062
11599TIP3    H256289   2.296   2.835  11.508  0.8039 -2.5107 -0.1776
11600TIP3   OH256290   1.235   6.167   3.036  0.2065 -0.4329 -0.1536
11600TIP3    H156291   1.306   6.228   3.055 -0.6852  0.4367  0.4881
11600TIP3    H256292   1.263   6.121   2.957  1.4766 -0.1213  0.0973
11601TIP3   OH256293   5.512   5.167   5.845 -0.2581  0.1006 -0.1174
11601TIP3    H156294   5.564   5.237   5.806 -0.6494 -0.1157 -1.0536
11601TIP3    H256295   5.491   5.199   5.933  2.0960 -0.1399  0.6190
11602TIP3   OH256296   0.974   5.417  15.453  0.5289 -0.2154 -0.2251
11602TIP3    H156297   0.950   5.380  15.538  0.1057 -0.6984 -0.5454
11602TIP3    H256298   1.013   5.501  15.474 -0.2371  0.0017  0.4078
11603TIP3   OH256299   2.242   4.126   5.361 -0.0740 -0.1022  0.0132
11603TIP3    H156300   2.248   4.135   5.456 -1.9969 -2.0720  0.4042
11603TIP3    H256301   2.226   4.032   5.347  4.2696 -0.7219 -2.5575
11604TIP3   OH256302   0.704   4.854   5.513 -0.1638 -0.5489  0.3916
11604TIP3    H156303   0.725   4.933   5.465  0.2476  0.8160  2.6816
11604TIP3    H256304   0.697   4.786   5.446  0.2766  1.2372 -1.5508
11605TIP3   OH256305   3.821   3.065  11.442  0.3961 -0.0509  0.5515
11605TIP3    H156306   3.815   2.971  11.426 -0.7793  0.3595 -1.8483
11605TIP3    H256307   3.757   3.104  11.383  3.2190  2.4678 -1.1927
11606TIP3   OH256308   0.998   6.641  12.026 -0.0146 -0.5378  0.0218
11606TIP3    H156309   1.063   6.571  12.020 -0.9534 -1.6626  1.9960
11606TIP3    H256310   0.938   6.625  11.953  1.8732  0.5819 -1.9007
11607TIP3   OH256311   3.949   4.621  13.626  0.5270 -0.2379  0.2446
11607TIP3    H156312   3.950   4.702  13.677  0.0012 -0.5821  0.8178
11607TIP3    H256313   3.927   4.649  13.537 -1.8335  0.0458  0.8520
11608TIP3   OH256314   6.149   2.096  14.316  0.7464  0.3628  0.0332
11608TIP3    H156315   6.086   2.035  14.278  0.9314  0.5080 -0.5114
11608TIP3    H256316   6.160   2.164  14.250 -1.0342  2.1388  1.4513
11609TIP3   OH256317   6.555   0.747  14.466  0.3557  0.3697  0.3356
11609TIP3    H156318   6.546   0.663  14.420 -1.9268  0.8319 -0.2022
11609TIP3    H256319   6.552   0.813  14.398  1.1744  0.9314  0.8310
11610TIP3   OH256320   4.370   3.974  12.626 -0.1937  0.2739  0.0551
11610TIP3    H156321   4.395   4.036  12.558 -0.8220  1.5351  0.9332
11610TIP3    H256322   4.347   4.029  12.701  0.3915 -1.0632  1.2630
11611TIP3   OH256323   0.723   4.817  14.839  0.3025 -0.2941  0.5343
11611TIP3    H156324   0.718   4.863  14.923  1.0941 -0.2872  0.5847
11611TIP3    H256325   0.808   4.842  14.803 -0.4987  0.6178 -0.8087
11612TIP3   OH256326   5.683   6.599   5.985  0.6392  0.1113  0.0695
11612TIP3    H156327   5.609   6.638   6.031  0.3884 -0.7634  0.4129
11612TIP3    H256328   5.738   6.562   6.054  0.9209 -0.0688 -0.2482
11613TIP3   OH256329   2.889   5.397  12.380  0.8915  0.4661 -0.3656
11613TIP3    H156330   2.899   5.471  12.321  1.2242  1.1175  0.4802
11613TIP3    H256331   2.961   5.338  12.357 -0.0115 -0.1354 -1.7715
11614TIP3   OH256332   3.689   2.371  13.459  0.0763  0.1124 -0.6539
11614TIP3    H156333   3.682   2.403  13.369 -2.9454  1.2934 -0.1282
11614TIP3    H256334   3.626   2.424  13.508 -0.3897 -2.3362  1.6235
11615TIP3   OH256335   4.759   6.010  13.641 -0.0517  0.3454 -0.2871
11615TIP3    H156336   4.787   5.922  13.668  2.1081  0.9423 -0.3852
11615TIP3    H256337   4.764   6.008  13.546  0.9106  0.8175 -0.2600
11616TIP3   OH256338   5.788   2.600  13.773 -0.1409  0.4059  0.0389
11616TIP3    H156339   5.808   2.592  13.680  1.7779  1.0283  0.3621
11616TIP3    H256340   5.802   2.512  13.808 -2.1154 -0.1584 -0.4136
11617TIP3   OH256341   1.079   2.855  12.773 -0.5963 -0.0108 -0.3482
11617TIP3    H156342   1.092   2.803  12.694 -0.8651 -0.3800 -0.1501
11617TIP3    H256343   0.997   2.901  12.758 -0.4673  0.1960 -0.4321
11618TIP3   OH256344   6.765   0.761   3.601 -0.1250 -0.0605 -1.2508
11618TIP3    H156345   6.734   0.749   3.690  2.8390  2.5961  0.3287
11618TIP3    H256346   6.695   0.812   3.558 -0.1223  1.7465  0.7173
11619TIP3   OH256347   1.198   2.263   0.774 -0.4351  0.5643  0.0686
11619TIP3    H156348   1.198   2.357   0.791 -1.6448  0.4014  1.1073
11619TIP3    H256349   1.106   2.240   0.768 -0.1708 -0.7199  0.7486
11620TIP3   OH256350   0.574   0.662   3.934 -0.3005  0.0135  0.0150
11620TIP3    H156351   0.539   0.641   4.021 -1.7282 -1.2246 -0.8177
11620TIP3    H256352   0.669   0.659   3.945 -0.4622 -1.3469  1.2631
11621TIP3   OH256353   2.949   5.059  15.910 -0.1024 -0.0360 -0.5463
11621TIP3    H156354   2.939   5.150  15.937  0.2373  0.1483 -1.0335
11621TIP3    H256355   3.040   5.052  15.883  0.2692 -0.8893  0.8391
11622TIP3   OH256356   6.685   4.451   1.520  0.2190  0.4332  0.1247
11622TIP3    H156357   6.746   4.523   1.537  0.1197  0.2750  1.2212
11622TIP3    H256358   6.712   4.416   1.436 -0.6750  2.7206 -1.2036
11623TIP3   OH256359   4.062   1.483   2.889  0.2485 -0.3567 -0.5508
11623TIP3    H156360   4.141   1.456   2.841  0.8646  1.2448 -0.4833
11623TIP3    H256361   4.053   1.416   2.957  1.1548 -0.9447 -0.9798
11624TIP3   OH256362   6.586   5.913  16.739  0.1068  0.4103  0.2122
11624TIP3    H156363   6.555   5.978  16.802  0.1185  0.2899  0.3407
11624TIP3    H256364   6.573   5.829  16.782 -3.3108  0.0082 -1.3315
11625TIP3   OH256365   1.587   6.697  16.493 -0.2955  0.1814  0.1927
11625TIP3    H156366   1.541   6.778  16.516 -1.5389 -0.0470 -1.3190
11625TIP3    H256367   1.532   6.627  16.529 -0.5200 -0.0606 -0.6117
11626TIP3   OH256368   0.699   5.443   5.483  0.1497 -0.2357  0.0446
11626TIP3    H156369   0.754   5.491   5.421  1.4427 -0.5496  0.9056
11626TIP3    H256370   0.728   5.352   5.475  0.2923 -0.2886  1.0696
11627TIP3   OH256371   0.382   5.991  15.728 -0.7891 -0.2314  0.2824
11627TIP3    H156372   0.390   5.946  15.645  1.8882 -0.0658  0.3613
11627TIP3    H256373   0.372   6.083  15.705 -1.8938 -0.3716  0.1585
11628TIP3   OH256374   6.162   5.808   1.860  0.1229 -1.0511  0.1136
11628TIP3    H156375   6.213   5.865   1.918  1.0679 -2.5907  0.8837
11628TIP3    H256376   6.106   5.867   1.810  0.9666  0.5144  0.9560
11629TIP3   OH256377   6.136   3.165  15.265 -0.2507 -0.3665  0.6054
11629TIP3    H156378   6.138   3.110  15.187  0.5559  0.1868  0.2174
11629TIP3    H256379   6.228   3.186  15.282 -0.5415  1.0288  0.6108
11630TIP3   OH256380   2.974   5.874   3.060  0.1332 -0.0575  0.5912
11630TIP3    H156381   2.950   5.939   3.126  0.7839  0.4281  0.3648
11630TIP3    H256382   2.993   5.925   2.982 -0.3513 -0.6077  0.1018
11631TIP3   OH256383   3.415   2.252  15.042 -0.1264 -0.0631  0.2429
11631TIP3    H156384   3.502   2.214  15.032 -0.7373 -1.5104  0.0714
11631TIP3    H256385   3.424   2.342  15.012  1.4614  0.0250  0.9064
11632TIP3   OH256386   4.020   1.730   2.520 -0.0215  0.7142 -0.0193
11632TIP3    H156387   3.998   1.745   2.611 -1.3732 -1.2225  0.0271
11632TIP3    H256388   3.960   1.788   2.471 -0.9501  0.0366  0.2848
11633TIP3   OH256389   5.783   2.097  12.505  0.4421  0.0711  0.1758
11633TIP3    H156390   5.851   2.045  12.462  1.8139  1.3704  0.6838
11633TIP3    H256391   5.707   2.038  12.509  0.9699 -0.8473 -1.9416
11634TIP3   OH256392   0.099   4.142   1.199  0.2781  0.0361 -0.1098
11634TIP3    H156393   0.085   4.095   1.116 -0.0298  1.3199 -0.8260
11634TIP3    H256394   0.185   4.113   1.229 -0.4476 -1.9603  0.1736
11635TIP3   OH256395   2.831   3.553  17.079  0.3143 -0.6795 -0.2341
11635TIP3    H156396   2.902   3.556  17.143 -0.1740 -2.9104  0.5097
11635TIP3    H256397   2.751   3.562  17.131 -0.0357 -0.6713 -0.7623
11636TIP3   OH256398   6.762   1.586  12.598 -0.2025  0.2726  0.0133
11636TIP3    H156399   6.757   1.600  12.503 -0.7155 -2.2849 -0.4139
11636TIP3    H256400   6.712   1.659  12.636 -0.9128  0.7506 -1.7328
11637TIP3   OH256401   2.748   0.720  11.190  0.5870 -0.5453 -0.2130
11637TIP3    H156402   2.829   0.720  11.138  0.0261 -0.9997 -1.1044
11637TIP3    H256403   2.771   0.671  11.269  1.5611  0.4726  0.1634
11638TIP3   OH256404   2.623   1.728   3.700 -0.3746  0.2729  0.4774
11638TIP3    H156405   2.621   1.786   3.623 -1.0183 -2.1767 -1.4815
11638TIP3    H256406   2.552   1.666   3.685  0.8284 -1.5668  1.9954
11639TIP3   OH256407   2.965   6.471   3.358 -0.1303 -1.0890  0.2909
11639TIP3    H156408   3.012   6.479   3.275  1.4478 -0.2323  1.1993
11639TIP3    H256409   3.026   6.507   3.423 -1.1776 -2.0356  1.8691
11640TIP3   OH256410   3.495   5.827   2.411  0.2436  0.1291  0.8244
11640TIP3    H156411   3.408   5.846   2.445 -0.3695  1.6362 -1.3493
11640TIP3    H256412   3.530   5.912   2.386 -0.1266 -0.8059 -3.7913
11641TIP3   OH256413   2.055   0.595  16.306  0.6935  0.9937  0.0290
11641TIP3    H156414   1.965   0.628  16.315  1.2557  2.0952  2.2520
11641TIP3    H256415   2.103   0.637  16.377  3.0067  0.4487 -1.1207
11642TIP3   OH256416   3.332   1.682   4.135  0.1021 -0.3170 -0.3880
11642TIP3    H156417   3.424   1.686   4.160 -0.4561 -0.5810  2.0410
11642TIP3    H256418   3.321   1.751   4.070  2.1333 -0.7486 -1.2585
11643TIP3   OH256419   1.913   4.262   4.921 -0.1945  0.6241  0.2104
11643TIP3    H156420   1.862   4.322   4.976  0.8616  1.7444  0.0012
11643TIP3    H256421   1.983   4.231   4.978  0.0385  0.6146 -0.0838
11644TIP3   OH256422   0.851   1.399   3.195  0.1198 -0.0473  0.1515
11644TIP3    H156423   0.863   1.389   3.290  1.0885 -0.0183  0.0422
11644TIP3    H256424   0.758   1.420   3.185  0.3288  1.5629  1.2171
11645TIP3   OH256425   1.080   3.999  13.690 -0.1694  0.3442  0.2326
11645TIP3    H156426   1.053   3.941  13.618  0.4966  0.5378 -0.1797
11645TIP3    H256427   1.071   4.087  13.655  1.2039  0.4071  0.0028
11646TIP3   OH256428   4.938   0.735   1.098 -0.8106 -0.2503  0.2859
11646TIP3    H156429   4.894   0.695   1.023 -0.1698  1.2164 -0.9361
11646TIP3    H256430   5.031   0.717   1.083 -0.8059 -1.7599  1.8792
11647TIP3   OH256431   5.112   2.144   4.071  0.4371  0.1769 -0.5953
11647TIP3    H156432   5.119   2.090   4.150  1.3182  0.3536 -0.5479
11647TIP3    H256433   5.098   2.233   4.104  1.2170  0.3133 -0.6292
11648TIP3   OH256434   0.033   5.707  16.706  0.3862 -0.1905  0.4139
11648TIP3    H156435   0.036   5.755  16.623  1.2650 -0.7662  0.1004
11648TIP3    H256436   0.066   5.620  16.684  1.4412 -0.0940  1.5506
11649TIP3   OH256437   0.405   3.266   0.723 -0.5887 -0.1408 -0.3503
11649TIP3    H156438   0.376   3.331   0.659  1.9106  0.8337 -0.6169
11649TIP3    H256439   0.340   3.196   0.718 -2.7528  1.8244 -0.8660
11650TIP3   OH256440   3.095   6.813  13.455 -0.6833  0.5124 -0.0071
11650TIP3    H156441   3.070   6.773  13.372 -0.3797 -0.0618  0.1733
11650TIP3    H256442   3.034   6.887  13.465 -0.6719  0.6347 -0.7684
11651TIP3   OH256443   4.390   1.098  16.496 -0.5036 -0.0401 -0.1624
11651TIP3    H156444   4.397   1.065  16.586 -0.1918 -0.0132 -0.1745
11651TIP3    H256445   4.459   1.163  16.490  0.2538 -0.8715 -0.7782
11652TIP3   OH256446   5.963   3.044   3.195 -0.1368 -0.7345  0.2516
11652TIP3    H156447   6.046   3.007   3.226  0.8402  0.1951 -1.1550
11652TIP3    H256448   5.963   3.134   3.229  0.4841 -0.0300 -1.4874
11653TIP3   OH256449   3.391   3.097   1.839  0.4385  0.2173  0.3639
11653TIP3    H156450   3.442   3.162   1.887 -0.3267  0.8210  0.3717
11653TIP3    H256451   3.397   3.018   1.892  1.8254  0.1099  0.0832
11654TIP3   OH256452   4.585   0.842   4.010 -0.2047 -0.5616 -0.5246
11654TIP3    H156453   4.517   0.902   3.978  2.0212  3.0933  0.9192
11654TIP3    H256454   4.558   0.822   4.100  1.2743  2.3951  0.7237
11655TIP3   OH256455   5.284   5.636  11.940 -0.1446  0.0797  0.5617
11655TIP3    H156456   5.257   5.608  11.853  2.7170 -0.3578 -0.2634
11655TIP3    H256457   5.202   5.639  11.990 -2.1017  1.5608 -2.3981
11656TIP3   OH256458   4.551   6.284   6.350  0.6074 -0.3176 -0.0987
11656TIP3    H156459   4.555   6.194   6.382  2.6500 -0.1131  0.3839
11656TIP3    H256460   4.582   6.338   6.424  1.0034  0.6059 -0.9076
11657TIP3   OH256461   0.119   2.669   4.654  0.0877 -0.5561  0.4320
11657TIP3    H156462   0.039   2.696   4.699  0.8219 -0.4260  1.6958
11657TIP3    H256463   0.138   2.740   4.593 -1.3488 -1.0954 -0.6979
11658TIP3   OH256464   6.291   3.520   1.826  0.4397  0.2260 -0.1284
11658TIP3    H156465   6.241   3.467   1.888 -1.2158  1.3992 -0.3895
11658TIP3    H256466   6.336   3.584   1.881 -0.1019  0.5385 -0.0416
11659TIP3   OH256467   1.190   5.997  14.818  0.1615  0.1856  0.1162
11659TIP3    H156468   1.156   6.054  14.887 -1.7021 -1.2238  0.4556
11659TIP3    H256469   1.233   5.926  14.864 -0.4602 -0.3910 -0.1784
11660TIP3   OH256470   2.177   3.464  16.645  0.4447 -0.0739  0.0076
11660TIP3    H156471   2.223   3.524  16.702  0.2556  0.3145 -0.2431
11660TIP3    H256472   2.210   3.377  16.668  0.4124  0.0882  0.6581
11661TIP3   OH256473   1.403   0.022   3.831  0.1973  0.2140  0.3160
11661TIP3    H156474   1.324  -0.012   3.873 -0.1295  0.4543 -0.0907
11661TIP3    H256475   1.371   0.091   3.773  0.7529  0.5650  0.4236
11662TIP3   OH256476   2.344   3.427  13.181 -0.6226  0.1155 -0.4323
11662TIP3    H156477   2.348   3.467  13.094  1.5310 -1.1020 -0.9833
11662TIP3    H256478   2.427   3.452  13.222 -0.0434 -2.1265 -0.0931
11663TIP3   OH256479   5.952   1.412   3.389 -0.7071  0.1748 -0.2401
11663TIP3    H156480   5.994   1.327   3.400 -0.0732  0.4565 -0.4425
11663TIP3    H256481   5.984   1.464   3.463 -2.6757 -0.3644  1.0527
11664TIP3   OH256482   4.061   5.294   3.539 -0.2812  0.0389  0.5362
11664TIP3    H156483   4.076   5.382   3.573  3.6518 -0.8132  1.4941
11664TIP3    H256484   3.994   5.257   3.597 -0.4035  1.6692  1.4885
11665TIP3   OH256485   6.805   4.194  16.675 -0.5788 -0.5905  0.1729
11665TIP3    H156486   6.717   4.171  16.644 -0.7618  1.5663 -1.1528
11665TIP3    H256487   6.855   4.209  16.595  0.1687  1.0167  0.8938
11666TIP3   OH256488   2.975   3.125   2.003  0.1338  0.7400 -0.1693
11666TIP3    H156489   2.887   3.160   2.014  0.5429  1.5503  0.6028
11666TIP3    H256490   3.033   3.201   2.012  0.8245  0.6846 -3.1010
11667TIP3   OH256491   2.720   6.045   2.985 -0.1411  0.1731  0.1211
11667TIP3    H156492   2.640   6.063   3.035  0.4276  1.2053  0.7051
11667TIP3    H256493   2.768   6.128   2.987  0.4082 -0.0927 -1.2274
11668TIP3   OH256494   0.770   3.186  15.187  0.0962 -0.4253  0.6349
11668TIP3    H156495   0.803   3.101  15.157 -0.2058  0.4633 -2.6189
11668TIP3    H256496   0.848   3.237  15.207  0.3579 -0.8000  0.5701
11669TIP3   OH256497   4.572   2.092  12.260 -0.0972  0.0106  0.1149
11669TIP3    H156498   4.643   2.082  12.196 -1.0955  1.1359 -1.2439
11669TIP3    H256499   4.539   2.004  12.275 -0.1214 -0.2344 -1.2889
11670TIP3   OH256500   4.096   3.382  12.549 -0.6438  0.6328  0.4191
11670TIP3    H156501   4.110   3.444  12.621  0.9014  1.9217 -0.9292
11670TIP3    H256502   4.184   3.356  12.522 -1.1713  0.7033 -1.4550
11671TIP3   OH256503   5.579   1.725  13.936 -0.0099  0.0819  0.7401
11671TIP3    H156504   5.514   1.782  13.976  0.1021  2.1483 -1.7188
11671TIP3    H256505   5.528   1.657  13.892 -0.1483 -1.8050  3.5484
11672TIP3   OH256506   3.429   5.876   5.663  0.4653 -0.0985 -0.0881
11672TIP3    H156507   3.522   5.874   5.642  0.4224 -0.0915 -0.2786
11672TIP3    H256508   3.417   5.806   5.727  0.6035 -0.0939 -0.0581
11673TIP3   OH256509   2.117   6.684   5.223  0.0656  0.3868  0.0082
11673TIP3    H156510   2.027   6.668   5.251 -0.1010  0.1750 -0.6252
11673TIP3    H256511   2.162   6.601   5.240  0.0374  0.3565 -0.0634
11674TIP3   OH256512   4.635   3.457  11.799  0.0075 -0.4816 -0.2866
11674TIP3    H156513   4.646   3.383  11.858  0.5751 -1.3659 -1.4585
11674TIP3    H256514   4.576   3.517  11.846  1.7421 -0.3290  1.8905
11675TIP3   OH256515   2.307   2.031  16.689 -0.1980 -0.1950  0.1302
11675TIP3    H156516   2.324   1.948  16.644  1.1670 -0.0410  0.3177
11675TIP3    H256517   2.350   2.021  16.774  0.2054  0.7841  0.0539
11676TIP3   OH256518   6.275   0.399  12.739  0.6286  0.1657  0.3539
11676TIP3    H156519   6.223   0.321  12.719 -0.1591  1.1872 -1.8300
11676TIP3    H256520   6.211   0.471  12.740  1.6420  1.0976  0.1641
11677TIP3   OH256521   1.814   0.334  13.188 -1.0048  0.1399  0.2127
11677TIP3    H156522   1.759   0.293  13.255 -1.0372 -2.1541 -1.1156
11677TIP3    H256523   1.898   0.346  13.231 -0.1896 -3.7595  0.0645
11678TIP3   OH256524   4.844   2.183   1.794  0.0528  0.3004 -0.4672
11678TIP3    H156525   4.864   2.217   1.707 -2.5743  1.5052 -0.6699
11678TIP3    H256526   4.904   2.230   1.853  0.2838  1.1464 -1.3601
11679TIP3   OH256527   0.221   5.214   0.050  0.0384 -0.0990  0.2686
11679TIP3    H156528   0.283   5.277   0.013  0.7204 -1.1217 -0.3579
11679TIP3    H256529   0.135   5.257   0.043  0.4921  0.7502 -0.1424
11680TIP3   OH256530   6.320   3.752   0.100 -0.7161 -0.0810 -0.3244
11680TIP3    H156531   6.265   3.829   0.114 -1.3218 -0.5241 -0.2033
11680TIP3    H256532   6.315   3.735   0.006  1.2000  1.3167 -0.7234
11681TIP3   OH256533   0.691   3.232  13.887 -0.0858 -0.0240 -0.1491
11681TIP3    H156534   0.717   3.263  13.974  0.2438  1.0953 -0.6340
11681TIP3    H256535   0.743   3.153  13.873 -2.0914 -1.8565  1.7806
11682TIP3   OH256536   1.449   4.318   1.758  0.3656 -0.1708  0.4788
11682TIP3    H156537   1.388   4.307   1.831  0.0645  0.1480  0.2806
11682TIP3    H256538   1.406   4.382   1.701  1.0997  0.4188  0.5722
11683TIP3   OH256539   0.022   5.908  13.182 -0.1651 -0.1683  0.2386
11683TIP3    H156540   0.040   5.815  13.197 -1.1677 -0.3412  0.4824
11683TIP3    H256541  -0.046   5.930  13.245 -0.3970  0.5717 -0.2480
11684TIP3   OH256542   4.647   3.653   1.059 -0.1399 -0.0068  0.3068
11684TIP3    H156543   4.709   3.626   0.991 -1.4486 -0.1696 -0.8456
11684TIP3    H256544   4.613   3.737   1.029  1.0580  1.1649  1.9951
11685TIP3   OH256545   0.588   5.477   2.131  0.0464  0.1205 -0.2395
11685TIP3    H156546   0.576   5.469   2.036 -0.3436  0.2917 -0.2044
11685TIP3    H256547   0.611   5.569   2.145  0.6778 -0.0342 -0.2267
11686TIP3   OH256548   3.136   1.049  14.961 -0.0846 -0.0103  0.1722
11686TIP3    H156549   3.115   1.137  14.991  1.6330 -0.1158  1.8898
11686TIP3    H256550   3.087   0.991  15.019  2.2939 -0.1888  2.1985
11687TIP3   OH256551   1.922   0.148   6.083 -0.5327 -0.0755  0.5692
11687TIP3    H156552   1.875   0.122   6.004  1.3731 -0.9300 -0.3550
11687TIP3    H256553   1.886   0.234   6.105 -0.3020  0.7672 -1.9662
11688TIP3   OH256554   4.497   1.315  13.480 -0.4320 -0.2403 -0.3091
11688TIP3    H156555   4.564   1.359  13.531 -1.2246  1.5473 -0.7322
11688TIP3    H256556   4.484   1.231  13.524 -0.1223  0.6666  1.5930
11689TIP3   OH256557   5.323   2.449   5.556 -0.0587 -0.4917  0.2252
11689TIP3    H156558   5.290   2.383   5.616 -0.2221  0.4579  1.2173
11689TIP3    H256559   5.379   2.506   5.610  0.0012  0.2363 -0.5671
11690TIP3   OH256560   3.872   6.043   0.121  0.2163  0.3794 -0.1572
11690TIP3    H156561   3.835   5.990   0.191 -0.2019  0.4658 -0.3098
11690TIP3    H256562   3.952   5.997   0.097  1.2820  1.2544  1.5328
11691TIP3   OH256563   5.530   0.637   3.135  0.0254  0.2617 -0.1284
11691TIP3    H156564   5.477   0.704   3.091  0.7873  1.8045  1.1778
11691TIP3    H256565   5.477   0.611   3.211  0.4414  0.6650  0.3107
11692TIP3   OH256566   1.624   2.526   0.297 -0.1915 -0.0985 -0.6364
11692TIP3    H156567   1.529   2.533   0.310 -0.4661  0.5934 -2.7459
11692TIP3    H256568   1.641   2.432   0.298 -1.0717 -0.2753 -1.2706
11693TIP3   OH256569   1.704   5.140   3.599  0.5778  0.0184  0.0819
11693TIP3    H156570   1.610   5.151   3.591  0.1355 -2.4380  1.0216
11693TIP3    H256571   1.722   5.151   3.692  1.0330 -0.4781  0.0620
11694TIP3   OH256572   5.740   6.394   5.803  0.4092  0.9664 -0.4508
11694TIP3    H156573   5.721   6.437   5.887 -0.4487 -2.6690  1.4291
11694TIP3    H256574   5.834   6.406   5.792  0.7902  0.5428  1.7389
11695TIP3   OH256575   4.634   2.104  12.975 -0.0796 -0.3011 -0.0767
11695TIP3    H156576   4.707   2.152  12.938 -0.2181  0.8542  1.0665
11695TIP3    H256577   4.668   2.066  13.056  0.1595 -2.5934 -1.1756
11696TIP3   OH256578   4.161   0.589  11.464  0.2304 -0.2286  0.2434
11696TIP3    H156579   4.244   0.601  11.418  0.1784 -0.3333  0.1245
11696TIP3    H256580   4.104   0.546  11.401 -0.1931  0.6246  0.0374
11697TIP3   OH256581   3.878   4.081  11.120 -0.9940  0.4065  0.0390
11697TIP3    H156582   3.892   4.007  11.061 -0.9929 -0.6301  1.2686
11697TIP3    H256583   3.955   4.136  11.110  0.8343 -1.6575  1.7025
11698TIP3   OH256584   1.866   1.885  13.166  0.1549  0.2232 -0.0582
11698TIP3    H156585   1.897   1.872  13.076 -0.5542 -2.0584 -0.0583
11698TIP3    H256586   1.921   1.826  13.218  0.1188  1.0369  0.9281
11699TIP3   OH256587   2.900   2.512  14.631  0.0660 -0.2682  0.6174
11699TIP3    H156588   2.862   2.511  14.719  0.2566  1.0282  0.7402
11699TIP3    H256589   2.844   2.454  14.579 -0.0615 -1.0306  1.5854
11700TIP3   OH256590   6.090   3.904   2.562  0.5944 -0.4413 -0.5024
11700TIP3    H156591   6.069   3.888   2.470 -0.4541 -0.9763 -0.1805
11700TIP3    H256592   6.086   3.818   2.603 -0.7950  0.0184  0.4013
11701TIP3   OH256593   1.939   1.022   5.625 -0.2657  0.6058 -0.4286
11701TIP3    H156594   1.963   1.020   5.718 -1.8288 -2.9241  0.0545
11701TIP3    H256595   2.018   0.992   5.580 -0.5725 -1.2634  0.1877
11702TIP3   OH256596   1.995   0.876  17.183  0.0361 -0.2322  0.5905
11702TIP3    H156597   2.009   0.895  17.276 -1.2756  0.8828  0.5973
11702TIP3    H256598   1.983   0.962  17.142  0.0390 -0.7389 -0.5174
11703TIP3   OH256599   3.105   0.385   2.366 -0.4426  0.0934 -0.0032
11703TIP3    H156600   3.108   0.300   2.410 -2.6377  0.5175  1.0518
11703TIP3    H256601   3.041   0.374   2.296  0.1707  0.5401 -0.6478
11704TIP3   OH256602   5.589   0.648   2.468  0.4912 -0.7937 -0.5122
11704TIP3    H156603   5.515   0.651   2.529  1.0138  0.2252  0.0926
11704TIP3    H256604   5.558   0.591   2.397 -1.3435  0.5394 -0.8748
11705TIP3   OH256605   5.911   2.421  16.632  0.2844 -0.5456  0.4460
11705TIP3    H156606   5.933   2.464  16.715 -2.5787 -1.2624  1.6960
11705TIP3    H256607   5.890   2.331  16.655 -0.7656 -0.7250 -1.0197
11706TIP3   OH256608   2.290   2.432  16.447 -0.0173 -0.5234  0.5886
11706TIP3    H156609   2.365   2.374  16.438  2.0260  1.7760  1.6535
11706TIP3    H256610   2.250   2.408  16.531 -0.6466 -1.8593 -0.0540
11707TIP3   OH256611   4.642   4.948  12.014 -0.3329 -0.0354  0.3647
11707TIP3    H156612   4.635   5.042  12.033  1.6841  0.5646 -1.3953
11707TIP3    H256613   4.591   4.936  11.934 -1.6524 -0.7481  1.2790
11708TIP3   OH256614   3.010   4.639   6.062 -0.4743 -0.0865  0.0989
11708TIP3    H156615   3.014   4.551   6.025  0.5681 -0.0207  0.0221
11708TIP3    H256616   3.059   4.694   6.000  1.6402 -0.0350  1.6934
11709TIP3   OH256617   4.477   3.379   3.542  0.2913 -0.3607 -0.1627
11709TIP3    H156618   4.513   3.372   3.454 -1.4188  1.5453 -1.0737
11709TIP3    H256619   4.535   3.441   3.587  0.4676 -0.4213 -0.3044
11710TIP3   OH256620   3.174   4.880  14.971 -0.1373 -0.5765 -1.0395
11710TIP3    H156621   3.255   4.915  14.934 -0.9337  1.6087 -0.8344
11710TIP3    H256622   3.108   4.894  14.903 -1.0302  0.9219  0.0686
11711TIP3   OH256623   5.615   3.730   2.385  0.4702 -0.9381  0.5974
11711TIP3    H156624   5.701   3.726   2.343  0.0301 -0.1609 -0.4220
11711TIP3    H256625   5.634   3.722   2.478  1.6484 -0.7985  0.3882
11712TIP3   OH256626   4.370   1.105  13.612  0.5408 -0.4956  0.8818
11712TIP3    H156627   4.348   1.037  13.548 -0.3984 -0.9083  1.6090
11712TIP3    H256628   4.414   1.058  13.683  1.5402 -0.0501  0.5607
11713TIP3   OH256629   5.391   4.279  16.562 -0.4284  0.4787 -0.0623
11713TIP3    H156630   5.437   4.355  16.598 -0.0606  0.1553  0.1620
11713TIP3    H256631   5.340   4.314  16.489 -1.5051  1.2161  1.0138
11714TIP3   OH256632   0.630   6.241   6.204 -0.0215 -0.0211  0.3514
11714TIP3    H156633   0.567   6.231   6.275  0.2189 -0.1576  0.5475
11714TIP3    H256634   0.635   6.336   6.191 -2.2251 -0.0766 -1.4518
11715TIP3   OH256635   4.890   4.289   2.340 -0.8253  0.1695  0.4954
11715TIP3    H156636   4.804   4.279   2.300 -0.8297  0.4661  0.4287
11715TIP3    H256637   4.873   4.286   2.434 -0.8460 -0.2706  0.4788
11716TIP3   OH256638   1.222   1.307   5.206 -0.4215 -0.1089 -0.1149
11716TIP3    H156639   1.316   1.298   5.222 -0.9883 -2.1302  3.0648
11716TIP3    H256640   1.198   1.228   5.157 -0.3489  0.9702 -1.9669
11717TIP3   OH256641   6.213   4.847   5.107 -0.0394  0.3828  0.6508
11717TIP3    H156642   6.143   4.816   5.049  0.2807 -0.6797  0.8267
11717TIP3    H256643   6.174   4.922   5.152 -0.3353  1.1661 -0.8292
11718TIP3   OH256644   2.044   4.027   3.612  0.0715  0.1005  0.4736
11718TIP3    H156645   2.082   4.109   3.580 -1.0637  0.8224  0.8996
11718TIP3    H256646   2.001   4.051   3.694 -0.0215 -0.9927  0.7643
11719TIP3   OH256647   5.089   2.739  15.978 -0.1027  0.1743  0.5997
11719TIP3    H156648   5.042   2.682  15.917 -0.7189  1.3487 -0.0549
11719TIP3    H256649   5.169   2.763  15.932 -0.6659  1.2298  0.1467
11720TIP3   OH256650   4.616   6.254   1.231 -0.1208  0.4610 -0.2205
11720TIP3    H156651   4.631   6.207   1.150  2.6759  0.4103  0.2465
11720TIP3    H256652   4.658   6.339   1.218  0.8196  0.2639  1.3329
11721TIP3   OH256653   3.243   6.459  16.182 -0.6449 -0.5475  0.7165
11721TIP3    H156654   3.245   6.410  16.100  0.5969  0.3960  0.1544
11721TIP3    H256655   3.246   6.392  16.250  0.7326 -1.2898 -0.0392
11722TIP3   OH256656   4.656   1.370  11.754 -0.4740  0.5207 -0.7199
11722TIP3    H156657   4.571   1.328  11.768  0.1049 -0.9044 -1.3343
11722TIP3    H256658   4.719   1.298  11.754  0.8864  1.6207  0.6937
11723TIP3   OH256659   4.909   0.566  13.216  0.1852  0.1604  0.0657
11723TIP3    H156660   4.839   0.549  13.278  0.0506 -1.6882 -0.5306
11723TIP3    H256661   4.935   0.479  13.184  1.6797  0.9090 -0.8833
11724TIP3   OH256662   2.887   4.200  15.462 -0.0676  0.4139 -0.1105
11724TIP3    H156663   2.922   4.268  15.521  0.1276  1.3596 -1.2796
11724TIP3    H256664   2.935   4.121  15.486  1.2704  1.1737 -0.1500
11725TIP3   OH256665   1.502   5.800   0.089  0.5510  0.3069  0.0120
11725TIP3    H156666   1.410   5.827   0.089  0.4764  0.1140 -1.2836
11725TIP3    H256667   1.523   5.786  -0.003  2.4763  2.3610  0.0433
11726TIP3   OH256668   4.850   3.418  11.478 -0.1994 -0.2932 -0.3771
11726TIP3    H156669   4.923   3.428  11.540  0.7991 -0.0125 -1.5595
11726TIP3    H256670   4.824   3.508  11.457  1.9768 -0.1539 -3.1640
11727TIP3   OH256671   0.449   3.694   2.403  0.2002  0.2281  0.0030
11727TIP3    H156672   0.520   3.661   2.347 -0.1708 -0.1909 -0.2294
11727TIP3    H256673   0.415   3.616   2.446 -0.7979  0.2726 -0.6780
11728TIP3   OH256674   5.637   1.471  15.591 -0.0147  0.2092  0.0609
11728TIP3    H156675   5.641   1.377  15.576  0.5171  0.2015  0.2248
11728TIP3    H256676   5.694   1.486  15.666  0.8769  0.8200 -0.7123
11729TIP3   OH256677   3.140   5.338  16.812 -0.2820 -0.1223  0.5358
11729TIP3    H156678   3.058   5.383  16.833  0.0764  1.0471 -0.4615
11729TIP3    H256679   3.197   5.406  16.777  0.7133 -1.1360  0.1116
11730TIP3   OH256680   1.082   2.194   2.902 -0.2261 -0.0527 -0.1611
11730TIP3    H156681   1.073   2.279   2.859 -0.1616 -0.6172 -1.3334
11730TIP3    H256682   1.171   2.195   2.939 -0.9342  1.1487  1.6058
11731TIP3   OH256683   6.816   0.516   5.633 -0.4591  0.1046 -0.3957
11731TIP3    H156684   6.797   0.577   5.704 -2.2109  1.4750 -1.9316
11731TIP3    H256685   6.895   0.551   5.592  1.9002 -1.9012  2.0167
11732TIP3   OH256686   1.345   3.293  11.754 -0.2873 -0.3180  0.1889
11732TIP3    H156687   1.266   3.293  11.808  0.4677 -0.1089  1.3356
11732TIP3    H256688   1.343   3.376  11.706 -0.9965 -0.5336 -0.1648
11733TIP3   OH256689   0.227   0.066   3.055  0.2869  0.0868 -0.2875
11733TIP3    H156690   0.204   0.159   3.058 -0.7495 -0.1765  0.4351
11733TIP3    H256691   0.279   0.057   2.975  3.4643  1.9459  1.3529
11734TIP3   OH256692   5.943   6.033  16.245  0.1619  0.1400 -0.7001
11734TIP3    H156693   5.935   6.024  16.150 -1.0371 -1.1294 -0.4965
11734TIP3    H256694   5.864   5.992  16.281 -0.5515  2.5716  0.7789
11735TIP3   OH256695   5.783   2.700  14.612 -0.1760  0.4434  0.0680
11735TIP3    H156696   5.704   2.751  14.632 -0.8367 -0.6562  0.3172
11735TIP3    H256697   5.832   2.756  14.551 -0.8901  1.3645  0.3026
11736TIP3   OH256698   5.050   4.580  11.402 -0.5267 -0.1709 -0.0161
11736TIP3    H156699   4.957   4.570  11.379 -0.0886  0.6900 -2.5055
11736TIP3    H256700   5.093   4.509  11.356  0.0202 -1.0906  1.8272
11737TIP3   OH256701   3.758   3.395  14.384 -0.0769 -0.2735  0.7186
11737TIP3    H156702   3.717   3.383  14.299  1.3944 -0.3977 -0.0031
11737TIP3    H256703   3.685   3.417  14.443 -1.2615 -1.2707 -0.3194
11738TIP3   OH256704   5.552   6.358   3.446  0.1574  0.0995 -0.4869
11738TIP3    H156705   5.637   6.340   3.487  0.1985  1.2868 -0.0153
11738TIP3    H256706   5.506   6.412   3.510 -1.0080 -0.6164 -0.6961
11739TIP3   OH256707   1.598   6.053   3.621 -0.0468  0.2555 -0.1336
11739TIP3    H156708   1.544   6.098   3.686 -2.7957 -0.7363 -1.5308
11739TIP3    H256709   1.653   6.121   3.583 -1.5154  1.7337  0.2712
11740TIP3   OH256710   3.732   2.477   1.671 -0.5478  0.0028 -0.4839
11740TIP3    H156711   3.804   2.541   1.662 -0.5064 -0.0523 -0.5475
11740TIP3    H256712   3.756   2.406   1.611 -1.3067  0.5766 -1.5088
11741TIP3   OH256713   0.798   2.771  13.921  0.0069  0.2659 -0.3645
11741TIP3    H156714   0.829   2.860  13.909  0.2775  0.4899  1.6578
11741TIP3    H256715   0.715   2.780  13.968  1.3976 -0.5016  2.5378
11742TIP3   OH256716   1.864   2.901   3.639  0.1123  0.1067  0.2574
11742TIP3    H156717   1.831   2.821   3.678  0.5355 -0.2602 -0.1251
11742TIP3    H256718   1.891   2.955   3.714 -0.6004  0.0934  0.5345
11743TIP3   OH256719   5.053   6.502  17.104 -0.1823  0.6405 -0.1603
11743TIP3    H156720   5.070   6.575  17.045  1.2073  1.3925  1.0696
11743TIP3    H256721   5.130   6.501  17.161  0.7599 -2.9696 -1.2824
11744TIP3   OH256722   6.627   6.692   4.725 -0.2456 -0.2581  0.0938
11744TIP3    H156723   6.700   6.717   4.782  0.2741 -1.8746  0.2149
11744TIP3    H256724   6.590   6.614   4.767  0.3628 -1.7142 -1.8926
11745TIP3   OH256725   5.423   3.310   3.882 -0.1531  0.1408 -0.7202
11745TIP3    H156726   5.417   3.322   3.788 -1.4959  0.8989 -0.5692
11745TIP3    H256727   5.403   3.217   3.896 -0.6032  0.1674 -1.1465
11746TIP3   OH256728   0.347   2.084  11.410  0.4516  0.7104  0.4371
11746TIP3    H156729   0.365   2.042  11.325 -0.1703  0.9175  0.1994
11746TIP3    H256730   0.349   2.011  11.473  2.5580  0.7688  0.5126
11747TIP3   OH256731   5.475   1.861   2.317  0.0699 -0.4316 -0.0815
11747TIP3    H156732   5.467   1.938   2.260  0.0291 -0.2489  0.1666
11747TIP3    H256733   5.501   1.898   2.402  1.2469 -0.7954 -0.2647
11748TIP3   OH256734   6.545   2.893  12.996  0.0832  0.3518  0.1119
11748TIP3    H156735   6.606   2.824  12.972 -1.4428 -0.1653 -2.8232
11748TIP3    H256736   6.589   2.943  13.064  2.1533 -2.1786  0.7645
11749TIP3   OH256737   1.451   4.915  15.389 -0.5428  0.5186  0.4069
11749TIP3    H156738   1.435   4.983  15.324  1.0319  0.4689 -0.0636
11749TIP3    H256739   1.385   4.848  15.370 -1.4103  1.4032  0.1867
11750TIP3   OH256740   6.616   2.129  16.476 -0.2174  0.6003 -0.0517
11750TIP3    H156741   6.633   2.210  16.428 -1.6627  0.0994 -1.4999
11750TIP3    H256742   6.522   2.130  16.491 -0.1748 -0.5901  0.3507
11751TIP3   OH256743   3.952   6.783   6.640 -0.1873 -0.2049 -0.2241
11751TIP3    H156744   3.944   6.720   6.569  0.4823  0.8471 -1.2794
11751TIP3    H256745   4.029   6.835   6.617 -0.1021  0.3057  1.1619
11752TIP3   OH256746   3.442   3.009  15.027  0.2188 -0.4890 -0.0145
11752TIP3    H156747   3.510   3.000  14.961  1.4556 -1.7702  1.3351
11752TIP3    H256748   3.477   2.963  15.104 -0.2229  2.6064  2.2526
11753TIP3   OH256749   3.048   5.464   3.722 -0.7946 -0.2371 -0.2340
11753TIP3    H156750   3.133   5.439   3.687 -0.4555  1.1072 -0.4219
11753TIP3    H256751   3.005   5.511   3.650 -0.8883  0.8020  0.4745
11754TIP3   OH256752   1.828   0.516  12.058  0.6016 -0.4457 -0.6618
11754TIP3    H156753   1.754   0.461  12.034 -1.3723  1.7973 -0.1012
11754TIP3    H256754   1.823   0.523  12.154  2.1741 -1.0522 -0.5060
11755TIP3   OH256755   0.736   3.932  13.497 -0.6494 -0.6070 -0.0013
11755TIP3    H156756   0.787   4.007  13.528  1.4997 -0.5056 -3.2239
11755TIP3    H256757   0.651   3.941  13.539  1.4211  0.0259  4.6100
11756TIP3   OH256758   1.203   3.336  13.959 -0.1874  0.4621 -0.4320
11756TIP3    H156759   1.249   3.411  13.921  2.8094 -0.8913  0.1899
11756TIP3    H256760   1.159   3.371  14.036 -1.4201  2.0979 -1.8107
11757TIP3   OH256761   4.134   5.842   2.771 -0.4225  0.0911 -0.0928
11757TIP3    H156762   4.190   5.855   2.695  1.8667 -1.1323  1.2513
11757TIP3    H256763   4.086   5.762   2.752 -0.0870 -0.0439 -0.3897
11758TIP3   OH256764   1.025   0.643   2.072 -0.3434  0.1916 -0.1101
11758TIP3    H156765   0.939   0.612   2.042  0.1875 -1.5450  0.0095
11758TIP3    H256766   1.087   0.600   2.013  0.4395  1.6831 -0.3998
11759TIP3   OH256767   5.068   1.393  11.998  0.3540 -0.3820  0.3859
11759TIP3    H156768   5.041   1.301  12.005 -1.4306 -0.0234 -0.8289
11759TIP3    H256769   4.988   1.442  12.020  1.7034  0.9601  2.6583
11760TIP3   OH256770   4.401   5.744  13.560 -0.1340  0.1712  0.5936
11760TIP3    H156771   4.367   5.697  13.484 -2.2211  0.0963  1.4961
11760TIP3    H256772   4.422   5.831  13.528 -1.2780  0.2323 -0.0266
11761TIP3   OH256773   5.602   3.852  11.920 -0.2863 -0.3236 -0.3942
11761TIP3    H156774   5.617   3.767  11.962  0.8200  0.4365  0.8327
11761TIP3    H256775   5.535   3.895  11.973 -1.2277 -0.6101 -1.3176
11762TIP3   OH256776   5.721   2.313   0.725  0.1514 -0.3788  0.1453
11762TIP3    H156777   5.734   2.269   0.809  0.3677 -0.8793 -0.1434
11762TIP3    H256778   5.644   2.271   0.688 -0.1554  0.0856  0.2459
11763TIP3   OH256779   1.346   0.846  11.614  0.2020  0.3913  0.1159
11763TIP3    H156780   1.360   0.932  11.653  1.0795 -0.2601  1.2998
11763TIP3    H256781   1.359   0.785  11.686  0.8748 -0.8056 -0.9802
11764TIP3   OH256782   3.398   0.281  15.068  0.5721 -0.1181 -0.1319
11764TIP3    H156783   3.356   0.268  15.153 -0.5890  1.5135 -0.4018
11764TIP3    H256784   3.382   0.200  15.020 -0.7041 -0.2217  0.4341
11765TIP3   OH256785   3.231   5.177   1.185 -0.3394 -1.0412 -0.2764
11765TIP3    H156786   3.138   5.195   1.194 -0.1468 -1.0404  2.6340
11765TIP3    H256787   3.269   5.260   1.157 -0.7561  0.2987  2.7465
11766TIP3   OH256788   2.075   6.239  15.933 -0.0465  0.0230  0.6261
11766TIP3    H156789   2.069   6.146  15.907  2.2165  0.6438 -2.7758
11766TIP3    H256790   2.167   6.261  15.922 -0.8327  3.1718 -0.8141
11767TIP3   OH256791   0.706   3.227   0.303 -0.6008  0.4714 -0.0291
11767TIP3    H156792   0.793   3.189   0.290 -1.6894 -1.5546 -1.9678
11767TIP3    H256793   0.723   3.321   0.312  1.9752 -0.0944  2.3644
11768TIP3   OH256794   1.435   4.623  10.605 -0.4372  0.0326 -0.0253
11768TIP3    H156795   1.356   4.627  10.552 -1.0586 -0.6336  0.8189
11768TIP3    H256796   1.436   4.705  10.654  0.5849  1.0371 -1.6255
11769TIP3   OH256797   1.449   1.178  13.039 -0.3192 -0.2141  0.2179
11769TIP3    H156798   1.358   1.160  13.061 -0.7489  1.6651  0.1625
11769TIP3    H256799   1.483   1.095  13.006 -1.0832 -1.8016  3.1707
11770TIP3   OH256800   2.601   0.381  17.226 -0.1493  0.2336 -0.0251
11770TIP3    H156801   2.557   0.296  17.225  0.7666 -0.2536  0.1987
11770TIP3    H256802   2.639   0.388  17.314 -0.2198  0.8778 -0.0399
11771TIP3   OH256803   0.643   4.229  16.178  0.4234  0.4952  0.0784
11771TIP3    H156804   0.665   4.317  16.146 -1.5267  1.0671  0.1700
11771TIP3    H256805   0.592   4.244  16.258 -0.3966 -0.6712 -0.1891
11772TIP3   OH256806   4.257   2.678  15.802 -0.3487  0.2637 -0.0824
11772TIP3    H156807   4.267   2.756  15.748  0.3769 -0.2051 -0.6501
11772TIP3    H256808   4.339   2.631  15.792 -0.7055 -0.4902  0.3897
11773TIP3   OH256809   2.002   2.933  16.759 -0.4116  0.3091 -0.7082
11773TIP3    H156810   1.993   2.841  16.784  0.2025  0.4670  0.1360
11773TIP3    H256811   1.914   2.960  16.733 -0.6788 -0.4030 -0.5619
11774TIP3   OH256812   4.654   0.100   5.555  0.4505  0.4185 -0.1398
11774TIP3    H156813   4.648   0.071   5.646  0.2471  0.9407  0.0149
11774TIP3    H256814   4.730   0.054   5.520  1.4650  1.3817  0.7310
11775TIP3   OH256815   1.052   6.158   4.483  0.5763  0.2163  0.0609
11775TIP3    H156816   1.036   6.072   4.521 -1.0775 -0.8464 -2.6749
11775TIP3    H256817   1.141   6.154   4.450  0.3364 -0.7058 -0.5181
11776TIP3   OH256818   6.348   1.617   5.197 -0.2482 -0.6343  0.1266
11776TIP3    H156819   6.435   1.594   5.167  1.2732  2.0396  2.0671
11776TIP3    H256820   6.349   1.713   5.204 -2.1663 -0.6794  3.4303
11777TIP3   OH256821   5.107   1.358  14.370  0.1725  0.5538  0.3116
11777TIP3    H156822   5.106   1.450  14.396  2.4602  0.7827 -0.2157
11777TIP3    H256823   5.068   1.357  14.283 -0.0222  0.9820  0.3908
11778TIP3   OH256824   3.864   0.389  12.423 -0.3258  0.6171 -0.1500
11778TIP3    H156825   3.917   0.468  12.414 -0.0645  0.3451 -1.1554
11778TIP3    H256826   3.796   0.398  12.356 -0.9223  0.4747  0.4314
11779TIP3   OH256827   4.718   0.860  14.954 -0.0877 -0.0970  0.4791
11779TIP3    H156828   4.702   0.834  15.045 -2.6197 -2.5607 -0.4926
11779TIP3    H256829   4.809   0.836  14.937  0.5079  0.6480  2.3829
11780TIP3   OH256830   4.955   6.573   0.823 -0.4561  0.0497 -0.6011
11780TIP3    H156831   4.892   6.644   0.833 -1.3995 -0.7622 -0.6209
11780TIP3    H256832   4.902   6.493   0.827  0.6707 -0.6892  0.2420
11781TIP3   OH256833   2.634   2.975  12.230  0.6666 -0.2604 -0.4002
11781TIP3    H156834   2.551   2.994  12.273  0.7147 -0.1558 -0.3549
11781TIP3    H256835   2.665   3.059  12.196  0.7413 -0.3029 -0.4397
11782TIP3   OH256836   2.443   5.671  16.329  0.4272 -0.1749  0.3745
11782TIP3    H156837   2.461   5.579  16.312 -2.4144 -0.6756 -0.3262
11782TIP3    H256838   2.438   5.678  16.424 -0.3793 -0.9925  0.4023
11783TIP3   OH256839   4.611   3.696  14.278  0.1240 -0.0766 -0.2280
11783TIP3    H156840   4.651   3.633  14.218 -2.8764 -0.8356 -1.6700
11783TIP3    H256841   4.533   3.727  14.231 -1.1801  1.0089  2.4148
11784TIP3   OH256842   2.484   4.438   6.008 -0.5805 -0.3364  0.7560
11784TIP3    H156843   2.482   4.381   6.085  1.2194 -0.5311  0.7034
11784TIP3    H256844   2.576   4.465   6.000 -0.4957 -1.0652 -1.8443
11785TIP3   OH256845   6.595   1.574   2.269  0.1782 -0.3977 -0.3773
11785TIP3    H156846   6.592   1.540   2.180 -1.9547  0.8704 -0.8671
11785TIP3    H256847   6.608   1.668   2.258  0.7514 -0.3304  0.7055
11786TIP3   OH256848   1.294   4.730  12.736 -0.5908  0.0507 -0.5322
11786TIP3    H156849   1.298   4.637  12.758 -0.1478  0.3984  0.9689
11786TIP3    H256850   1.201   4.750  12.734 -0.6649 -0.1070  0.6542
11787TIP3   OH256851   0.329   1.789  12.577 -0.0173 -0.7266  0.4677
11787TIP3    H156852   0.421   1.763  12.581  0.6139  1.2019 -0.4429
11787TIP3    H256853   0.324   1.850  12.503 -2.1570 -1.2378  0.1231
11788TIP3   OH256854   1.215   2.518   5.143 -0.4411 -0.4820 -0.5450
11788TIP3    H156855   1.287   2.477   5.190 -1.0084  0.2901  1.0494
11788TIP3    H256856   1.253   2.597   5.105 -0.2843 -0.4318 -0.2841
11789TIP3   OH256857   2.578   4.513  15.506 -0.0542 -0.2424 -0.0954
11789TIP3    H156858   2.596   4.597  15.549 -1.8790  0.1656 -0.0470
11789TIP3    H256859   2.560   4.452  15.578  1.3336 -0.7285 -0.1276
11790TIP3   OH256860   1.197   2.548  15.953  0.1029  0.1514 -0.2855
11790TIP3    H156861   1.200   2.548  15.857  0.6560  0.0639 -0.2713
11790TIP3    H256862   1.248   2.471  15.978  0.6329  0.6135  0.0920
11791TIP3   OH256863   0.415   4.259   3.489  0.5734 -0.7187 -0.1902
11791TIP3    H156864   0.450   4.316   3.557 -0.0769  0.6628 -0.9639
11791TIP3    H256865   0.457   4.290   3.408 -0.9091 -0.3369 -0.8396
11792TIP3   OH256866   3.035   6.320   4.189  0.0290 -0.3614  0.0643
11792TIP3    H156867   2.954   6.366   4.168  0.2143  0.9151  1.8670
11792TIP3    H256868   3.101   6.361   4.133 -0.0648  0.6634  0.6746
11793TIP3   OH256869   2.594   4.104  14.007 -0.0479  0.1517  0.0673
11793TIP3    H156870   2.501   4.088  14.023  0.2908 -1.2624  0.8762
11793TIP3    H256871   2.616   4.044  13.935  0.1566  0.7787 -0.3961
11794TIP3   OH256872   1.170   6.232  14.396  0.4347 -0.7762  0.1667
11794TIP3    H156873   1.180   6.327  14.405  0.2804 -0.5379 -1.7337
11794TIP3    H256874   1.126   6.205  14.477  2.8708  0.3178  1.9828
11795TIP3   OH256875   0.329   0.217   5.577  0.2729  0.4718  0.3134
11795TIP3    H156876   0.385   0.232   5.653 -2.7463  1.0997  2.5884
11795TIP3    H256877   0.336   0.123   5.561 -0.5385 -0.0597  2.7078
11796TIP3   OH256878   4.172   4.853   1.196 -0.2550  0.3803  0.2970
11796TIP3    H156879   4.239   4.825   1.133 -2.5658 -1.2532 -1.6259
11796TIP3    H256880   4.181   4.948   1.199  1.7474  0.2658 -0.3338
11797TIP3   OH256881   3.632   2.835   6.097 -0.8179  0.6354  0.2920
11797TIP3    H156882   3.562   2.785   6.139 -1.6100  1.6103  0.1888
11797TIP3    H256883   3.711   2.812   6.144 -1.4808  0.7287  1.4833
11798TIP3   OH256884   3.617   0.017  17.282 -0.1899 -0.2871 -0.7382
11798TIP3    H156885   3.567   0.099  17.271  0.1729  0.2199  1.0462
11798TIP3    H256886   3.690   0.026  17.221  0.0479  0.8992 -0.3182
11799TIP3   OH256887   1.781   3.589   0.776 -0.2121  0.4724 -0.2307
11799TIP3    H156888   1.857   3.623   0.730 -0.1352 -0.3224 -0.6978
11799TIP3    H256889   1.776   3.642   0.856  1.7257 -0.4529  0.5568
11800TIP3   OH256890   3.611   1.968   1.021 -0.6188  0.1060  0.0110
11800TIP3    H156891   3.615   2.062   1.002 -0.1349  0.2788  0.9352
11800TIP3    H256892   3.690   1.950   1.072  0.5465 -1.3030 -2.1720
11801TIP3   OH256893   4.052   2.807  12.883  0.9481  0.8519 -0.5639
11801TIP3    H156894   4.032   2.795  12.790 -2.3950  0.8806  0.0203
11801TIP3    H256895   4.023   2.896  12.902  1.3592  0.7585  0.5837
11802TIP3   OH256896   4.554   3.240   6.284  0.9750  0.5248 -0.5087
11802TIP3    H156897   4.540   3.179   6.212 -1.4381  0.1768  0.1730
11802TIP3    H256898   4.570   3.184   6.360 -1.5419  0.6359  0.1798
11803TIP3   OH256899   4.017   4.952  14.496  0.7557  0.4250  0.1003
11803TIP3    H156900   4.066   4.881  14.456 -2.2211 -1.4772 -0.4468
11803TIP3    H256901   3.978   4.914  14.575 -1.5165  1.1306 -0.5921
11804TIP3   OH256902   5.667   6.247   2.538 -0.2341  0.2022 -0.3071
11804TIP3    H156903   5.623   6.332   2.535  0.3065  0.5003  0.0353
11804TIP3    H256904   5.608   6.188   2.491 -1.2237  0.4882  0.5240
11805TIP3   OH256905   2.577   2.344   0.215  0.8891 -0.2875 -0.1136
11805TIP3    H156906   2.621   2.429   0.205 -1.2866  0.9373  0.1447
11805TIP3    H256907   2.517   2.340   0.141  0.7598 -1.5042  0.0431
11806TIP3   OH256908   1.219   5.870   2.926  0.2664 -0.0035  0.0754
11806TIP3    H156909   1.141   5.908   2.884  0.7731  0.0571 -0.8451
11806TIP3    H256910   1.197   5.867   3.019 -1.2121 -0.9043 -0.2768
11807TIP3   OH256911   2.638   6.467  12.523  0.4847  0.5607 -0.3851
11807TIP3    H156912   2.631   6.406  12.596  0.3288 -1.1559 -1.7808
11807TIP3    H256913   2.730   6.461  12.495 -0.0834 -1.0032 -2.1022
11808TIP3   OH256914   4.099   2.677   0.550 -0.3900  0.2520 -0.0137
11808TIP3    H156915   4.169   2.628   0.595  0.0995 -0.3385 -1.3708
11808TIP3    H256916   4.033   2.692   0.618  1.0942  0.9336  1.3526
11809TIP3   OH256917   0.519   4.863   5.762 -0.3180 -0.6429  0.0105
11809TIP3    H156918   0.459   4.852   5.688  0.5129 -0.6501 -0.6865
11809TIP3    H256919   0.580   4.931   5.733  0.9658 -1.7294  0.0475
11810TIP3   OH256920   4.628   3.286  14.490 -0.7178  0.2854 -0.3474
11810TIP3    H156921   4.658   3.234  14.565 -2.5649  0.6541  0.7040
11810TIP3    H256922   4.707   3.329  14.458  0.3185 -0.8110  0.6483
11811TIP3   OH256923   2.057   2.393  14.966 -0.1188 -0.9681 -0.3159
11811TIP3    H156924   2.112   2.338  15.022 -1.8116 -2.5002 -0.0611
11811TIP3    H256925   2.030   2.466  15.022  1.2930 -0.3961 -0.3349
11812TIP3   OH256926   4.682   6.327  15.154 -0.5704  0.1644 -0.2240
11812TIP3    H156927   4.768   6.316  15.194  0.4347  0.4609 -2.1530
11812TIP3    H256928   4.669   6.247  15.103 -2.0441 -0.4319  1.0042
11813TIP3   OH256929   4.485   4.164  12.014 -0.4921  0.2822  0.2227
11813TIP3    H156930   4.390   4.172  12.012 -0.6411 -1.3241 -1.0642
11813TIP3    H256931   4.502   4.070  12.016  1.0750  0.5085 -0.5491
11814TIP3   OH256932   1.595   1.179  15.074  0.4335  0.4347 -0.5229
11814TIP3    H156933   1.526   1.118  15.101  2.5483 -1.0245  2.0378
11814TIP3    H256934   1.550   1.263  15.065 -1.6559 -0.4122  1.1910
11815TIP3   OH256935   2.668   2.620   0.161 -0.0006  0.1455  0.4610
11815TIP3    H156936   2.659   2.708   0.197 -0.7293  0.7892 -1.1939
11815TIP3    H256937   2.735   2.629   0.093  0.6142 -0.8083  0.9210
11816TIP3   OH256938   0.631   6.212  12.450  0.9907 -0.2013  0.0028
11816TIP3    H156939   0.562   6.147  12.435  4.0519 -3.8476  0.1199
11816TIP3    H256940   0.625   6.232  12.543  0.2173 -0.6299  0.0548
11817TIP3   OH256941   1.521   0.189  14.949  0.3940  0.3950  0.1271
11817TIP3    H156942   1.611   0.162  14.928  0.2420 -0.4898  0.5799
11817TIP3    H256943   1.468   0.151  14.878  0.1621 -0.6593  0.8420
11818TIP3   OH256944   0.716   5.128   6.771  0.0484  0.6402 -0.0609
11818TIP3    H156945   0.757   5.214   6.758  1.7804 -0.1167  0.0864
11818TIP3    H256946   0.622   5.144   6.760  0.2682  2.6596  0.5561
11819TIP3   OH256947   3.166   0.249   0.679  0.6241  0.3787  0.7654
11819TIP3    H156948   3.084   0.288   0.648 -0.3955 -2.4724 -0.4694
11819TIP3    H256949   3.139   0.189   0.748  1.3676 -1.7022 -0.6477
11820TIP3   OH256950   6.369   1.240  10.763 -0.3989 -0.1328  0.0816
11820TIP3    H156951   6.291   1.207  10.807 -0.2184  2.1711  2.3262
11820TIP3    H256952   6.357   1.334  10.760  2.1399  0.2627  0.2060
11821TIP3   OH256953   3.308   4.900  12.068  0.0790  0.2775  0.2674
11821TIP3    H156954   3.377   4.890  12.003  0.0758  2.3043 -0.1015
11821TIP3    H256955   3.227   4.895  12.018  0.0377  0.4813  0.3136
11822TIP3   OH256956   2.746   5.966   4.912 -0.5475  0.0439  0.0836
11822TIP3    H156957   2.749   5.871   4.901  0.0123 -0.1875  1.9153
11822TIP3    H256958   2.824   5.998   4.868  0.9082 -0.6848  1.9993
11823TIP3   OH256959   3.798   3.332  12.896 -0.0029 -0.0778 -0.3351
11823TIP3    H156960   3.727   3.284  12.853  0.4597 -1.4574  0.3754
11823TIP3    H256961   3.878   3.288  12.868  0.3364 -0.7889  1.6040
11824TIP3   OH256962   1.615   5.575   3.155 -0.1187  0.8380  0.1343
11824TIP3    H156963   1.569   5.656   3.178  0.2399  1.4667 -1.2257
11824TIP3    H256964   1.564   5.539   3.082  0.6664  0.7396 -0.3777
11825TIP3   OH256965   3.118   4.373   4.962  0.3112 -0.4596 -0.7723
11825TIP3    H156966   3.168   4.424   4.898  0.8234  0.8546  0.6104
11825TIP3    H256967   3.033   4.358   4.921  0.7793 -0.0404 -1.9208
11826TIP3   OH256968   4.700   2.113  12.616  0.3714 -0.1892 -0.0781
11826TIP3    H156969   4.666   2.196  12.581 -0.9997 -1.0134 -0.7537
11826TIP3    H256970   4.763   2.140  12.683  0.2160  1.4007 -0.5278
11827TIP3   OH256971   0.768   1.097  12.989  0.0763  0.0241  0.5719
11827TIP3    H156972   0.828   1.118  12.917  1.3807  0.1574  1.6505
11827TIP3    H256973   0.717   1.177  13.001 -1.3517 -0.5391 -1.2592
11828TIP3   OH256974   2.068   2.000   0.319  0.5163 -0.1108  0.0160
11828TIP3    H156975   1.976   2.024   0.312 -0.3702 -3.2437 -0.5247
11828TIP3    H256976   2.098   1.995   0.228  1.1146  0.3606  0.1747
11829TIP3   OH256977   6.813   4.255   0.221 -0.1072  0.2215  0.3124
11829TIP3    H156978   6.873   4.188   0.189 -0.1548  1.0723 -1.7192
11829TIP3    H256979   6.859   4.294   0.296  1.1001 -0.2924 -0.1398
11830TIP3   OH256980   4.766   4.594  14.861 -0.3329  0.1985 -0.4838
11830TIP3    H156981   4.794   4.529  14.797 -0.4035 -0.3916  0.0814
11830TIP3    H256982   4.845   4.617  14.909 -0.5953 -0.6362  0.3604
11831TIP3   OH256983   0.573   4.776   4.473  0.0565  0.0425  0.1517
11831TIP3    H156984   0.667   4.793   4.481  0.0528 -0.1378  0.6349
11831TIP3    H256985   0.564   4.730   4.389  0.3000  0.7377 -0.2605
11832TIP3   OH256986   1.079   1.568   6.322  0.5052 -0.1989  0.0597
11832TIP3    H156987   1.003   1.615   6.355  0.0403 -1.6918  1.2606
11832TIP3    H256988   1.152   1.629   6.333 -0.2922  0.7269  0.2541
11833TIP3   OH256989   4.829   4.675   5.241 -0.3877 -0.3903 -0.3562
11833TIP3    H156990   4.878   4.614   5.186  2.2379  1.3867 -0.1846
11833TIP3    H256991   4.840   4.760   5.198 -1.3400  0.4558  0.9955
11834TIP3   OH256992   6.662   3.887   4.704  0.3005 -0.2291 -0.3415
11834TIP3    H156993   6.659   3.791   4.706 -0.0042 -0.2007  1.1112
11834TIP3    H256994   6.751   3.908   4.733 -0.5076 -0.0418  2.2161
11835TIP3   OH256995   4.811   3.289  17.060 -0.2031 -0.4637  0.6265
11835TIP3    H156996   4.863   3.224  17.012  1.2191 -0.1030  1.6100
11835TIP3    H256997   4.753   3.237  17.116  0.5272 -0.8936  0.9937
11836TIP3   OH256998   2.629   3.313   5.868 -0.1634 -0.1611  0.3005
11836TIP3    H156999   2.584   3.363   5.936 -0.1823  2.6763 -1.6500
11836TIP3    H257000   2.559   3.277   5.814 -0.2532  2.0417 -1.1886
11837TIP3   OH257001   6.310   2.238  13.617 -0.9267  0.0992 -0.0965
11837TIP3    H157002   6.404   2.252  13.614 -0.8183 -0.6285 -0.3414
11837TIP3    H257003   6.272   2.322  13.591 -0.3083 -0.2515 -2.2954
11838TIP3   OH257004   2.256   0.283  16.126  0.7840  0.0951 -0.0994
11838TIP3    H157005   2.287   0.328  16.204  0.0042  1.7382 -0.6947
11838TIP3    H257006   2.164   0.266  16.143  1.2681 -2.2577  0.5213
11839TIP3   OH257007   1.826   1.536   0.757 -0.4974  0.1120 -0.2124
11839TIP3    H157008   1.889   1.515   0.827 -0.6009 -0.8445 -0.3932
11839TIP3    H257009   1.780   1.614   0.789 -1.0465 -0.7282  1.1390
11840TIP3   OH257010   5.754   0.412  11.495  0.3520  0.0989 -0.0161
11840TIP3    H157011   5.706   0.420  11.578 -1.1830 -0.4122 -0.8101
11840TIP3    H257012   5.816   0.484  11.496  1.1352 -0.5328  2.0571
11841TIP3   OH257013   3.395   1.755  13.754 -0.1070  0.0938 -0.2713
11841TIP3    H157014   3.428   1.682  13.806  1.0202  2.5294  2.7102
11841TIP3    H257015   3.472   1.793  13.712 -0.0190  1.8098  1.3285
11842TIP3   OH257016   4.626   2.410  16.961  0.2297 -0.1697 -0.1653
11842TIP3    H157017   4.583   2.469  16.899  0.7745 -0.7733 -1.1537
11842TIP3    H257018   4.560   2.391  17.026 -0.9553 -0.9329 -1.5399
11843TIP3   OH257019   3.812   4.252   2.736  0.2015  0.5296  0.5182
11843TIP3    H157020   3.728   4.207   2.745  0.7594 -0.5524  0.4973
11843TIP3    H257021   3.820   4.303   2.816 -0.1484  0.0795  0.8486
11844TIP3   OH257022   4.841   0.266  13.982  0.4497  0.4147 -0.3509
11844TIP3    H157023   4.794   0.217  14.050 -0.7099 -0.6049 -1.8132
11844TIP3    H257024   4.795   0.350  13.978 -0.5707 -0.1452 -0.9737
11845TIP3   OH257025   5.102   2.066  15.616 -0.2583  0.4778  0.0336
11845TIP3    H157026   5.144   2.074  15.702  0.5868  3.3746 -0.5240
11845TIP3    H257027   5.067   2.154  15.599 -0.5949 -0.0790 -2.4856
11846TIP3   OH257028   0.232   1.622   1.389  0.0493 -0.1687 -0.1790
11846TIP3    H157029   0.300   1.672   1.343 -0.4824  0.9582  0.2238
11846TIP3    H257030   0.172   1.592   1.320  0.6350 -0.6951 -0.4744
11847TIP3   OH257031   3.485   4.940  14.037 -0.3002 -0.5361  0.0039
11847TIP3    H157032   3.555   4.876  14.027 -0.9636 -1.0454 -1.6348
11847TIP3    H257033   3.455   4.928  14.127  1.0045 -1.0182  0.4098
11848TIP3   OH257034   5.418   6.531  10.655 -0.1889 -0.4104 -0.1689
11848TIP3    H157035   5.404   6.509  10.747  0.9370 -1.0750 -0.1306
11848TIP3    H257036   5.331   6.535  10.618 -0.5983 -2.3344  0.4452
11849TIP3   OH257037   6.137   6.695   3.687  0.0584  0.2932 -0.3902
11849TIP3    H157038   6.175   6.782   3.696 -1.0875  0.6891  0.9746
11849TIP3    H257039   6.085   6.699   3.607  0.9637  0.4656 -0.9849
11850TIP3   OH257040   6.532   4.474   4.403  0.2507  0.6081  0.6310
11850TIP3    H157041   6.510   4.459   4.310  0.0560 -0.3305  0.8164
11850TIP3    H257042   6.619   4.513   4.401  1.0752 -1.1354  0.1037
11851TIP3   OH257043   1.824   3.424  14.778  0.1442 -0.1920 -0.4745
11851TIP3    H157044   1.780   3.493  14.728  1.7366 -1.3724 -3.8669
11851TIP3    H257045   1.888   3.471  14.832  0.3966  1.1083 -1.8258
11852TIP3   OH257046   5.158   0.657  13.949 -0.2413  0.3131  0.4123
11852TIP3    H157047   5.232   0.694  13.996  0.1970  0.7453 -0.5964
11852TIP3    H257048   5.196   0.590  13.892 -0.4135  1.5265 -1.1698
11853TIP3   OH257049   5.733   3.157   1.312  0.1266  0.0614 -0.1743
11853TIP3    H157050   5.806   3.134   1.369  0.0901 -0.8664 -0.4890
11853TIP3    H257051   5.753   3.116   1.228 -0.5388  0.1689 -0.3968
11854TIP3   OH257052   5.112   0.905   2.327 -0.4955  0.1457 -0.0029
11854TIP3    H157053   5.080   0.976   2.271 -0.7192 -0.2339 -0.3563
11854TIP3    H257054   5.038   0.846   2.336  0.3846 -1.3196 -1.7283
11855TIP3   OH257055   3.565   3.170  16.490 -0.2071  0.1047  0.0138
11855TIP3    H157056   3.625   3.130  16.553 -0.7555 -0.6423  0.0836
11855TIP3    H257057   3.569   3.113  16.413 -0.1167  0.5817 -0.3365
11856TIP3   OH257058   0.222   0.491  15.140  0.0736 -0.0781 -0.2150
11856TIP3    H157059   0.155   0.479  15.074 -0.7114 -0.1036  0.5761
11856TIP3    H257060   0.262   0.575  15.118 -1.2505  0.6838  0.2018
11857TIP3   OH257061   3.429   6.744   4.524 -0.1119 -0.2488 -0.0395
11857TIP3    H157062   3.367   6.711   4.460 -1.9259  1.3400  0.7953
11857TIP3    H257063   3.511   6.700   4.503 -0.8569 -0.4975 -2.8146
11858TIP3   OH257064   4.334   5.350   4.401  0.8343  0.1935 -0.5562
11858TIP3    H157065   4.260   5.378   4.456 -1.5334 -1.4323 -2.7015
11858TIP3    H257066   4.315   5.259   4.380  2.1915  0.4419 -3.2233
11859TIP3   OH257067   5.690   1.363  14.125 -0.0190  0.2330 -0.7746
11859TIP3    H157068   5.753   1.297  14.154  1.0540  2.1151  1.5401
11859TIP3    H257069   5.744   1.434  14.092 -1.1432  0.2435 -2.7623
11860TIP3   OH257070   5.952   3.713   4.563  0.1889  0.2823  0.2701
11860TIP3    H157071   5.976   3.771   4.635 -2.2574  1.0115  0.6087
11860TIP3    H257072   5.949   3.626   4.604  2.8557 -0.0187 -0.0020
11861TIP3   OH257073   1.311   6.038   3.906  0.2442 -0.0157  0.0023
11861TIP3    H157074   1.280   6.109   3.850  0.4301  1.1056  1.2902
11861TIP3    H257075   1.396   6.066   3.937  0.7328 -1.2232 -0.1846
11862TIP3   OH257076   6.029   0.762  14.815 -0.3471 -0.1989 -0.2212
11862TIP3    H157077   5.966   0.793  14.879 -0.2732 -1.3027  0.4096
11862TIP3    H257078   6.075   0.840  14.786 -0.6250  0.3553  0.8041
11863TIP3   OH257079   5.403   5.318  11.062 -0.1551 -0.0331  0.2806
11863TIP3    H157080   5.381   5.381  11.131 -0.7856  0.9807 -0.7884
11863TIP3    H257081   5.328   5.259  11.059 -1.3713  1.4919 -1.2219
11864TIP3   OH257082   3.544   0.354   0.913  0.0171  0.5027 -0.6217
11864TIP3    H157083   3.587   0.439   0.903 -1.0258  1.0095 -0.9953
11864TIP3    H257084   3.451   0.376   0.928 -0.1732 -0.5562 -0.1784
11865TIP3   OH257085   3.112   2.486  12.033  0.5164 -0.1063  0.2586
11865TIP3    H157086   3.018   2.501  12.039  0.5208 -0.0377  0.1578
11865TIP3    H257087   3.145   2.557  11.978  0.9247  0.9954  1.8587
11866TIP3   OH257088   4.104   5.682   5.369 -0.4773 -0.3036 -0.0258
11866TIP3    H157089   4.131   5.707   5.458 -0.0435  1.1347 -0.5406
11866TIP3    H257090   4.110   5.586   5.369  0.6241 -0.2718  1.1415
11867TIP3   OH257091   3.702   0.077  11.330  0.5990 -0.6738 -0.2259
11867TIP3    H157092   3.768   0.121  11.384  0.4847 -1.3489  0.4835
11867TIP3    H257093   3.630   0.140  11.323  0.4579 -0.7164  0.7406
11868TIP3   OH257094   2.408   6.420  16.193 -0.3818 -0.1481 -0.3131
11868TIP3    H157095   2.330   6.402  16.246  1.7397 -0.1310  3.0914
11868TIP3    H257096   2.390   6.505  16.153 -1.7195  0.3552  1.2500
11869TIP3   OH257097   5.383   1.116  10.461 -0.2611  0.1387 -0.0806
11869TIP3    H157098   5.379   1.188  10.524  0.9339  0.6740 -0.6019
11869TIP3    H257099   5.292   1.085  10.456 -0.7598  1.4425  0.3379
11870TIP3   OH257100   5.069   5.191  13.865 -0.1762 -0.0996 -0.0434
11870TIP3    H157101   5.012   5.143  13.925  0.7674  0.3561  1.2546
11870TIP3    H257102   5.070   5.138  13.785 -4.4921  1.1320 -1.1796
11871TIP3   OH257103   2.035   3.564   4.218  0.2703  0.1432 -0.1571
11871TIP3    H157104   1.983   3.484   4.221  0.0491  0.2410 -1.2362
11871TIP3    H257105   2.114   3.540   4.169  0.1691  0.6069 -0.5521
11872TIP3   OH257106   4.564   3.815  17.305  0.1195 -0.2296 -0.0206
11872TIP3    H157107   4.593   3.727  17.329 -3.0437 -1.1572  0.9316
11872TIP3    H257108   4.604   3.872  17.370  0.4781 -1.2767  0.7034
11873TIP3   OH257109   4.927   6.279   0.429 -0.7419  0.7387  0.0414
11873TIP3    H157110   4.982   6.357   0.436 -0.2941  0.5552 -1.2471
11873TIP3    H257111   4.846   6.303   0.474  0.3284  1.0263  1.9257
11874TIP3   OH257112   3.102   4.801  14.169  0.6428 -0.4645  0.2506
11874TIP3    H157113   3.013   4.810  14.203  0.3805  2.0629 -0.9092
11874TIP3    H257114   3.138   4.890  14.172  2.7973 -1.2613 -0.2552
11875TIP3   OH257115   2.019   0.520  16.025 -0.0048  0.4804 -0.6063
11875TIP3    H157116   2.025   0.512  16.120 -1.1088  2.2888 -0.3506
11875TIP3    H257117   1.975   0.439  15.997 -1.9790  1.0370  0.7182
11876TIP3   OH257118   5.570   1.497   4.261  0.4188 -0.0513 -0.6447
11876TIP3    H157119   5.543   1.525   4.348  1.2904 -0.2912 -0.2957
11876TIP3    H257120   5.647   1.550   4.241  0.5204 -0.3479 -1.0624
11877TIP3   OH257121   3.297   6.116   4.095 -0.1547  0.0675  0.2261
11877TIP3    H157122   3.270   6.041   4.148  0.5977 -0.4234 -0.0629
11877TIP3    H257123   3.280   6.192   4.150  1.9891 -0.5053  1.8197
11878TIP3   OH257124   0.597   3.342   2.021  0.3882  0.2461 -0.2765
11878TIP3    H157125   0.634   3.430   2.031  0.7267  0.2915 -1.6698
11878TIP3    H257126   0.503   3.358   2.010  0.0899  0.2299  1.8629
11879TIP3   OH257127   0.771   4.729   3.306  0.0260 -0.3570  0.6024
11879TIP3    H157128   0.834   4.711   3.236  0.9093 -0.6700  1.4709
11879TIP3    H257129   0.706   4.785   3.264  0.2774 -0.9270 -0.6048
11880TIP3   OH257130   5.205   6.493  16.730 -0.5160 -0.2647 -0.0785
11880TIP3    H157131   5.155   6.500  16.649 -2.0560  1.4683  0.9698
11880TIP3    H257132   5.141   6.505  16.800  0.9139 -0.8389  1.3933
11881TIP3   OH257133   3.163   3.575  16.811  0.2028 -0.0374  0.6116
11881TIP3    H157134   3.080   3.622  16.821  0.1757 -0.0300  0.3554
11881TIP3    H257135   3.223   3.620  16.871  0.2814  0.5667  0.0851
11882TIP3   OH257136   5.790   4.325  15.878  0.3725 -0.3138 -0.3494
11882TIP3    H157137   5.810   4.232  15.893  0.6652 -0.3935 -1.2032
11882TIP3    H257138   5.820   4.369  15.958  0.0816 -0.9739  0.1252
11883TIP3   OH257139   2.848   3.694   2.335  0.2365  0.2093  0.7903
11883TIP3    H157140   2.775   3.739   2.293  0.9638  1.0060  0.3392
11883TIP3    H257141   2.882   3.635   2.268  0.7093  0.6756  0.6126
11884TIP3   OH257142   0.391   5.292   0.388 -0.0893  0.0631  0.4144
11884TIP3    H157143   0.442   5.371   0.369 -0.2856  0.0416 -0.2323
11884TIP3    H257144   0.316   5.297   0.328 -0.0766 -0.6386  0.3317
11885TIP3   OH257145   5.453   4.698   6.011 -0.2770  0.5403  0.0912
11885TIP3    H157146   5.542   4.673   6.035 -0.7312 -1.1628  0.1590
11885TIP3    H257147   5.429   4.636   5.942 -1.5545  0.7003  0.3653
11886TIP3   OH257148   6.153   4.454  16.345  0.0406  0.6227  0.1286
11886TIP3    H157149   6.143   4.516  16.417  0.5361  0.6995  0.1300
11886TIP3    H257150   6.242   4.466  16.315 -0.1636  0.5795 -0.4929
11887TIP3   OH257151   3.379   3.095  16.828  0.0620  0.2049 -0.2080
11887TIP3    H157152   3.409   3.166  16.885 -0.0531  0.1218 -0.0442
11887TIP3    H257153   3.419   3.114  16.743  2.1841 -0.9440  0.4586
11888TIP3   OH257154   0.395   1.224   4.112 -0.1052 -0.8682  0.1760
11888TIP3    H157155   0.423   1.269   4.192  0.5184  0.4893 -0.7503
11888TIP3    H257156   0.368   1.137   4.141 -0.0499 -0.3596  1.8721
11889TIP3   OH257157   6.188   2.322   3.703  0.2399 -0.5615  0.5640
11889TIP3    H157158   6.214   2.230   3.700  1.8646 -0.2339  2.3678
11889TIP3    H257159   6.262   2.369   3.663  0.8869  0.1330  2.4517
11890TIP3   OH257160   0.109   3.343   1.234  0.5984  0.4960 -0.0796
11890TIP3    H157161   0.029   3.292   1.227 -0.3942  1.6410  1.8987
11890TIP3    H257162   0.160   3.320   1.157 -0.5143 -2.1583 -0.1186
11891TIP3   OH257163   0.036   4.887  14.320 -0.3292 -0.4098  0.4725
11891TIP3    H157164  -0.028   4.904  14.251 -1.6677  0.0161  1.7644
11891TIP3    H257165   0.059   4.794  14.309  0.6596  0.0122 -1.4500
11892TIP3   OH257166   2.639   5.446  11.270 -0.0296  0.1690  0.5738
11892TIP3    H157167   2.577   5.515  11.292 -0.6308 -0.1877  0.0643
11892TIP3    H257168   2.716   5.465  11.323  0.5057  2.2362 -0.8455
11893TIP3   OH257169   0.229   5.166  14.740  0.4477  0.0941 -0.4623
11893TIP3    H157170   0.180   5.119  14.807  0.9734  0.5639  0.2709
11893TIP3    H257171   0.278   5.233  14.788 -0.1099  1.2548 -1.4517
11894TIP3   OH257172   6.505   1.476  13.289 -0.4844 -0.0066  0.3171
11894TIP3    H157173   6.417   1.441  13.307 -0.5830 -1.0967 -1.9114
11894TIP3    H257174   6.555   1.400  13.260  0.8374  0.8301  0.3482
11895TIP3   OH257175   2.201   4.625  12.455 -0.4328  0.0852  0.4622
11895TIP3    H157176   2.181   4.713  12.422 -2.6089  0.0568  1.5287
11895TIP3    H257177   2.250   4.641  12.536 -1.3771  0.3722  0.9975
11896TIP3   OH257178   6.426   0.756  15.127 -0.0887 -0.4451 -0.5017
11896TIP3    H157179   6.378   0.708  15.059  0.0121  2.3394 -2.7178
11896TIP3    H257180   6.513   0.718  15.126 -0.0100 -0.2812 -2.1790
11897TIP3   OH257181   5.259   2.281   3.056 -0.0762 -0.0951  0.2022
11897TIP3    H157182   5.337   2.324   3.021 -0.6202  1.1963  0.5186
11897TIP3    H257183   5.290   2.235   3.134  1.1714 -3.0856 -1.8716
11898TIP3   OH257184   0.192   4.054   2.091  0.1704  0.5244 -0.0988
11898TIP3    H157185   0.263   4.043   2.155  0.4992  1.2142 -0.3266
11898TIP3    H257186   0.190   4.149   2.075  0.7277  0.2702 -1.8080
11899TIP3   OH257187   1.895   0.721   0.384 -0.5716 -0.2912 -0.3888
11899TIP3    H157188   1.829   0.723   0.314  0.0859  1.1357 -1.0142
11899TIP3    H257189   1.976   0.695   0.339 -0.7704 -2.6365  0.4800
11900TIP3   OH257190   5.491   3.493  14.988 -0.0180 -0.1948  0.0110
11900TIP3    H157191   5.577   3.497  15.030 -0.4422 -0.1620  0.9115
11900TIP3    H257192   5.441   3.430  15.041 -0.4636 -0.4196 -0.6625
11901TIP3   OH257193   4.691   6.622  15.686  0.0940 -0.3402  0.4339
11901TIP3    H157194   4.598   6.638  15.671  0.4665  1.0167 -0.6946
11901TIP3    H257195   4.716   6.684  15.754  0.1717 -0.7364  0.7719
11902TIP3   OH257196   4.159   5.292  13.857  0.0446  0.2906  0.2094
11902TIP3    H157197   4.192   5.311  13.945  0.9752  0.3895 -0.1489
11902TIP3    H257198   4.101   5.365  13.837  0.4601  0.6805  0.4238
11903TIP3   OH257199   5.995   5.180   5.621  0.1400 -0.6049 -0.1826
11903TIP3    H157200   6.029   5.248   5.679 -0.1781  0.7334 -1.5053
11903TIP3    H257201   5.918   5.145   5.667 -2.0032  2.5637 -0.9986
11904TIP3   OH257202   2.525   0.426  11.779 -0.0672 -0.9026  0.6584
11904TIP3    H157203   2.524   0.516  11.810 -0.0801 -0.8209  0.4240
11904TIP3    H257204   2.546   0.374  11.856  2.5246 -0.5181  0.3038
11905TIP3   OH257205   4.788   1.721   6.904 -0.6730  0.1700 -0.5514
11905TIP3    H157206   4.813   1.679   6.822 -0.7856  0.9461 -0.9904
11905TIP3    H257207   4.858   1.784   6.922 -1.6864  1.5256 -1.1861
11906TIP3   OH257208   3.692   3.611   6.025 -0.2873 -0.2665  0.5801
11906TIP3    H157209   3.664   3.700   6.047 -1.2663 -0.0846 -1.2025
11906TIP3    H257210   3.742   3.582   6.101  1.9106  2.5760  0.3710
11907TIP3   OH257211   6.490   5.088  13.005  0.2192  0.0583  0.9845
11907TIP3    H157212   6.539   5.028  13.061 -0.5939  0.3432  2.0336
11907TIP3    H257213   6.408   5.043  12.986  1.1168 -0.7411 -1.4019
11908TIP3   OH257214   3.854   0.342   4.540  0.6301 -0.1880  0.1792
11908TIP3    H157215   3.831   0.361   4.449 -2.4237 -0.1405  0.8609
11908TIP3    H257216   3.840   0.248   4.549  0.5355 -0.1254  0.6922
11909TIP3   OH257217   3.550   3.374  16.134  0.2819 -0.0121  0.0275
11909TIP3    H157218   3.477   3.386  16.074 -0.2083 -0.5030  0.5130
11909TIP3    H257219   3.547   3.281  16.158  1.4831 -0.2066 -0.4752
11910TIP3   OH257220   5.293   0.885   2.539 -0.0298 -0.4650 -0.5235
11910TIP3    H157221   5.233   0.891   2.465 -1.6952  0.0268  0.7967
11910TIP3    H257222   5.321   0.975   2.556  0.4751 -0.5958 -0.6574
11911TIP3   OH257223   2.103   6.099  16.271 -0.0910 -0.2329 -0.4193
11911TIP3    H157224   2.094   6.025  16.210  0.9975  0.0287 -0.9354
11911TIP3    H257225   2.013   6.125  16.291 -0.4821 -1.0773 -0.9951
11912TIP3   OH257226   2.683   6.620   3.958  0.1210 -0.3400  0.4146
11912TIP3    H157227   2.589   6.621   3.972  0.0909  0.1268  0.1912
11912TIP3    H257228   2.714   6.542   4.006 -0.4879 -1.0506 -0.3255
11913TIP3   OH257229   6.011   3.051   4.836 -0.5230 -0.8575 -0.0876
11913TIP3    H157230   6.003   2.968   4.882 -1.0574 -1.2571 -0.8752
11913TIP3    H257231   6.095   3.046   4.791  0.5851  0.0316  1.7575
11914TIP3   OH257232   0.831   6.588  16.612  0.6178 -0.1252  0.3698
11914TIP3    H157233   0.745   6.546  16.605  1.9999 -3.4995  1.3632
11914TIP3    H257234   0.842   6.605  16.706  0.3267  2.1448  0.0413
11915TIP3   OH257235   4.366   6.226   1.329  0.4844  0.2153  0.5551
11915TIP3    H157236   4.404   6.189   1.409  1.5360  0.1310  0.0234
11915TIP3    H257237   4.441   6.253   1.277 -0.1527 -0.6624 -0.8680
11916TIP3   OH257238   5.045   6.180   2.886 -0.1473 -0.3349 -0.1717
11916TIP3    H157239   5.085   6.244   2.827 -0.1997 -0.9334 -0.8616
11916TIP3    H257240   4.951   6.187   2.869 -0.0157 -2.3507 -2.1061
11917TIP3   OH257241   1.202   3.466  14.227  0.5076 -0.2653  0.0119
11917TIP3    H157242   1.237   3.552  14.203 -1.0809 -0.0217 -1.6574
11917TIP3    H257243   1.247   3.444  14.308  1.8758  1.5767 -0.1774
11918TIP3   OH257244   1.708   1.050  12.236  0.9032 -0.0986  0.2233
11918TIP3    H157245   1.741   1.125  12.185 -0.2831  0.6568  0.5234
11918TIP3    H257246   1.701   0.979  12.172  0.7376  0.4464 -0.3779
11919TIP3   OH257247   6.053   2.100  12.218 -0.2622 -0.0448  0.1554
11919TIP3    H157248   6.145   2.115  12.239 -0.1672  0.9711 -0.8433
11919TIP3    H257249   6.008   2.178  12.250 -0.5840  0.0213 -0.4327
11920TIP3   OH257250   2.801   1.256   5.294 -0.1069  0.3240  0.2146
11920TIP3    H157251   2.735   1.277   5.360  0.1087  0.3003  0.4387
11920TIP3    H257252   2.875   1.313   5.315  0.6687 -0.9621  1.1176
11921TIP3   OH257253   5.146   6.015   5.425  0.7543  0.5398  0.6168
11921TIP3    H157254   5.102   6.074   5.486 -1.9859 -2.6638  2.0249
11921TIP3    H257255   5.085   6.006   5.352  1.8636  0.6040 -0.3576
11922TIP3   OH257256   0.139   4.976  14.576  0.0449 -0.9233  0.1216
11922TIP3    H157257   0.044   4.965  14.581 -0.1215 -0.8081 -2.0176
11922TIP3    H257258   0.159   5.042  14.643 -1.4060 -0.7502  0.4136
11923TIP3   OH257259   6.479   1.455  14.585 -0.1911  0.3124  0.5282
11923TIP3    H157260   6.496   1.402  14.506 -3.7284 -0.8847  0.3809
11923TIP3    H257261   6.480   1.545  14.554  0.8654  0.0319 -0.3359
11924TIP3   OH257262   5.361   3.066  17.008  0.5894 -0.6386  0.5661
11924TIP3    H157263   5.412   3.135  17.050  0.4570 -0.1597 -0.0549
11924TIP3    H257264   5.360   3.089  16.915 -1.1849 -0.3474  0.6168
11925TIP3   OH257265   6.526   5.947   4.831  0.2425  0.1896 -0.2614
11925TIP3    H157266   6.591   5.971   4.897 -0.5765  0.7573  0.3558
11925TIP3    H257267   6.571   5.883   4.776  1.3508  0.6389  0.0952
11926TIP3   OH257268   6.459   6.813  15.954  0.3281  0.0583 -0.2403
11926TIP3    H157269   6.384   6.827  15.896  0.4173 -0.1838 -0.4145
11926TIP3    H257270   6.420   6.799  16.040  0.0745 -1.5948 -0.5787
11927TIP3   OH257271   2.171   5.089   1.698 -0.0673 -0.0315  0.1280
11927TIP3    H157272   2.198   5.069   1.787  0.6510  0.0182 -0.0763
11927TIP3    H257273   2.181   5.184   1.690  1.4796 -0.2152 -0.5113
11928TIP3   OH257274   3.338   4.033  10.894  0.4097 -1.1146 -0.4900
11928TIP3    H157275   3.419   4.059  10.849  0.2842  0.0569 -0.0722
11928TIP3    H257276   3.303   4.115  10.929 -0.8150 -1.6494 -0.4214
11929TIP3   OH257277   0.841   1.977   1.459  0.9280  0.0409  0.5158
11929TIP3    H157278   0.752   2.012   1.472  0.9261  0.6842 -1.0001
11929TIP3    H257279   0.827   1.893   1.415  1.0645 -0.1515  0.8343
11930TIP3   OH257280   5.820   3.836   0.158  0.0581  0.1159 -0.0999
11930TIP3    H157281   5.789   3.746   0.145 -1.0897  0.4907 -0.0555
11930TIP3    H257282   5.751   3.877   0.211  0.9795  0.7876  0.5964
11931TIP3   OH257283   2.244   2.326   2.477  0.7577 -0.4970  0.3310
11931TIP3    H157284   2.309   2.331   2.407 -0.0810 -3.6640 -0.8402
11931TIP3    H257285   2.283   2.269   2.542  1.0172  1.4415  1.9707
11932TIP3   OH257286   2.369   0.099  10.998 -0.0980 -0.0680  0.1261
11932TIP3    H157287   2.388   0.014  10.958  1.5852  0.1866  0.3369
11932TIP3    H257288   2.281   0.088  11.035 -0.1683 -1.5080 -0.3947
11933TIP3   OH257289   6.137   1.530   1.649  0.2146 -0.5922 -0.5155
11933TIP3    H157290   6.195   1.524   1.573  1.5745 -2.1800  0.5832
11933TIP3    H257291   6.092   1.445   1.652 -1.2602  0.1463 -0.5968
11934TIP3   OH257292   4.139   5.647  16.503  0.0611  0.3883  0.4124
11934TIP3    H157293   4.139   5.723  16.561 -2.3352  0.3925  0.5032
11934TIP3    H257294   4.151   5.572  16.561 -1.1751  0.4771  0.8133
11935TIP3   OH257295   2.294   0.024   3.304  0.3610 -0.1898  0.1738
11935TIP3    H157296   2.219   0.071   3.340  0.1114  0.3366 -0.9623
11935TIP3    H257297   2.342  -0.008   3.380  1.0783  2.7454  1.0505
11936TIP3   OH257298   5.630   1.903  15.757  0.2302 -0.3836 -0.7487
11936TIP3    H157299   5.620   1.892  15.851  0.3931 -1.4602 -0.8354
11936TIP3    H257300   5.580   1.831  15.719 -0.0093  0.1635 -1.4954
11937TIP3   OH257301   0.420   3.981   4.898  0.3931  0.4428 -0.0858
11937TIP3    H157302   0.454   3.968   4.809  0.6385  0.6135 -0.0169
11937TIP3    H257303   0.466   4.059   4.930 -0.5977  1.1184 -0.2581
11938TIP3   OH257304   0.199   6.116   4.900  0.1557  0.3981 -0.3009
11938TIP3    H157305   0.281   6.080   4.932 -0.6250 -0.5348  0.7056
11938TIP3    H257306   0.209   6.211   4.909  0.2226  0.1998  2.0994
11939TIP3   OH257307   3.897   5.308   4.285  0.6767  0.4592 -0.4571
11939TIP3    H157308   3.906   5.219   4.251  1.4156 -0.5577  2.2174
11939TIP3    H257309   3.808   5.334   4.262  0.3407 -1.0775 -0.9844
11940TIP3   OH257310   1.196   5.682   0.934 -0.5413  0.0731  0.2992
11940TIP3    H157311   1.254   5.655   0.863 -0.3622 -1.1261  0.8770
11940TIP3    H257312   1.122   5.621   0.930 -2.1863  1.9824 -0.8657
11941TIP3   OH257313   1.844   6.111   1.254  0.6147 -0.2825  0.6689
11941TIP3    H157314   1.877   6.164   1.327 -0.2618  0.0613  0.8216
11941TIP3    H257315   1.923   6.086   1.206  1.1103  0.4564  1.0708
11942TIP3   OH257316   1.995   4.857   4.614  0.2464  0.3753 -0.2472
11942TIP3    H157317   1.941   4.789   4.573 -1.3424  0.9543  0.8006
11942TIP3    H257318   2.055   4.809   4.671 -2.6703 -0.2059  2.6514
11943TIP3   OH257319   0.637   5.130   5.721 -0.1184  0.4397  1.2502
11943TIP3    H157320   0.674   5.194   5.782  1.2970  0.7579  0.0858
11943TIP3    H257321   0.696   5.131   5.646 -2.2401  0.6197 -0.5032
11944TIP3   OH257322   4.641   1.970  13.237  0.0927  0.1257 -0.4834
11944TIP3    H157323   4.717   1.913  13.228 -0.1209 -0.2236 -0.0821
11944TIP3    H257324   4.572   1.914  13.272 -0.7136  0.1404 -1.9552
11945TIP3   OH257325   0.817   4.249  11.512  0.2306  0.2767  0.6266
11945TIP3    H157326   0.755   4.313  11.547  0.4378  1.1756 -0.6169
11945TIP3    H257327   0.818   4.264  11.418  1.5616 -0.4167  0.4982
11946TIP3   OH257328   5.940   4.767   3.725  0.4619  0.3705  0.2265
11946TIP3    H157329   5.926   4.851   3.683  0.0153  0.1189 -0.1304
11946TIP3    H257330   6.017   4.731   3.681  0.3893  0.3989  0.0755
11947TIP3   OH257331   3.252   2.871  13.564 -0.9300  0.5098 -0.4683
11947TIP3    H157332   3.204   2.934  13.510  0.0717  1.5516 -0.1821
11947TIP3    H257333   3.206   2.872  13.648 -2.0667 -0.5930 -1.0450
11948TIP3   OH257334   5.989   6.519   1.078 -0.1198  0.3275  0.2531
11948TIP3    H157335   6.067   6.572   1.066  1.0454 -0.5177  3.2218
11948TIP3    H257336   6.002   6.443   1.021 -0.1014  1.4474 -1.2812
11949TIP3   OH257337   5.189   1.171  11.130  0.0131 -0.6605  0.8078
11949TIP3    H157338   5.217   1.195  11.042  0.3317 -0.9075  0.8410
11949TIP3    H257339   5.174   1.077  11.126 -3.9357 -0.1858 -0.0909
11950TIP3   OH257340   3.134   3.692  13.535 -0.1806  1.1430  0.0410
11950TIP3    H157341   3.174   3.762  13.484  0.6191 -0.6580 -1.9270
11950TIP3    H257342   3.067   3.656  13.478  0.6215 -0.8383  0.2726
11951TIP3   OH257343   2.714   0.260  11.971 -0.2604 -0.7472 -0.1263
11951TIP3    H157344   2.780   0.323  12.001 -0.9134  0.4578 -1.1319
11951TIP3    H257345   2.725   0.185  12.028  1.2165 -0.1117  0.4732
11952TIP3   OH257346   3.741   0.007  10.763 -0.1862  0.5338  0.3324
11952TIP3    H157347   3.752   0.035  10.853 -0.7927  2.0218 -0.0219
11952TIP3    H257348   3.817   0.041  10.717 -1.1419  2.0611 -0.1869
11953TIP3   OH257349   4.173   6.715   0.887 -0.5192  0.2479  0.1630
11953TIP3    H157350   4.204   6.805   0.895 -2.3162  0.9018  0.2166
11953TIP3    H257351   4.084   6.723   0.853 -0.9567 -1.4770  0.7796
11954TIP3   OH257352   4.479   5.729  17.322  0.1158 -0.3763  0.3040
11954TIP3    H157353   4.481   5.649  17.374  1.2446  0.3780  1.4804
11954TIP3    H257354   4.552   5.720  17.261  1.1065  0.3012  1.3442
11955TIP3   OH257355   5.629   1.829  11.862  0.1107  0.0414 -0.2783
11955TIP3    H157356   5.585   1.858  11.942  1.5963 -0.2746  0.6998
11955TIP3    H257357   5.646   1.909  11.813  1.1707  0.5242  0.8102
11956TIP3   OH257358   2.994   5.212  11.636  0.3265  0.6695  0.2623
11956TIP3    H157359   3.048   5.190  11.561  1.9291  0.1675  1.5099
11956TIP3    H257360   2.906   5.181  11.613  0.3776  2.0267 -2.0572
11957TIP3   OH257361   4.353   2.712   5.542 -0.6245 -0.1405  0.0453
11957TIP3    H157362   4.378   2.791   5.590 -0.5956  0.1499 -0.4526
11957TIP3    H257363   4.338   2.741   5.452  0.9310 -0.9740 -0.5074
11958TIP3   OH257364   4.565   0.533  11.496 -0.6130 -0.3209 -0.0407
11958TIP3    H157365   4.512   0.602  11.535 -0.8771 -0.0938 -0.7885
11958TIP3    H257366   4.562   0.551  11.402  0.3571 -0.6076 -0.1352
11959TIP3   OH257367   3.329   1.248   3.334 -0.2194 -0.0287  0.5621
11959TIP3    H157368   3.253   1.201   3.302 -0.9438  0.5097  1.4478
11959TIP3    H257369   3.378   1.183   3.385 -0.4830 -0.1888  0.6135
11960TIP3   OH257370   4.778   3.709   2.741  0.3164  0.2373 -0.0962
11960TIP3    H157371   4.696   3.668   2.769  1.3355 -0.3860  2.2151
11960TIP3    H257372   4.775   3.706   2.646 -1.4259 -1.6573 -0.0516
11961TIP3   OH257373   6.459   0.483   3.390  0.7055  0.3528 -0.1275
11961TIP3    H157374   6.447   0.403   3.339 -0.4976 -0.2429  1.0265
11961TIP3    H257375   6.488   0.453   3.476 -1.6750  0.9365  0.9704
11962TIP3   OH257376   1.799   1.549   4.814  0.4999 -0.1579 -0.3577
11962TIP3    H157377   1.735   1.610   4.780 -0.1567  0.5477  1.9432
11962TIP3    H257378   1.800   1.477   4.751 -0.5818  1.0340 -1.7986
11963TIP3   OH257379   5.914   6.542  13.704 -0.5436 -0.1359  0.7130
11963TIP3    H157380   5.911   6.534  13.609  0.6299 -0.1534  0.6606
11963TIP3    H257381   5.977   6.612  13.720  1.0379 -1.6684  1.5036
11964TIP3   OH257382   2.196   5.199  12.521  0.5029 -0.2937  0.1378
11964TIP3    H157383   2.136   5.154  12.462  2.3679 -2.0795 -0.5140
11964TIP3    H257384   2.198   5.289  12.489 -0.6691 -0.5459 -0.7120
11965TIP3   OH257385   3.711   3.844   5.146 -0.4475 -0.3945 -0.8656
11965TIP3    H157386   3.714   3.932   5.182  2.0369 -0.0803 -1.6666
11965TIP3    H257387   3.714   3.787   5.223 -3.0846  0.1197 -0.2847
11966TIP3   OH257388   2.749   0.646  14.157 -0.5405  0.0419  0.3183
11966TIP3    H157389   2.743   0.556  14.189  1.1234 -0.2385 -0.0171
11966TIP3    H257390   2.809   0.640  14.082  0.7925  1.6139  1.1907
11967TIP3   OH257391   0.154   4.776   4.624 -0.3628  0.5663 -0.0887
11967TIP3    H157392   0.124   4.778   4.714  1.2811  1.2145  0.4915
11967TIP3    H257393   0.080   4.807   4.572 -0.9444  1.2768  1.1475
11968TIP3   OH257394   2.518   6.818  15.278 -0.5352  0.2368 -0.7503
11968TIP3    H157395   2.526   6.901  15.232 -0.4603  0.1372 -0.9186
11968TIP3    H257396   2.519   6.752  15.209  0.0990  0.0500 -0.5712
11969TIP3   OH257397   4.005   0.719   1.731  0.1421  0.0601  0.0501
11969TIP3    H157398   4.025   0.812   1.736 -1.1195  0.2853  1.4672
11969TIP3    H257399   3.935   0.712   1.666  0.4718  0.0391 -0.3093
11970TIP3   OH257400   6.287   1.163  16.432 -0.7057  0.5283 -0.1485
11970TIP3    H157401   6.351   1.095  16.411 -1.4427  0.0464 -0.9030
11970TIP3    H257402   6.237   1.175  16.351  0.6845  3.4255 -0.7381
11971TIP3   OH257403   3.442   6.820  16.520 -0.3392 -0.1923  0.4799
11971TIP3    H157404   3.383   6.806  16.445  0.3001  1.2700 -0.3468
11971TIP3    H257405   3.439   6.738  16.569 -4.2599  0.2778  1.3623
11972TIP3   OH257406   5.683   1.500  16.098 -0.1747 -0.6734  0.2634
11972TIP3    H157407   5.655   1.464  16.182 -1.0245  2.2644  1.3625
11972TIP3    H257408   5.749   1.565  16.121 -0.0508 -0.1701 -1.4059
11973TIP3   OH257409   1.340   0.544  12.689  0.4395 -0.4433 -0.7009
11973TIP3    H157410   1.325   0.466  12.742  0.4420 -0.8751 -1.3177
11973TIP3    H257411   1.255   0.588  12.686  0.4161 -0.4707 -0.4241
11974TIP3   OH257412   1.232   0.404  15.147 -0.3123 -0.4844  0.2774
11974TIP3    H157413   1.162   0.406  15.213  0.3627 -0.5692  1.0079
11974TIP3    H257414   1.305   0.450  15.188  0.4874 -1.4894  0.0253
11975TIP3   OH257415   2.393   0.447   2.803  0.1193  0.1139 -0.0961
11975TIP3    H157416   2.371   0.442   2.710  1.9302  2.4544 -0.7694
11975TIP3    H257417   2.448   0.370   2.819 -2.2406 -1.6967 -0.2398
11976TIP3   OH257418   4.895   3.286   2.987 -0.3315 -0.6971 -0.1207
11976TIP3    H157419   4.826   3.234   2.946 -2.2020  1.8590 -0.4257
11976TIP3    H257420   4.869   3.293   3.079 -0.3471  0.0952 -0.1831
11977TIP3   OH257421   5.654   1.660   2.287 -0.0517 -0.2287 -0.2728
11977TIP3    H157422   5.595   1.735   2.295 -1.1984 -1.1830  0.5450
11977TIP3    H257423   5.603   1.593   2.242  2.0525  0.5219 -4.2983
11978TIP3   OH257424   1.120   3.846  15.780  0.0961 -0.4783 -0.0195
11978TIP3    H157425   1.158   3.922  15.736  1.3230 -0.6341  0.7314
11978TIP3    H257426   1.039   3.879  15.819  0.0288  0.1514 -0.6661
11979TIP3   OH257427   3.420   6.284   2.280 -0.4465 -0.2749 -0.4590
11979TIP3    H157428   3.491   6.331   2.237  0.7788 -0.0299  1.7367
11979TIP3    H257429   3.463   6.214   2.328 -1.6107  0.2117  1.3752
11980TIP3   OH257430   5.502   6.540   0.152  0.3267 -0.2548 -0.4885
11980TIP3    H157431   5.552   6.519   0.073  0.8372  0.8241 -0.4771
11980TIP3    H257432   5.568   6.560   0.218 -0.1054  0.2620 -0.2023
11981TIP3   OH257433   0.673   1.271   6.303 -0.0792  0.5268 -0.1534
11981TIP3    H157434   0.631   1.186   6.293  0.4314 -0.3063  3.2924
11981TIP3    H257435   0.608   1.334   6.274 -0.3021 -0.9481 -3.2583
11982TIP3   OH257436   0.606   1.758   1.689 -0.5985  0.3511 -0.0904
11982TIP3    H157437   0.599   1.662   1.689 -0.9739  0.3714 -0.6856
11982TIP3    H257438   0.520   1.788   1.657 -0.5491  0.8914  0.2762
11983TIP3   OH257439   4.918   0.285  14.261 -0.4941  0.0217 -0.1040
11983TIP3    H157440   4.839   0.250  14.219  0.1333 -0.8484 -0.6055
11983TIP3    H257441   4.925   0.375  14.228 -0.9067 -0.1181 -0.5801
11984TIP3   OH257442   2.847   4.069  14.265 -0.0977  0.0643  0.3256
11984TIP3    H157443   2.792   4.148  14.271  1.5795  1.4030 -0.8739
11984TIP3    H257444   2.931   4.096  14.301  1.6230 -0.0045 -3.1981
11985TIP3   OH257445   5.617   0.778   4.951 -0.5012  0.5493 -0.3095
11985TIP3    H157446   5.527   0.749   4.943 -0.6215  0.5156  1.0521
11985TIP3    H257447   5.612   0.862   4.997  0.1939  0.3122  0.2064
11986TIP3   OH257448   6.636   5.052  12.555  0.6670 -0.5743 -0.0816
11986TIP3    H157449   6.541   5.057  12.565  0.5362 -2.1926 -0.3164
11986TIP3    H257450   6.670   5.067  12.643  0.3187  1.6285 -0.2489
11987TIP3   OH257451   0.997   2.476  14.290 -0.0380 -0.2841 -0.4881
11987TIP3    H157452   0.917   2.486  14.341  0.3735  1.7115 -0.1471
11987TIP3    H257453   1.000   2.554  14.234  1.1404 -0.8467 -1.2459
11988TIP3   OH257454   0.151   5.685  13.255 -0.3629 -0.6123 -0.5227
11988TIP3    H157455   0.214   5.616  13.232 -0.4336 -0.2825 -1.8210
11988TIP3    H257456   0.126   5.667  13.345  0.4536 -1.6363 -0.4895
11989TIP3   OH257457   2.240   3.155  14.303 -0.0256  0.1875  0.2660
11989TIP3    H157458   2.238   3.150  14.399  0.1899  1.2829  0.3484
11989TIP3    H257459   2.318   3.208  14.284  0.7911 -1.2574 -0.5946
11990TIP3   OH257460   5.013   1.495   6.005 -0.1411 -0.8377  0.6612
11990TIP3    H157461   5.065   1.542   6.070 -0.4052 -0.5678  0.6788
11990TIP3    H257462   5.041   1.531   5.921  1.0392 -1.9927  0.5241
11991TIP3   OH257463   2.967   3.545  14.174 -0.2664 -0.0043  0.2950
11991TIP3    H157464   2.967   3.451  14.188  1.2118 -0.3548 -1.7253
11991TIP3    H257465   2.953   3.556  14.080  0.5755  1.7523  0.3291
11992TIP3   OH257466   5.723   2.367   3.297 -0.7767 -0.0350  0.6670
11992TIP3    H157467   5.741   2.319   3.378 -1.9423  0.3635  1.1806
11992TIP3    H257468   5.809   2.396   3.267 -0.3322 -0.1741  1.7650
11993TIP3   OH257469   3.194   4.810   4.620 -1.0785 -0.1040  0.3921
11993TIP3    H157470   3.133   4.826   4.692 -2.0875 -0.4603 -0.3597
11993TIP3    H257471   3.151   4.847   4.543 -0.0550  0.1957 -0.0476
11994TIP3   OH257472   6.391   3.121  11.557  0.1900 -0.3545 -0.4811
11994TIP3    H157473   6.402   3.198  11.501  1.7189  0.1784  0.4930
11994TIP3    H257474   6.402   3.154  11.646  0.0314 -1.5587  0.0027
11995TIP3   OH257475   5.551   3.474  13.265 -0.1350  0.2437  0.6242
11995TIP3    H157476   5.549   3.397  13.322  1.5777 -0.0753  0.3226
11995TIP3    H257477   5.573   3.440  13.179  2.8645  1.1621  0.8872
11996TIP3   OH257478   3.944   4.151   3.880  0.3547 -0.1896 -0.0926
11996TIP3    H157479   4.003   4.130   3.807 -0.4314  0.9137 -1.0901
11996TIP3    H257480   3.985   4.226   3.923 -0.9477  1.5211 -1.6667
11997TIP3   OH257481   2.035   0.227  12.568 -0.2623 -0.0789  0.2138
11997TIP3    H157482   2.045   0.248  12.475  0.0189 -0.8482  0.0617
11997TIP3    H257483   2.089   0.149  12.581  1.6587  1.3659  1.5522
11998TIP3   OH257484   5.702   5.702  13.684 -0.4337  0.2867 -0.1127
11998TIP3    H157485   5.613   5.733  13.672 -1.1579 -1.7580 -0.3813
11998TIP3    H257486   5.736   5.692  13.595  0.4116  1.8627 -0.0107
11999TIP3   OH257487   5.460   6.131   0.462 -0.2319 -0.4377  0.2956
11999TIP3    H157488   5.542   6.180   0.458 -0.1300 -0.4999  1.3145
11999TIP3    H257489   5.456   6.084   0.379  0.1043  0.6036 -0.3211
12000TIP3   OH257490   1.415   2.270   1.563  0.2104 -0.3898  0.0286
12000TIP3    H157491   1.489   2.276   1.503  1.7169 -0.8418  1.7500
12000TIP3    H257492   1.439   2.327   1.637 -1.0711 -0.6940  0.7108
12001TIP3   OH257493   5.087   1.585  14.030  0.4652 -0.1560 -0.1291
12001TIP3    H157494   5.092   1.656  13.966  0.2291  2.1282  2.2234
12001TIP3    H257495   5.175   1.577  14.064  0.1347  0.2720  0.8631
12002TIP3   OH257496   4.468   4.991   4.175 -0.0614 -0.1719 -0.4204
12002TIP3    H157497   4.541   4.963   4.230 -0.2737  0.0607 -0.0161
12002TIP3    H257498   4.503   5.064   4.124 -0.2337  0.4643  0.3528
12003TIP3   OH257499   0.149   0.901   5.104  0.4213 -0.2200  0.1725
12003TIP3    H157500   0.193   0.830   5.058 -0.1719 -0.3853 -0.1511
12003TIP3    H257501   0.166   0.884   5.196 -0.4699 -1.3046  0.1564
12004TIP3   OH257502   1.776   4.330  11.069  0.2461 -0.2633 -0.2973
12004TIP3    H157503   1.691   4.326  11.024  0.4211  0.2940 -0.6848
12004TIP3    H257504   1.836   4.284  11.010  0.4116  0.1936 -0.4875
12005TIP3   OH257505   0.295   1.913  12.234 -0.0350 -0.2294 -0.4133
12005TIP3    H157506   0.331   1.986  12.184  0.2329  0.0726  0.2093
12005TIP3    H257507   0.295   1.943  12.325 -1.0625 -0.5517 -0.2941
12006TIP3   OH257508   2.555   1.489   0.435  0.2754  0.5416 -0.3479
12006TIP3    H157509   2.543   1.532   0.519  0.6078 -0.2988  0.1455
12006TIP3    H257510   2.640   1.445   0.442  0.1081  0.0964 -0.9522
12007TIP3   OH257511   0.385   2.057   2.199  0.2238 -0.3955 -0.6644
12007TIP3    H157512   0.334   2.029   2.275  2.0698  1.3318  1.3583
12007TIP3    H257513   0.453   1.991   2.190  1.2689  0.4630  0.5965
12008TIP3   OH257514   6.572   1.000  10.975 -0.3244  0.1239 -0.3192
12008TIP3    H157515   6.493   1.040  11.013  0.4867  0.8741  0.6215
12008TIP3    H257516   6.551   0.991  10.882 -0.7010  2.4358 -0.5324
12009TIP3   OH257517   4.882   3.752   2.216  0.3703  0.3921 -0.2593
12009TIP3    H157518   4.951   3.712   2.270  0.2499 -0.8042 -0.9486
12009TIP3    H257519   4.822   3.680   2.197 -0.0489  0.9838 -1.2487
12010TIP3   OH257520   2.178   5.880   0.450 -0.4648  0.3124  0.1034
12010TIP3    H157521   2.201   5.957   0.503 -2.2884  1.4141 -0.6100
12010TIP3    H257522   2.248   5.876   0.384  1.3242 -0.5334  1.9495
12011TIP3   OH257523   4.264   5.694   2.016  0.6435  0.0736  0.3258
12011TIP3    H157524   4.288   5.656   2.101  1.0851 -1.1579 -0.3306
12011TIP3    H257525   4.345   5.737   1.986  0.4620  0.5849  0.5635
12012TIP3   OH257526   0.224   3.961   2.991 -0.2987  0.2173 -0.4558
12012TIP3    H157527   0.197   3.911   2.914 -1.3882 -2.1887  1.3533
12012TIP3    H257528   0.301   3.915   3.024  0.1484  1.2037 -0.0799
12013TIP3   OH257529   6.391   2.000   5.933  0.2968  0.2372 -0.3976
12013TIP3    H157530   6.310   2.027   5.977  0.3665  1.1559 -0.8196
12013TIP3    H257531   6.432   1.940   5.995 -0.6298 -0.1282 -0.1109
12014TIP3   OH257532   0.073   5.650   0.097 -0.5077 -0.0956 -0.2600
12014TIP3    H157533   0.121   5.635   0.015 -2.6976 -2.7645 -1.2344
12014TIP3    H257534   0.120   5.597   0.161 -0.5039 -0.4359 -0.5372
12015TIP3   OH257535   5.786   1.352   5.296 -0.4931  0.1598  0.0995
12015TIP3    H157536   5.827   1.347   5.382 -0.2886 -1.3514 -0.0516
12015TIP3    H257537   5.813   1.271   5.252 -0.4379  0.9903 -1.4565
12016TIP3   OH257538   4.633   2.182   6.143  0.0307 -0.1550 -0.3850
12016TIP3    H157539   4.602   2.099   6.107 -0.4595  0.2905 -1.0282
12016TIP3    H257540   4.613   2.177   6.236  2.6376 -1.9271  0.1917
12017TIP3   OH257541   4.764   6.391  16.917 -0.3143  0.2420  0.6256
12017TIP3    H157542   4.827   6.437  16.861  0.5616  0.7714  1.9879
12017TIP3    H257543   4.724   6.326  16.859  0.9242  0.4197 -0.4888
12018TIP3   OH257544   1.414   5.198   1.421  0.5476 -0.1860  0.2639
12018TIP3    H157545   1.397   5.138   1.494 -0.4704 -1.4700 -0.9919
12018TIP3    H257546   1.472   5.150   1.363  1.3175  0.8191  0.1701
12019TIP3   OH257547   2.732   1.123  14.651 -0.2145  0.6837  0.6113
12019TIP3    H157548   2.743   1.200  14.595 -0.6429  1.4208  1.5043
12019TIP3    H257549   2.640   1.126  14.677 -0.0890  0.1904  1.1212
12020TIP3   OH257550   1.186   4.424  16.023  0.5118 -0.2385  0.1375
12020TIP3    H157551   1.241   4.352  15.995 -0.7606 -0.9265 -0.7000
12020TIP3    H257552   1.226   4.456  16.104  0.7996 -2.2277  0.8212
12021TIP3   OH257553   5.472   0.638  15.537 -0.0170 -0.0853  0.0516
12021TIP3    H157554   5.543   0.575  15.529 -1.5256 -1.7617 -0.8377
12021TIP3    H257555   5.450   0.637  15.630  0.1894 -0.6157  0.0970
12022TIP3   OH257556   5.653   1.320  15.210 -0.4212 -0.0143  0.9848
12022TIP3    H157557   5.649   1.317  15.114 -0.8242 -0.2755  1.0087
12022TIP3    H257558   5.704   1.399  15.229  0.3274 -0.3795  0.5440
12023TIP3   OH257559   5.916   0.990   6.625 -0.1192 -0.1540  0.6354
12023TIP3    H157560   5.869   0.918   6.583  1.8437 -1.5136  0.6408
12023TIP3    H257561   5.924   1.057   6.556 -1.0338 -0.3612  0.3088
12024TIP3   OH257562   3.029   1.715   1.269 -0.3449  0.6648  0.2575
12024TIP3    H157563   3.090   1.645   1.291 -0.0078  0.4956 -1.1573
12024TIP3    H257564   3.072   1.795   1.299  0.7218  0.5766 -0.9682
12025TIP3   OH257565   3.626   3.180   4.836 -0.0109  0.1753  0.2283
12025TIP3    H157566   3.645   3.209   4.747  1.1102  1.7818  0.9364
12025TIP3    H257567   3.531   3.170   4.838  0.0001 -0.6635 -1.3343
12026TIP3   OH257568   0.484   6.476  13.348  0.5079  0.0864 -0.0504
12026TIP3    H157569   0.564   6.433  13.377  0.9139  0.3265 -0.8160
12026TIP3    H257570   0.512   6.541  13.285 -0.1679  1.0560  0.6125
12027TIP3   OH257571   3.678   5.077  15.460 -0.2271 -0.4310 -0.0931
12027TIP3    H157572   3.601   5.032  15.494  0.5925 -1.3286  0.6054
12027TIP3    H257573   3.752   5.023  15.487  0.7071  0.7626 -0.1621
12028TIP3   OH257574   1.694   0.423  16.773 -0.2873  0.3297  0.3360
12028TIP3    H157575   1.668   0.441  16.683  0.8718 -1.8566 -0.5057
12028TIP3    H257576   1.614   0.394  16.817 -0.2309 -2.1207 -1.0250
12029TIP3   OH257577   0.688   0.151   5.627 -0.0519  0.0899 -0.6242
12029TIP3    H157578   0.649   0.063   5.633 -0.1359  0.1301 -0.5873
12029TIP3    H257579   0.662   0.194   5.708  1.0258 -0.2769 -0.0562
12030TIP3   OH257580   0.172   4.827   1.885  0.9378  0.2308  0.5659
12030TIP3    H157581   0.164   4.882   1.963  0.2041 -0.5322  1.0431
12030TIP3    H257582   0.105   4.760   1.896  0.5146  0.3815 -0.9502
12031TIP3   OH257583   1.311   1.627  16.839 -0.2943 -0.2403  0.3159
12031TIP3    H157584   1.237   1.570  16.859 -0.2094 -0.3295  0.3778
12031TIP3    H257585   1.382   1.566  16.817  0.6340 -0.2862  3.0662
12032TIP3   OH257586   3.242   2.752   3.828 -0.2895  0.3000 -0.0530
12032TIP3    H157587   3.147   2.738   3.827 -0.8775  3.4308  0.6782
12032TIP3    H257588   3.252   2.847   3.826  2.9146  0.0545 -1.6580
12033TIP3   OH257589   3.218   2.109   3.553  0.9207 -0.3566  0.7527
12033TIP3    H157590   3.245   2.035   3.607  0.6809 -0.6044  0.5380
12033TIP3    H257591   3.274   2.105   3.476  0.6690 -0.5312  0.5747
12034TIP3   OH257592   4.508   5.365   2.930 -0.2727 -0.4491  0.0916
12034TIP3    H157593   4.532   5.327   2.846  0.9766  0.4011  0.0204
12034TIP3    H257594   4.459   5.444   2.908 -1.6904 -1.2768  0.2126
12035TIP3   OH257595   0.745   4.479   0.887  0.6821  0.3495  0.2940
12035TIP3    H157596   0.722   4.455   0.977  0.2332  0.3103  0.1706
12035TIP3    H257597   0.670   4.530   0.856  0.0166 -1.1527 -0.6613
12036TIP3   OH257598   6.131   3.252  13.013 -0.3519 -0.4470  0.6166
12036TIP3    H157599   6.112   3.183  12.949  0.7481 -0.8065  0.6655
12036TIP3    H257600   6.203   3.218  13.065  0.8411  1.0879  0.0607
12037TIP3   OH257601   6.461   5.447  12.005  0.0389  0.6161 -0.1748
12037TIP3    H157602   6.477   5.541  12.003 -0.3136  0.6673 -0.9279
12037TIP3    H257603   6.375   5.438  12.047 -0.3302  0.6957 -0.9005
12038TIP3   OH257604   2.495   6.072   3.127 -0.0763 -0.3890 -0.4321
12038TIP3    H157605   2.425   6.009   3.107  1.0405 -2.5668  1.9897
12038TIP3    H257606   2.495   6.078   3.222  1.0439  1.9881 -0.5291
12039TIP3   OH257607   3.884   5.544   1.805 -0.2421  0.4386 -0.0704
12039TIP3    H157608   3.979   5.547   1.801 -0.1928  0.7337  0.9773
12039TIP3    H257609   3.865   5.492   1.884 -0.9310  0.9681  0.1205
12040TIP3   OH257610   0.404   3.421  14.174 -0.2753  0.0329  0.4917
12040TIP3    H157611   0.482   3.456  14.131 -0.1599 -1.2265 -0.3800
12040TIP3    H257612   0.415   3.326  14.170 -1.6048 -0.1558  0.8296
12041TIP3   OH257613   1.369   2.673   1.983  0.2215 -0.5864 -0.7135
12041TIP3    H157614   1.351   2.762   2.015  1.0593 -1.0332  1.1337
12041TIP3    H257615   1.464   2.664   1.991  0.2458 -1.3753 -1.7128
12042TIP3   OH257616   2.910   5.234  13.263 -0.0889 -0.6058 -0.1222
12042TIP3    H157617   2.927   5.280  13.180  0.1737 -1.1211 -0.3607
12042TIP3    H257618   2.992   5.187  13.280 -0.0014 -0.1901  0.6398
12043TIP3   OH257619   4.480   0.226  15.873  0.1525  0.5869 -0.4510
12043TIP3    H157620   4.432   0.254  15.796  0.1993  1.5033 -0.1627
12043TIP3    H257621   4.472   0.299  15.935  1.8159  0.7360 -0.3591
12044TIP3   OH257622   4.151   3.293  12.087 -0.2875  0.4858 -0.5498
12044TIP3    H157623   4.166   3.319  12.178 -0.4095  0.7039 -0.5897
12044TIP3    H257624   4.216   3.342  12.037  0.0345  0.0700 -0.5429
12045TIP3   OH257625   5.786   0.095   1.179 -0.3670  0.5934 -0.2145
12045TIP3    H157626   5.724   0.070   1.110 -0.8016 -0.7232  0.6302
12045TIP3    H257627   5.872   0.090   1.137 -0.5284 -1.3040 -0.3940
12046TIP3   OH257628   6.816   2.939   3.603 -0.1068 -0.0304  0.0763
12046TIP3    H157629   6.743   2.980   3.556 -0.0439  0.5711  0.4951
12046TIP3    H257630   6.778   2.860   3.642 -0.8752  0.9356  1.3540
12047TIP3   OH257631   4.253   5.089   4.333 -0.0314 -0.3254  0.0836
12047TIP3    H157632   4.322   5.026   4.311  0.6045  0.2574  0.4098
12047TIP3    H257633   4.186   5.036   4.377  0.7310 -0.6861  0.8245
12048TIP3   OH257634   6.075   3.629   0.325  0.6020 -0.3552 -0.5811
12048TIP3    H157635   6.136   3.699   0.343  0.9958 -1.0229  0.8363
12048TIP3    H257636   6.129   3.557   0.293  0.4168 -0.5598 -0.4417
12049TIP3   OH257637   0.343   3.501  16.241  0.5760  0.2305  0.3255
12049TIP3    H157638   0.290   3.434  16.198  0.2574  0.7628 -0.1089
12049TIP3    H257639   0.289   3.533  16.313  0.4717  0.4805  0.1364
12050TIP3   OH257640   6.048   0.685   4.986  0.0101  0.0630 -0.0582
12050TIP3    H157641   5.973   0.645   5.030 -1.5271 -0.5751 -2.9865
12050TIP3    H257642   6.108   0.612   4.971 -1.0656 -0.4977 -1.9951
12051TIP3   OH257643   0.942   0.655   6.208 -0.4149  0.7369  0.6371
12051TIP3    H157644   0.857   0.654   6.163 -0.6136  0.9638  1.0017
12051TIP3    H257645   0.946   0.742   6.248  0.7750  1.4129 -0.8492
12052TIP3   OH257646   0.844   1.469   4.651  0.1575 -0.3372 -0.3751
12052TIP3    H157647   0.874   1.415   4.724  0.7055  0.3245 -0.0950
12052TIP3    H257648   0.849   1.559   4.684 -1.0599 -0.1220 -0.7108
12053TIP3   OH257649   0.981   1.583  12.850  0.5202 -0.0936  0.2285
12053TIP3    H157650   1.046   1.533  12.801  0.2870  0.1644 -0.3466
12053TIP3    H257651   1.030   1.617  12.925  0.8719 -0.5144  0.1967
12054TIP3   OH257652   0.505   6.661   5.218 -0.3511  0.1565 -0.5006
12054TIP3    H157653   0.412   6.679   5.204 -1.0408 -0.4983  2.3971
12054TIP3    H257654   0.528   6.599   5.149 -2.3247 -0.3631 -0.7662
12055TIP3   OH257655   6.051   0.470  15.203  0.5983 -0.1629  0.3826
12055TIP3    H157656   5.966   0.502  15.233  0.4756  0.3858 -0.5163
12055TIP3    H257657   6.030   0.394  15.148  0.5013  1.0609 -1.3783
12056TIP3   OH257658   1.001   0.364  12.430 -0.6698  0.1024  0.3417
12056TIP3    H157659   1.006   0.340  12.337  0.9402 -2.6322  1.0201
12056TIP3    H257660   0.907   0.374  12.446 -0.9359  2.1735 -1.8473
12057TIP3   OH257661   1.904   3.012  15.465 -0.1628 -0.0074 -0.1144
12057TIP3    H157662   1.901   2.960  15.545 -0.5289 -0.8196 -0.6387
12057TIP3    H257663   1.823   2.990  15.419  0.6778 -0.6188 -1.3569
12058TIP3   OH257664   4.050   4.849  11.213 -0.3870  0.5131 -0.3651
12058TIP3    H157665   4.088   4.778  11.161 -1.6886 -1.7146  1.5084
12058TIP3    H257666   4.072   4.826  11.304 -1.6915  1.9855  0.3744
12059TIP3   OH257667   6.409   4.694   5.179  0.6736 -0.3509  0.2632
12059TIP3    H157668   6.332   4.744   5.150  0.3290 -0.7987  0.3929
12059TIP3    H257669   6.447   4.746   5.249 -0.1000 -0.6095  0.8910
12060TIP3   OH257670   4.028   5.601   2.987  0.2191 -0.9068  0.3094
12060TIP3    H157671   4.068   5.579   3.072  0.0209  0.0635  0.6703
12060TIP3    H257672   4.093   5.574   2.923  1.3025  0.2245  0.8707
12061TIP3   OH257673   1.262   1.072   6.881 -0.6554 -0.1951  0.4857
12061TIP3    H157674   1.258   1.115   6.795 -0.3620  0.1953  0.6618
12061TIP3    H257675   1.182   1.021   6.886  0.1598 -1.6900 -0.7836
12062TIP3   OH257676   4.686   1.825   3.887 -0.3233 -0.0571  0.0613
12062TIP3    H157677   4.702   1.733   3.907 -0.5377  0.1399  1.2217
12062TIP3    H257678   4.714   1.872   3.965  2.8456  1.2077 -1.6458
12063TIP3   OH257679   0.916   4.947  12.961 -0.2385 -0.4880 -0.4985
12063TIP3    H157680   0.891   4.919  12.873 -1.1865  2.5458 -1.3228
12063TIP3    H257681   0.941   5.039  12.950  0.9506 -0.3988  2.2045
12064TIP3   OH257682   4.674   4.067  14.060 -0.1524 -0.3781 -0.0702
12064TIP3    H157683   4.719   4.099  14.138  0.6282 -1.1976 -0.1788
12064TIP3    H257684   4.662   4.146  14.006  2.5739 -0.3282 -0.7562
12065TIP3   OH257685   4.918   4.465  15.938  0.4468  0.7481 -0.2682
12065TIP3    H157686   4.863   4.543  15.925 -0.7820 -0.1568 -0.6754
12065TIP3    H257687   4.889   4.430  16.022 -0.1372 -0.1448 -0.8301
12066TIP3   OH257688   1.136   1.491  13.323 -0.7589  0.6707 -0.5122
12066TIP3    H157689   1.108   1.427  13.388 -2.4266  2.8128  1.0067
12066TIP3    H257690   1.075   1.478  13.249  0.5705 -1.1547 -1.3747
12067TIP3   OH257691   6.514   4.924   5.320 -0.1753  0.0109 -0.1646
12067TIP3    H157692   6.465   4.894   5.397  1.4833 -0.6882  0.6599
12067TIP3    H257693   6.481   5.012   5.303 -0.8718  0.0123  1.0906
12068TIP3   OH257694   2.499   4.720  11.145  0.3314  0.2586  0.3697
12068TIP3    H157695   2.496   4.814  11.128 -3.1741  0.0475 -1.1011
12068TIP3    H257696   2.505   4.680  11.058  0.0990 -0.8725  0.8546
12069TIP3   OH257697   5.737   1.362  17.065  0.0865  0.0057 -0.8577
12069TIP3    H157698   5.800   1.293  17.047  0.0949  0.6412 -3.7462
12069TIP3    H257699   5.775   1.412  17.137  2.4311 -0.1916 -1.8841
12070TIP3   OH257700   3.943   6.606  15.887 -0.2036 -0.1429 -0.4806
12070TIP3    H157701   3.858   6.644  15.862  0.1132  1.6904  1.0077
12070TIP3    H257702   3.999   6.682  15.901  1.5665 -1.3170 -0.8977
12071TIP3   OH257703   1.427   1.250  11.131 -0.4679  0.0163  0.0670
12071TIP3    H157704   1.430   1.160  11.164  3.4329 -0.5668 -1.3594
12071TIP3    H257705   1.380   1.244  11.047 -0.3866 -0.6366  0.0644
12072TIP3   OH257706   1.513   0.052   0.238 -0.2058  0.4302  0.3222
12072TIP3    H157707   1.531  -0.041   0.228 -1.7767  0.1084  0.2261
12072TIP3    H257708   1.479   0.060   0.328  0.2730  0.9717  0.4602
12073TIP3   OH257709   5.751   6.604  12.692 -0.6223  0.0471 -0.2321
12073TIP3    H157710   5.715   6.669  12.752  1.3470  1.0196 -0.0339
12073TIP3    H257711   5.693   6.528  12.702 -1.3267  0.7624  1.6356
12074TIP3   OH257712   4.023   3.159   5.047  0.2839 -0.4536 -0.0702
12074TIP3    H157713   3.975   3.088   5.004 -0.7709  0.3157 -0.1827
12074TIP3    H257714   3.959   3.229   5.057  0.4627 -0.5983  2.7890
12075TIP3   OH257715   3.262   1.521  11.464 -0.7812 -0.4158  0.0075
12075TIP3    H157716   3.230   1.571  11.389  0.7522 -0.2008 -0.5417
12075TIP3    H257717   3.224   1.564  11.540  1.4365  2.4291 -0.3489
12076TIP3   OH257718   4.922   2.229  11.990  0.2962 -0.0505 -0.1883
12076TIP3    H157719   4.880   2.224  12.076  0.6020 -0.4142 -0.0568
12076TIP3    H257720   4.992   2.293  12.001  0.2019  0.0591 -0.2240
12077TIP3   OH257721   1.379   4.078   3.495 -0.7024 -0.0635  0.2620
12077TIP3    H157722   1.441   4.109   3.429 -0.0073 -1.3447  0.2884
12077TIP3    H257723   1.420   4.001   3.533 -0.3267  1.5076  3.3760
12078TIP3   OH257724   2.559   6.528  11.576  0.1707  0.6575 -0.1390
12078TIP3    H157725   2.548   6.507  11.483  0.7491  1.1201 -0.3206
12078TIP3    H257726   2.529   6.450  11.622 -1.4779  0.9591 -0.6609
12079TIP3   OH257727   0.618   3.936  17.298  0.1489 -0.2517 -0.5026
12079TIP3    H157728   0.638   3.859  17.244 -1.3281 -0.8343 -0.2594
12079TIP3    H257729   0.604   3.900  17.386  1.1414  0.5213 -0.0135
12080TIP3   OH257730   2.943   1.269   3.340 -0.3774 -0.4440  0.1351
12080TIP3    H157731   2.979   1.351   3.305  0.2643 -0.8263 -0.1251
12080TIP3    H257732   2.964   1.204   3.273 -1.3176 -0.7369  0.1113
12081TIP3   OH257733   0.244   4.814   5.661  0.1419 -0.0651  0.1801
12081TIP3    H157734   0.185   4.820   5.586  0.2495 -1.1092 -0.0030
12081TIP3    H257735   0.189   4.836   5.736 -0.0231  0.7641 -0.1711
12082TIP3   OH257736   5.643   3.515   3.331  0.7283 -0.2122 -0.0486
12082TIP3    H157737   5.638   3.583   3.399 -0.3603  1.1410 -1.4298
12082TIP3    H257738   5.640   3.563   3.249 -0.2729 -1.9650 -1.0853
12083TIP3   OH257739   0.161   5.922  12.681  0.7410  0.6409 -0.2425
12083TIP3    H157740   0.077   5.893  12.644  0.6708 -0.1372  0.4877
12083TIP3    H257741   0.149   5.914  12.776  2.0777 -0.7872 -0.1567
12084TIP3   OH257742   3.551   0.442  11.999  0.4484  0.3898 -0.3023
12084TIP3    H157743   3.539   0.520  12.053  0.2005  0.0021  0.2084
12084TIP3    H257744   3.525   0.470  11.911  0.0497  0.7943 -0.0611
12085TIP3   OH257745   5.451   0.305  16.085 -0.0577 -0.3327 -0.3155
12085TIP3    H157746   5.455   0.294  15.990  1.8831  1.6235 -0.5308
12085TIP3    H257747   5.452   0.399  16.098 -1.0400 -0.5482  1.6729
12086TIP3   OH257748   0.137   3.297  17.073 -0.4423  0.1298  0.4324
12086TIP3    H157749   0.153   3.232  17.005 -1.6377 -2.2147  2.2655
12086TIP3    H257750   0.214   3.293  17.129 -0.5952  0.1951  0.6476
12087TIP3   OH257751   6.490   6.477   4.845  0.0278  0.1500 -0.2510
12087TIP3    H157752   6.509   6.396   4.797 -0.1301  0.6664 -1.2087
12087TIP3    H257753   6.455   6.447   4.929  2.9054 -0.8296  0.7465
12088TIP3   OH257754   6.202   2.088   5.734 -0.1402  0.5607 -0.2697
12088TIP3    H157755   6.154   2.155   5.781 -1.2660  0.3207 -1.0367
12088TIP3    H257756   6.293   2.099   5.762 -0.6985  0.6102  1.7263
12089TIP3   OH257757   1.147   3.495   2.004  0.1761 -0.4465  0.7069
12089TIP3    H157758   1.162   3.451   2.088  1.5197 -0.5638  0.4271
12089TIP3    H257759   1.169   3.428   1.939 -3.7376 -1.4145  0.1314
12090TIP3   OH257760   1.717   3.521  16.381  0.0183 -0.2030 -0.0022
12090TIP3    H157761   1.673   3.606  16.381  2.0846  0.9974 -2.1872
12090TIP3    H257762   1.805   3.539  16.415  1.1219 -0.9788 -2.2136
12091TIP3   OH257763   1.973   2.568  11.828  0.1156 -0.0298 -0.1709
12091TIP3    H157764   1.886   2.594  11.859 -1.4047 -2.2949 -2.2087
12091TIP3    H257765   1.956   2.514  11.751  3.2855 -1.6544  0.1090
12092TIP3   OH257766   5.874   0.446   5.265  0.0304 -0.1066 -0.6930
12092TIP3    H157767   5.941   0.404   5.320 -0.4810 -1.3750 -0.9978
12092TIP3    H257768   5.812   0.484   5.327  0.1194 -0.4356 -0.3985
12093TIP3   OH257769   3.740   5.690  15.155 -0.0848 -0.0038  0.0094
12093TIP3    H157770   3.668   5.739  15.194  0.8362  1.2117  0.2705
12093TIP3    H257771   3.811   5.699  15.219 -0.3039 -2.9772  0.7819
12094TIP3   OH257772   1.444   0.116   4.862 -0.2254  0.2464 -0.1281
12094TIP3    H157773   1.457   0.184   4.928  0.5334 -1.4830  1.6296
12094TIP3    H257774   1.349   0.113   4.850 -0.3586  0.8142  0.6739
12095TIP3   OH257775   4.313   6.371   0.343  1.1264 -0.3059 -0.3383
12095TIP3    H157776   4.354   6.451   0.311  0.0664 -0.1834 -1.4344
12095TIP3    H257777   4.386   6.310   0.355  1.8930  0.6665  0.0896
12096TIP3   OH257778   0.905   0.258  11.677 -0.0659 -0.3572  0.3061
12096TIP3    H157779   0.876   0.348  11.694  0.1432 -0.1999 -0.1351
12096TIP3    H257780   0.831   0.203  11.703 -0.4577 -0.0122 -0.0632
12097TIP3   OH257781   1.679   4.882  16.563  0.1537  0.1653 -0.0874
12097TIP3    H157782   1.587   4.855  16.569  0.0802  0.5235  0.4263
12097TIP3    H257783   1.693   4.897  16.469 -0.0698 -0.7121 -0.2747
12098TIP3   OH257784   5.969   1.050  12.998  0.0582  0.0080  0.2687
12098TIP3    H157785   5.966   1.055  13.094 -2.9878  1.2718  0.1950
12098TIP3    H257786   5.908   1.117  12.968  0.8359 -0.4403 -2.5951
12099TIP3   OH257787   5.258   2.489   5.910  0.1984 -0.1621 -0.4924
12099TIP3    H157788   5.323   2.447   5.855 -0.5763  0.3416 -1.8355
12099TIP3    H257789   5.301   2.568   5.943  0.8907 -0.8160  0.2095
12100TIP3   OH257790   4.145   4.550   4.630  0.0149  0.0929 -0.6453
12100TIP3    H157791   4.198   4.589   4.560  0.6151  0.2532 -0.1079
12100TIP3    H257792   4.175   4.459   4.636  0.9000  0.4297  0.2840
12101TIP3   OH257793   0.158   1.238   3.936  0.1791 -0.2053 -0.4988
12101TIP3    H157794   0.103   1.160   3.943 -0.3510  0.0287 -1.9289
12101TIP3    H257795   0.241   1.212   3.978 -0.4971 -1.0244  0.3804
12102TIP3   OH257796   0.980   5.581   1.272 -0.3565 -0.0887  0.3021
12102TIP3    H157797   1.055   5.594   1.329 -0.6700  0.5393  0.5896
12102TIP3    H257798   0.960   5.669   1.238 -0.3244 -0.4120 -0.5881
12103TIP3   OH257799   4.156   1.816  11.444  0.0941  0.1618  0.1094
12103TIP3    H157800   4.162   1.760  11.367 -2.2286 -0.0134 -0.0329
12103TIP3    H257801   4.236   1.799  11.493  1.4430 -0.0197 -2.0350
12104TIP3   OH257802   0.981   3.978  15.403 -0.1459 -0.9421  0.3967
12104TIP3    H157803   1.074   3.955  15.392 -0.2849 -0.9449 -0.9923
12104TIP3    H257804   0.981   4.073  15.414 -0.0838 -0.7024 -1.4400
12105TIP3   OH257805   1.687   2.541  11.442 -1.1058 -0.4438 -0.2639
12105TIP3    H157806   1.628   2.578  11.376 -1.0499  1.2053  0.5459
12105TIP3    H257807   1.763   2.511  11.392 -0.9824  0.9464 -0.9599
12106TIP3   OH257808   3.275   0.644   3.240  0.2475  0.1698 -0.5072
12106TIP3    H157809   3.230   0.714   3.287 -0.7057 -0.0309 -1.0920
12106TIP3    H257810   3.326   0.690   3.173  0.9211  0.3949  0.1420
12107TIP3   OH257811   5.914   2.781   3.962  0.1158 -0.4865  0.2868
12107TIP3    H157812   5.913   2.764   4.056 -0.6413 -2.6855 -0.0725
12107TIP3    H257813   5.876   2.868   3.953 -1.3781 -0.9190  1.9075
12108TIP3   OH257814   6.529   0.373  17.220 -0.2570  0.5050 -0.0217
12108TIP3    H157815   6.591   0.409  17.157 -0.4139 -1.2006 -1.2344
12108TIP3    H257816   6.445   0.412  17.195 -0.0556  1.0737  0.1746
12109TIP3   OH257817   5.783   0.441  13.478  0.1635 -0.3892  0.3341
12109TIP3    H157818   5.807   0.360  13.522 -0.6405  0.2993  2.1491
12109TIP3    H257819   5.865   0.490  13.471  0.0941  0.1330  2.5336
12110TIP3   OH257820   2.234   2.726  11.272  0.1749 -0.3031  0.0548
12110TIP3    H157821   2.271   2.637  11.273  0.6537 -0.1245 -0.6073
12110TIP3    H257822   2.310   2.783  11.260 -0.0726  0.2419  0.9986
12111TIP3   OH257823   5.418   6.433   5.898  0.1951 -0.2356 -0.3473
12111TIP3    H157824   5.457   6.446   5.811 -0.7953  1.4797 -0.5874
12111TIP3    H257825   5.325   6.453   5.885 -0.6004 -3.0380  0.4633
12112TIP3   OH257826   4.881   4.376  16.197  0.4402 -0.3735  0.2999
12112TIP3    H157827   4.874   4.420  16.282 -0.2422 -1.8811  1.0541
12112TIP3    H257828   4.852   4.286  16.213 -1.9818 -0.1339 -2.0089
12113TIP3   OH257829   3.567   1.376   3.214  0.1789  0.6109 -0.5860
12113TIP3    H157830   3.545   1.388   3.121 -1.2126 -0.4948 -0.4255
12113TIP3    H257831   3.502   1.314   3.246  0.4966  1.1567  1.2033
12114TIP3   OH257832   6.292   5.449   6.772  0.7676  0.6779  0.0408
12114TIP3    H157833   6.332   5.425   6.688 -0.2292  1.6811 -0.7559
12114TIP3    H257834   6.201   5.470   6.750 -0.4236 -2.0495  1.8940
12115TIP3   OH257835   1.973   4.470  13.290 -0.3344  0.0761 -0.2319
12115TIP3    H157836   2.036   4.405  13.259  0.5160  0.8392 -0.1263
12115TIP3    H257837   2.012   4.506  13.370 -0.8198  0.6829 -0.2603
12116TIP3   OH257838   1.244   5.734  14.611 -0.0005 -0.0551  0.5632
12116TIP3    H157839   1.259   5.828  14.621  1.1016 -0.2974  1.4638
12116TIP3    H257840   1.226   5.722  14.517 -2.5496  1.3212  0.8036
12117TIP3   OH257841   0.552   6.025  14.959 -0.5856  0.2361 -0.1112
12117TIP3    H157842   0.541   6.090  14.890  1.2876  0.5847 -0.1427
12117TIP3    H257843   0.646   6.021  14.973 -0.8031 -1.0829  1.2426
12118TIP3   OH257844   3.572   4.416   2.644 -0.2124  0.6600 -0.1447
12118TIP3    H157845   3.542   4.468   2.569  0.1491  2.8654  1.1349
12118TIP3    H257846   3.665   4.436   2.651  0.2271 -1.1994 -0.3500
12119TIP3   OH257847   6.586   6.406   0.195  0.0666 -0.6295  0.6260
12119TIP3    H157848   6.565   6.325   0.241 -0.1006 -1.0269 -0.1170
12119TIP3    H257849   6.677   6.395   0.168  0.4546 -0.0012  1.6497
12120TIP3   OH257850   2.084   5.998  11.866 -0.5655 -0.3681  0.1350
12120TIP3    H157851   2.081   6.085  11.826 -1.6069  0.0354  1.0581
12120TIP3    H257852   2.117   5.941  11.796 -0.0666  0.7238 -0.5425
12121TIP3   OH257853   1.850   2.599   3.805  0.1497 -0.0472 -0.0900
12121TIP3    H157854   1.762   2.571   3.781 -0.6579  1.5907  0.7507
12121TIP3    H257855   1.905   2.572   3.732 -1.1671 -0.5369 -0.9272
12122TIP3   OH257856   0.052   4.304   2.407 -0.2297 -0.6469 -0.1616
12122TIP3    H157857   0.052   4.307   2.503  1.7531  0.5048 -0.1398
12122TIP3    H257858   0.124   4.244   2.385 -0.7533 -1.0028 -0.9338
12123TIP3   OH257859   0.106   6.646  16.391  0.7653  0.4271  0.0625
12123TIP3    H157860   0.116   6.693  16.308  1.2859 -0.8003 -0.5867
12123TIP3    H257861   0.013   6.624  16.395  0.8879 -0.1983 -0.5733
12124TIP3   OH257862   3.100   0.688  16.934 -0.5305 -0.4061 -0.7354
12124TIP3    H157863   3.082   0.669  17.026  1.7701  0.6217  0.0149
12124TIP3    H257864   3.076   0.780  16.923  0.3632 -0.1687 -0.7925
12125TIP3   OH257865   5.006   6.126  12.385  0.2056  0.9024  0.2112
12125TIP3    H157866   5.026   6.216  12.361 -1.0525  1.3739  0.8246
12125TIP3    H257867   4.992   6.081  12.302  2.6805  0.7791 -0.1955
12126TIP3   OH257868   6.381   2.623   6.069 -0.3941 -0.3066  0.6169
12126TIP3    H157869   6.431   2.697   6.036 -2.4741  0.3443 -1.3313
12126TIP3    H257870   6.435   2.587   6.140  1.3321  2.1561  0.6736
12127TIP3   OH257871   6.639   0.184  10.360 -0.2562 -0.2717  0.7512
12127TIP3    H157872   6.632   0.090  10.375 -1.5435 -0.3765 -0.2955
12127TIP3    H257873   6.566   0.222  10.409  0.3810  0.2130  1.3404
12128TIP3   OH257874   4.732   1.008   3.425  0.7953 -0.2961  0.3371
12128TIP3    H157875   4.741   1.087   3.371  1.6006 -1.1260 -0.7692
12128TIP3    H257876   4.817   1.000   3.469  1.0673 -1.0828 -0.3157
12129TIP3   OH257877   3.258   6.143   4.748 -0.5184  0.2816 -0.1288
12129TIP3    H157878   3.168   6.120   4.726 -0.9456  1.1986  0.5774
12129TIP3    H257879   3.282   6.083   4.818 -1.2441  1.2036  0.9538
12130TIP3   OH257880   0.410   1.160  14.100  0.4512  0.1347  0.1697
12130TIP3    H157881   0.464   1.145  14.178  0.6005  0.4026  0.1184
12130TIP3    H257882   0.390   1.072  14.068 -0.3237 -0.0059  0.9950
12131TIP3   OH257883   4.013   4.850  12.366  0.1806 -0.1521  0.4195
12131TIP3    H157884   3.929   4.807  12.379 -0.3897  0.3411 -1.4357
12131TIP3    H257885   4.015   4.919  12.432 -0.9201 -0.0991  0.4053
12132TIP3   OH257886   2.124   4.701   0.462  0.5086 -0.5143  0.0493
12132TIP3    H157887   2.065   4.714   0.387 -0.0178  1.6791  0.7677
12132TIP3    H257888   2.201   4.754   0.440  0.1708  0.4982  1.2068
12133TIP3   OH257889   1.646   5.570   3.447  0.4341  0.1001 -0.0093
12133TIP3    H157890   1.616   5.589   3.358  1.5579  1.3028 -0.1640
12133TIP3    H257891   1.716   5.505   3.436  1.0237  0.7399 -0.0721
12134TIP3   OH257892   0.347   5.746  12.489 -0.1310 -0.5992 -0.0121
12134TIP3    H157893   0.401   5.666  12.489 -0.9888 -1.1889 -0.3790
12134TIP3    H257894   0.264   5.718  12.529 -0.5045  0.0663 -0.3222
12135TIP3   OH257895   4.758   1.845  12.142  0.1887  1.5535 -0.8565
12135TIP3    H157896   4.785   1.864  12.231 -0.4868  0.1514 -0.3142
12135TIP3    H257897   4.832   1.798  12.104 -0.3087  0.3001 -0.3267
12136TIP3   OH257898   0.150   2.356   1.789  0.4557  0.3184  0.1589
12136TIP3    H157899   0.080   2.391   1.734  0.0362 -1.1620 -0.2854
12136TIP3    H257900   0.231   2.380   1.744  0.2338  1.4776  0.3386
12137TIP3   OH257901   4.595   6.787   5.030 -0.2747 -0.0674  0.0981
12137TIP3    H157902   4.555   6.866   5.068 -4.1371 -1.7788  0.0954
12137TIP3    H257903   4.650   6.752   5.100  0.6933  1.9911  0.4612
12138TIP3   OH257904   5.986   2.906   3.589 -0.2972 -0.1835  0.4017
12138TIP3    H157905   5.910   2.888   3.533 -0.7239  1.0116  0.5627
12138TIP3    H257906   6.049   2.838   3.566 -1.6530 -1.5959  0.7231
12139TIP3   OH257907   4.936   1.477   5.386 -0.2385  0.1476 -0.0010
12139TIP3    H157908   4.873   1.420   5.342  1.2048 -0.8428 -0.8696
12139TIP3    H257909   4.882   1.539   5.435 -1.8758 -0.4871 -0.9186
12140TIP3   OH257910   1.333   5.258  16.170 -0.3725  0.3905 -0.1097
12140TIP3    H157911   1.275   5.334  16.167 -0.5532  0.2597  0.1445
12140TIP3    H257912   1.301   5.205  16.242  0.8857  0.9751  0.9245
12141TIP3   OH257913   2.005   4.447   3.735 -0.3236  0.2123 -0.0809
12141TIP3    H157914   1.928   4.450   3.677 -0.9330 -1.1767  0.6023
12141TIP3    H257915   1.969   4.426   3.821  0.6606  1.3529  0.6353
12142TIP3   OH257916   1.018   6.698  14.081  0.4687 -0.9318  0.0526
12142TIP3    H157917   1.055   6.614  14.057  3.2558 -0.0201  0.7762
12142TIP3    H257918   1.078   6.763  14.045 -1.7519  0.8282 -0.7744
12143TIP3   OH257919   1.918   5.031  17.081  0.0141  0.9225 -0.1209
12143TIP3    H157920   1.952   5.118  17.100  0.2056  0.8201  0.0106
12143TIP3    H257921   1.830   5.030  17.119 -0.7723  1.7294 -1.8330
12144TIP3   OH257922   4.800   0.699  11.669  0.1104 -0.1805 -0.0653
12144TIP3    H157923   4.738   0.708  11.597 -0.2904  1.2748  0.4263
12144TIP3    H257924   4.802   0.605  11.688 -3.0722 -0.1552  0.8665
12145TIP3   OH257925   3.774   3.316  10.642 -0.2331 -0.0564  0.4936
12145TIP3    H157926   3.705   3.382  10.640 -2.2134 -1.9449  1.7712
12145TIP3    H257927   3.824   3.331  10.562 -1.8044  1.7103 -0.2430
12146TIP3   OH257928   2.022   5.368   2.092  0.4946  0.0105  0.6451
12146TIP3    H157929   2.084   5.427   2.050  0.3812  1.2070  2.0553
12146TIP3    H257930   1.959   5.346   2.024  1.1109  0.7004 -0.1668
12147TIP3   OH257931   3.897   5.415  14.281  0.3270 -0.0701  0.2709
12147TIP3    H157932   3.848   5.452  14.355  0.7196  0.5777  0.2162
12147TIP3    H257933   3.988   5.439  14.298  0.3764  0.3937 -0.5984
12148TIP3   OH257934   1.941   2.619  15.091 -0.5417  0.3424 -0.4082
12148TIP3    H157935   1.915   2.711  15.089  1.1687  0.9887  2.1727
12148TIP3    H257936   1.894   2.582  15.165  3.4732  0.9449  2.8141
12149TIP3   OH257937   3.439   5.069  13.355 -0.3407 -0.2774 -0.2006
12149TIP3    H157938   3.442   5.021  13.438 -1.6667 -2.4608 -1.3147
12149TIP3    H257939   3.528   5.103  13.343 -0.4704  1.5098  2.8166
12150TIP3   OH257940   3.530   6.644  11.089  0.3437 -0.2929  0.2541
12150TIP3    H157941   3.600   6.590  11.053 -0.3645 -1.2503  0.2852
12150TIP3    H257942   3.568   6.682  11.169  1.2408  0.2418 -0.4054
12151TIP3   OH257943   2.014   2.460  12.651  0.0225  0.0985 -0.2401
12151TIP3    H157944   2.026   2.516  12.574  1.7519 -0.7841 -0.6499
12151TIP3    H257945   2.053   2.376  12.627 -0.8912 -0.7270  1.0171
12152TIP3   OH257946   6.818   5.595  10.442  0.6533 -0.0733 -0.4208
12152TIP3    H157947   6.872   5.528  10.483  0.8329  1.3529  1.8780
12152TIP3    H257948   6.882   5.656  10.403  0.5458 -0.3759 -1.0836
12153TIP3   OH257949   3.074   1.238   2.874 -0.0955 -0.1724  0.5180
12153TIP3    H157950   3.021   1.223   2.796  1.1142  0.9079 -0.5591
12153TIP3    H257951   3.064   1.158   2.926 -0.2300 -1.2839 -1.1638
12154TIP3   OH257952   6.684   2.458  10.751 -0.5550  0.8210 -0.3149
12154TIP3    H157953   6.736   2.487  10.826 -0.4062  2.2068 -0.9200
12154TIP3    H257954   6.743   2.464  10.676  0.0785 -2.8776 -0.3006
12155TIP3   OH257955   5.151   1.401  15.121 -0.0449 -0.5843  0.3032
12155TIP3    H157956   5.059   1.404  15.094 -0.3840 -0.8419  1.3930
12155TIP3    H257957   5.174   1.492  15.138 -0.8629 -0.7247  2.4408
12156TIP3   OH257958   0.465   1.702   2.325  0.5729 -0.6801  0.2415
12156TIP3    H157959   0.467   1.739   2.413  1.5528 -2.1109  0.8636
12156TIP3    H257960   0.556   1.704   2.296  0.7176 -2.7535  0.4178
12157TIP3   OH257961   2.624   6.047   5.176 -0.4640  0.1922  0.4676
12157TIP3    H157962   2.669   5.998   5.107  0.5113  0.9785  0.5328
12157TIP3    H257963   2.558   5.986   5.209 -1.4778  0.0362 -1.6503
12158TIP3   OH257964   3.866   2.238  13.145  0.1643 -0.2421  0.5469
12158TIP3    H157965   3.940   2.193  13.105  0.8504  1.0276  0.3334
12158TIP3    H257966   3.906   2.293  13.213 -0.5995  0.3691  0.5122
12159TIP3   OH257967   6.786   5.859   2.741 -0.0084 -0.3940 -0.0726
12159TIP3    H157968   6.729   5.813   2.803  0.4511  1.2962  1.7288
12159TIP3    H257969   6.733   5.932   2.710  0.5894  0.2208  0.3183
12160TIP3   OH257970   0.459   2.244  14.134  0.4047 -0.6567  0.8072
12160TIP3    H157971   0.434   2.185  14.206  0.1213 -0.0858  1.1886
12160TIP3    H257972   0.453   2.190  14.056  0.4493 -1.2197  1.1862
12161TIP3   OH257973   3.161   1.570  12.473 -0.1402  0.7975 -0.0306
12161TIP3    H157974   3.114   1.645  12.510 -1.7250  0.4437 -1.2090
12161TIP3    H257975   3.096   1.525  12.419  1.3577 -0.1925 -1.1052
12162TIP3   OH257976   3.832   2.279   3.836  0.0877  0.1081 -0.4459
12162TIP3    H157977   3.784   2.208   3.793 -2.1920  2.2200 -1.6787
12162TIP3    H257978   3.924   2.256   3.825 -0.5353 -2.6322 -0.7484
12163TIP3   OH257979   0.741   4.974   2.936 -0.0643 -0.2886 -0.1706
12163TIP3    H157980   0.711   4.935   3.018 -0.8056 -1.4841 -0.9913
12163TIP3    H257981   0.679   5.045   2.920 -2.0773 -2.2378 -1.4407
12164TIP3   OH257982   3.893   2.530   5.424  0.1841  0.1490 -0.1170
12164TIP3    H157983   3.867   2.504   5.335  0.4606 -0.3926 -0.0437
12164TIP3    H257984   3.907   2.448   5.470 -1.5039  0.3982  0.9070
12165TIP3   OH257985   4.993   4.399  12.098  0.5574  0.1436 -0.1250
12165TIP3    H157986   5.012   4.320  12.049 -1.3942 -0.3420 -0.1889
12165TIP3    H257987   4.931   4.371  12.165  1.4615  1.2260  1.2232
12166TIP3   OH257988   4.250   2.830  14.942 -0.2927  0.3156 -0.5847
12166TIP3    H157989   4.313   2.902  14.940 -1.4425  1.4012 -4.2516
12166TIP3    H257990   4.179   2.862  14.998  0.5414  0.7152  0.2874
12167TIP3   OH257991   2.460   0.448   5.139 -0.5390  0.0042  0.2749
12167TIP3    H157992   2.405   0.508   5.089  0.5766  0.1344 -0.8527
12167TIP3    H257993   2.414   0.437   5.222 -0.8377  2.3612  0.4971
12168TIP3   OH257994   5.247   1.640  15.239  0.3049 -0.3285  0.0156
12168TIP3    H157995   5.222   1.723  15.280  0.0539  0.0704 -0.9234
12168TIP3    H257996   5.269   1.583  15.313 -1.4717 -0.0753  0.7996
12169TIP3   OH257997   3.396   3.795  12.079 -0.1960  0.7598  0.1650
12169TIP3    H157998   3.451   3.724  12.113 -1.2532  0.1166  0.5559
12169TIP3    H257999   3.449   3.835  12.010  0.5955 -0.1197  0.2425
12170TIP3   OH258000   2.395   0.866   4.602 -1.1153 -0.4514  0.4002
12170TIP3    H158001   2.442   0.825   4.675  0.0662  1.5276  0.8449
12170TIP3    H258002   2.336   0.929   4.643 -0.7775  0.3566 -0.3032
12171TIP3   OH258003   6.685   1.490   4.832  0.2139  0.0586  0.0902
12171TIP3    H158004   6.756   1.506   4.895 -0.6462 -1.1808  1.4327
12171TIP3    H258005   6.730   1.468   4.751  1.3622  0.1768  0.6697
12172TIP3   OH258006   4.647   5.081  17.004 -0.0429 -0.7502 -0.1258
12172TIP3    H158007   4.595   5.103  17.082  0.6509 -0.7745  0.3567
12172TIP3    H258008   4.603   5.127  16.932 -0.4552 -0.3828  0.3489
12173TIP3   OH258009   2.208   5.004   1.216  0.4276 -0.3928 -0.6186
12173TIP3    H158010   2.251   5.069   1.160 -0.1631  1.8327  1.3914
12173TIP3    H258011   2.117   5.005   1.188  0.3179  0.0402 -0.2584
12174TIP3   OH258012   0.216   3.808  15.751  0.3518 -0.5684  0.6940
12174TIP3    H158013   0.242   3.740  15.813  1.0218 -0.3499  0.6571
12174TIP3    H258014   0.172   3.760  15.681 -0.8285 -0.7702  1.5405
12175TIP3   OH258015   5.695   0.704  14.314  0.0965  0.2903 -0.1803
12175TIP3    H158016   5.784   0.670  14.308  1.2716  2.8703  1.2313
12175TIP3    H258017   5.701   0.792  14.278 -2.3565 -0.0846 -1.7798
12176TIP3   OH258018   4.126   1.724   5.196 -0.2410 -0.2787 -0.2445
12176TIP3    H158019   4.184   1.794   5.225 -0.2213  0.0980 -1.1613
12176TIP3    H258020   4.038   1.755   5.218 -0.3200  0.5563 -1.6607
12177TIP3   OH258021   5.209   3.005  12.629 -0.5507  0.2843 -0.1226
12177TIP3    H158022   5.160   3.038  12.704  1.1912  1.4958  0.5518
12177TIP3    H258023   5.212   3.079  12.568 -0.7234 -0.2196 -0.7588
12178TIP3   OH258024   5.405   6.113   3.758 -0.5550 -0.2042 -0.0302
12178TIP3    H158025   5.338   6.048   3.781  0.6139 -0.8916  1.5751
12178TIP3    H258026   5.484   6.083   3.801  0.6988  0.8838 -1.4516
12179TIP3   OH258027   6.130   4.674   3.542 -0.4837  0.2268 -0.3351
12179TIP3    H158028   6.188   4.641   3.611 -1.8366  0.8881  1.1841
12179TIP3    H258029   6.105   4.596   3.492 -0.2845 -0.4268  0.5661
12180TIP3   OH258030   5.147   0.591   1.018  0.6342 -1.0530 -0.1052
12180TIP3    H158031   5.136   0.583   0.924 -0.5443  2.0863 -0.3692
12180TIP3    H258032   5.233   0.633   1.029 -0.1469  0.6055 -0.0044
12181TIP3   OH258033   2.891   5.595  11.281 -0.1355 -0.8098  0.2627
12181TIP3    H158034   2.972   5.645  11.289  0.3020 -1.5388  0.5457
12181TIP3    H258035   2.827   5.658  11.248  0.3263 -0.0038  0.8660
12182TIP3   OH258036   5.151   4.765   3.043  0.1388 -0.2513 -0.0995
12182TIP3    H158037   5.245   4.782   3.040 -0.1306  1.2651 -1.4391
12182TIP3    H258038   5.125   4.794   3.130  0.7453  0.4011 -0.1189
12183TIP3   OH258039   4.395   3.614  15.440 -0.4216 -0.4091 -0.2067
12183TIP3    H158040   4.351   3.547  15.492 -1.7387  1.0361  0.6709
12183TIP3    H258041   4.466   3.645  15.497 -0.6475 -0.1792 -0.0402
12184TIP3   OH258042   5.520   1.732  15.969 -0.0931 -0.1579  0.2654
12184TIP3    H158043   5.450   1.721  15.905  1.7407 -0.7776 -1.7706
12184TIP3    H258044   5.538   1.644  16.002  0.0097 -0.0667  0.4567
12185TIP3   OH258045   3.304   5.260  12.432 -0.3202  0.2882  0.3761
12185TIP3    H158046   3.328   5.341  12.478  2.4951 -0.5591  0.5669
12185TIP3    H258047   3.336   5.190  12.488  1.3612 -0.8355 -1.8341
12186TIP3   OH258048   4.819   1.987  15.662  0.0857  0.7342 -0.3069
12186TIP3    H158049   4.759   2.034  15.604  1.1457  1.8622 -0.5235
12186TIP3    H258050   4.905   2.024  15.643  0.5425  0.7677  1.6081
12187TIP3   OH258051   3.037   5.146  16.599 -0.5233 -0.3346  0.0021
12187TIP3    H158052   2.956   5.182  16.635 -0.8906 -0.3223 -0.8204
12187TIP3    H258053   3.106   5.183  16.654 -1.0914 -0.6422  0.9481
12188TIP3   OH258054   1.904   0.005  16.708  0.3145  0.4421 -0.0439
12188TIP3    H158055   1.845   0.047  16.770  0.1567  1.5931 -0.9404
12188TIP3    H258056   1.887   0.048  16.625 -0.4983 -2.0366 -1.2585
12189TIP3   OH258057   1.153   4.794   2.530 -0.1373 -0.8727 -0.0837
12189TIP3    H158058   1.199   4.749   2.601  3.3640  1.8494 -0.3763
12189TIP3    H258059   1.094   4.854   2.574  2.2439  1.0301  0.7302
12190TIP3   OH258060   6.272   0.081  14.364  0.1143  0.2515  0.2861
12190TIP3    H158061   6.246   0.173  14.368 -0.6195  0.0349  0.6400
12190TIP3    H258062   6.255   0.055  14.274 -0.5706  0.2129  0.4215
12191TIP3   OH258063   3.301   1.482   6.357 -0.4191  0.1850  0.0558
12191TIP3    H158064   3.230   1.545   6.373  0.0391  0.8599 -0.4989
12191TIP3    H258065   3.365   1.531   6.306  0.2252 -0.5670  0.1256
12192TIP3   OH258066   3.908   6.713  12.113 -0.0962 -0.4817  0.5238
12192TIP3    H158067   4.000   6.725  12.136 -0.2352 -2.0186  2.1321
12192TIP3    H258068   3.892   6.775  12.041  1.7237  1.0440  1.3599
12193TIP3   OH258069   0.551   2.936   1.107 -0.2313 -0.1189  0.0747
12193TIP3    H158070   0.469   2.890   1.087 -0.0759  0.1327 -1.2198
12193TIP3    H258071   0.590   2.955   1.022  1.2086 -0.2612  0.6629
12194TIP3   OH258072   1.184   0.692   5.521 -0.1114 -0.6241 -0.6057
12194TIP3    H158073   1.115   0.705   5.455 -1.0464 -0.9400  0.2842
12194TIP3    H258074   1.173   0.766   5.581 -2.0505 -2.5061  1.5522
12195TIP3   OH258075   1.305   0.115  16.376  0.0493 -0.0477  0.7139
12195TIP3    H158076   1.391   0.142  16.343  0.1031  0.9535  1.6151
12195TIP3    H258077   1.246   0.124  16.300  0.4800  0.5964  0.4468
12196TIP3   OH258078   1.926   0.010   1.934  0.2700 -0.1196 -0.6804
12196TIP3    H158079   1.913  -0.058   2.001 -0.5096 -1.7078 -2.3628
12196TIP3    H258080   1.854   0.071   1.947  0.0376 -0.4870 -0.1922
12197TIP3   OH258081   6.193   4.656  11.835 -0.0689  0.0155  0.0605
12197TIP3    H158082   6.160   4.567  11.836 -0.2066  0.0370 -0.9510
12197TIP3    H258083   6.168   4.693  11.919 -0.1706 -0.8409  0.4094
12198TIP3   OH258084   4.950   2.030   2.575  0.1239 -0.3149 -0.6701
12198TIP3    H158085   5.045   2.039   2.568 -0.1004  2.1397 -1.4470
12198TIP3    H258086   4.919   2.036   2.485 -0.8417  0.0650 -0.3238
12199TIP3   OH258087   3.491   2.510  14.289 -0.0544  0.4813  0.1050
12199TIP3    H158088   3.464   2.575  14.355 -1.5041 -0.7806  0.8177
12199TIP3    H258089   3.479   2.426  14.332 -0.5993 -0.3719 -1.6156
12200TIP3   OH258090   5.095   3.327  13.351  0.0192 -0.1175 -0.4448
12200TIP3    H158091   5.019   3.274  13.374 -0.7843  0.5075 -1.5246
12200TIP3    H258092   5.123   3.366  13.434  0.2185 -1.6715  0.2420
12201TIP3   OH258093   5.026   4.429  13.145 -0.5727  0.1081  0.5132
12201TIP3    H158094   5.073   4.503  13.106 -2.2543  0.9385 -0.0532
12201TIP3    H258095   5.043   4.356  13.085  0.2193  0.3123  0.4792
12202TIP3   OH258096   5.071   2.525  13.828 -0.3774  0.1708 -0.1902
12202TIP3    H158097   5.110   2.502  13.744  0.8818  0.1139  0.3950
12202TIP3    H258098   5.107   2.611  13.849 -0.7615  0.2300  0.2556
12203TIP3   OH258099   3.854   0.264   5.130 -0.2300 -0.2535 -0.1674
12203TIP3    H158100   3.769   0.267   5.173 -0.7763 -0.6649 -1.2124
12203TIP3    H258101   3.860   0.347   5.083  0.2783  0.1046  0.5143
12204TIP3   OH258102   0.457   5.470  16.852  0.1728 -0.4532 -0.3759
12204TIP3    H158103   0.448   5.560  16.820  1.8896 -0.5237 -1.1767
12204TIP3    H258104   0.498   5.423  16.780  1.4745 -1.3137  0.8587
12205TIP3   OH258105   5.404   5.186  13.928  0.1475 -0.6676  0.2766
12205TIP3    H158106   5.371   5.213  13.842 -0.0987  0.4781  0.7174
12205TIP3    H258107   5.330   5.143  13.970 -0.5415  1.0589  0.8967
12206TIP3   OH258108   3.856   0.734   2.954 -0.4296 -0.2541 -0.3841
12206TIP3    H158109   3.822   0.729   2.864  1.6669  0.7604 -1.3147
12206TIP3    H258110   3.927   0.798   2.949  1.1021 -1.6928  1.5635
12207TIP3   OH258111   2.482   4.019   0.406  0.0862  0.2924  0.2907
12207TIP3    H158112   2.463   4.011   0.500  0.8286  1.6759  0.5864
12207TIP3    H258113   2.574   4.045   0.402 -0.1512  1.0414 -0.7847
12208TIP3   OH258114   5.103   5.430   0.533  0.3024 -0.4677 -0.4108
12208TIP3    H158115   5.011   5.453   0.524  0.0875 -1.2758 -0.3413
12208TIP3    H258116   5.149   5.514   0.528 -0.4981  0.0621  0.5849
12209TIP3   OH258117   5.913   3.864  13.271 -0.2242 -0.7180 -0.0997
12209TIP3    H158118   5.969   3.843  13.346  1.8731  2.3096 -0.6149
12209TIP3    H258119   5.848   3.925  13.306  0.2324  0.0335 -0.5248
12210TIP3   OH258120   4.083   4.332   4.079  0.2184  0.3465  0.0732
12210TIP3    H158121   4.100   4.257   4.136  0.0173  0.1434 -0.1352
12210TIP3    H258122   4.168   4.375   4.070  0.3472  0.1044  0.1374
12211TIP3   OH258123   0.167   0.431  11.511  0.2682  0.0385 -0.0765
12211TIP3    H158124   0.253   0.435  11.552  0.1472  2.9930  0.1161
12211TIP3    H258125   0.167   0.349  11.462  2.5536 -0.8106  1.2187
12212TIP3   OH258126   5.011   2.529   5.775 -0.5870 -0.0772 -0.2978
12212TIP3    H158127   5.043   2.607   5.730 -1.1462 -0.9226 -2.2528
12212TIP3    H258128   5.074   2.514   5.845 -0.0751  1.7008 -0.3384
12213TIP3   OH258129   4.317   2.042   3.052 -0.4876  0.1126 -0.0473
12213TIP3    H158130   4.292   1.957   3.016 -1.2857 -0.3804  1.5652
12213TIP3    H258131   4.255   2.057   3.124  1.8201  0.3903  2.0117
12214TIP3   OH258132   3.268   0.499  17.140 -0.3032 -1.0159 -0.0293
12214TIP3    H158133   3.283   0.455  17.223  1.4615 -0.1079  0.1837
12214TIP3    H258134   3.194   0.557  17.156  0.5256 -0.2570  1.1853
12215TIP3   OH258135   0.249   5.190   0.911  0.4943  0.0921  0.6561
12215TIP3    H158136   0.320   5.243   0.875 -0.4679  0.1763 -1.2070
12215TIP3    H258137   0.284   5.101   0.911  0.5597  0.1133 -0.3683
12216TIP3   OH258138   6.081   1.200  14.900  0.0241  0.4531 -0.9373
12216TIP3    H158139   6.101   1.117  14.858  0.1988  0.6780 -1.3088
12216TIP3    H258140   6.164   1.232  14.934 -0.1370  0.2210 -0.3220
12217TIP3   OH258141   4.403   1.416  15.481 -0.1670 -0.3020 -0.0952
12217TIP3    H158142   4.323   1.387  15.524  0.5675 -0.4099  1.2771
12217TIP3    H258143   4.407   1.510  15.498 -0.2069 -0.2176 -0.5307
12218TIP3   OH258144   1.422   0.914  14.078  0.0115  0.3182 -0.7071
12218TIP3    H158145   1.508   0.882  14.050  0.0234  0.4501 -0.8207
12218TIP3    H258146   1.441   0.993  14.128 -0.1277  1.1036 -1.8615
12219TIP3   OH258147   6.070   6.131  16.873 -0.1144  0.3849 -0.3908
12219TIP3    H158148   6.044   6.099  16.959  1.9237  2.3395  1.0514
12219TIP3    H258149   6.014   6.207  16.857  0.6848  1.0726  0.0319
12220TIP3   OH258150   2.510   6.587   3.119  0.0475  0.2472  0.1422
12220TIP3    H158151   2.507   6.643   3.041 -0.0213 -0.9237 -0.7353
12220TIP3    H258152   2.557   6.639   3.184 -0.9852  1.7587 -0.2522
12221TIP3   OH258153   4.177   2.403   4.357 -0.0421 -0.2980  0.0847
12221TIP3    H158154   4.268   2.431   4.356 -0.1375  0.0788  0.8804
12221TIP3    H258155   4.182   2.309   4.378  0.1140  0.1718  2.5222
12222TIP3   OH258156   5.950   3.732   5.955 -0.0513 -0.1467  0.1928
12222TIP3    H158157   5.991   3.745   6.040  0.2173 -0.5864  0.1381
12222TIP3    H258158   5.986   3.801   5.900  1.2467 -0.9897 -0.0657
12223TIP3   OH258159   1.512   5.391   0.854 -0.5705 -0.8911 -0.2589
12223TIP3    H158160   1.597   5.431   0.841 -0.7951 -0.4383 -0.3489
12223TIP3    H258161   1.531   5.299   0.874 -0.0516 -0.7149  0.0545
12224TIP3   OH258162   6.773   4.808   0.077  0.0453  0.4225  0.5230
12224TIP3    H158163   6.682   4.804   0.105 -0.3590  0.9127 -0.6565
12224TIP3    H258164   6.806   4.890   0.114 -1.0415  2.0632 -1.9169
12225TIP3   OH258165   2.711   0.350  13.596 -0.2851  0.0932 -0.3170
12225TIP3    H158166   2.699   0.257  13.618 -0.6497 -0.2663 -1.9229
12225TIP3    H258167   2.792   0.374  13.641 -0.6901 -0.7291  0.9125
12226TIP3   OH258168   0.215   4.990   2.849  0.3854  0.0996 -0.5926
12226TIP3    H158169   0.192   4.919   2.788  0.2317 -1.6282  1.3626
12226TIP3    H258170   0.305   5.013   2.826  1.2850 -2.3800  0.1334
12227TIP3   OH258171   5.650   6.404  15.541  0.0910 -0.8180 -0.0406
12227TIP3    H158172   5.617   6.326  15.497  0.3794 -0.6461 -0.5748
12227TIP3    H258173   5.573   6.459  15.554 -0.0355 -0.9747 -0.1261
12228TIP3   OH258174   0.226   0.487   4.731  0.2665  0.3349  0.2661
12228TIP3    H158175   0.213   0.417   4.667  1.4601 -0.6391  1.0326
12228TIP3    H258176   0.210   0.568   4.682  0.7462 -0.3909 -1.1518
12229TIP3   OH258177   0.387   2.296   1.357 -0.6720 -1.1114  1.0988
12229TIP3    H158178   0.464   2.308   1.413 -0.0979 -0.6700  0.2250
12229TIP3    H258179   0.416   2.237   1.288  0.4000  2.6055 -1.9506
12230TIP3   OH258180   0.729   3.444  16.199  0.1994  0.0255 -0.2093
12230TIP3    H158181   0.657   3.432  16.138 -0.2898  0.4059  0.2785
12230TIP3    H258182   0.788   3.505  16.155 -0.6616  1.1196  0.1017
12231TIP3   OH258183   4.887   6.647  16.316  0.0928  0.3463 -0.0019
12231TIP3    H158184   4.839   6.646  16.233 -0.4961  0.8145  0.3209
12231TIP3    H258185   4.852   6.723  16.362 -0.1921 -0.3984  1.0245
12232TIP3   OH258186   6.673   3.545   2.457 -0.1266 -0.0224  0.4173
12232TIP3    H158187   6.701   3.621   2.406 -0.7694 -0.5497 -0.7743
12232TIP3    H258188   6.743   3.532   2.520 -0.1587  1.7407  0.8750
12233TIP3   OH258189   1.695   6.405  12.169  0.0652 -0.4700  0.8361
12233TIP3    H158190   1.759   6.414  12.099 -0.5951 -0.5345  0.2099
12233TIP3    H258191   1.610   6.418  12.126 -0.2893  0.8319  1.8538
12234TIP3   OH258192   2.557   2.727   2.701 -0.7454  0.3904 -0.6822
12234TIP3    H158193   2.471   2.692   2.681 -0.7495  0.0509 -0.1032
12234TIP3    H258194   2.541   2.794   2.768 -0.3132 -1.6968  1.6581
12235TIP3   OH258195   4.232   6.516  12.266  0.2744 -0.1935 -0.3437
12235TIP3    H158196   4.301   6.449  12.268  1.5636  1.0993  0.6598
12235TIP3    H258197   4.262   6.580  12.202 -0.3373  0.0540 -0.3919
12236TIP3   OH258198   5.766   0.133   2.042  0.1690  0.0308  0.0122
12236TIP3    H158199   5.754   0.157   2.134  0.5858 -0.5685  0.2248
12236TIP3    H258200   5.681   0.095   2.017  0.4280 -0.9001  0.4956
12237TIP3   OH258201   4.538   1.592   4.703  0.4644  0.0365  0.8479
12237TIP3    H158202   4.470   1.652   4.674 -1.0732 -0.6952  2.7012
12237TIP3    H258203   4.568   1.549   4.623 -0.6086  1.0240 -0.1315
12238TIP3   OH258204   3.749   0.124   3.087 -0.0101  0.2716  0.3681
12238TIP3    H158205   3.828   0.176   3.101  1.0997 -1.0899 -0.5685
12238TIP3    H258206   3.687   0.156   3.153  0.2201  3.4860 -0.7987
12239TIP3   OH258207   5.342   5.905  15.280  0.2186 -0.3981  0.3802
12239TIP3    H158208   5.435   5.918  15.264 -0.1804  1.1752 -0.9798
12239TIP3    H258209   5.298   5.958  15.213 -1.6572 -0.3653  1.5402
12240TIP3   OH258210   3.359   0.649   5.438  0.3877  0.3711  0.1265
12240TIP3    H158211   3.413   0.572   5.420  0.1148  0.4083 -0.9346
12240TIP3    H258212   3.271   0.614   5.451  0.3862  0.4485  0.3352
12241TIP3   OH258213   6.525   1.733  15.103  0.3597 -0.3044 -0.0456
12241TIP3    H158214   6.535   1.766  15.193 -0.0178  0.9857 -0.4554
12241TIP3    H258215   6.443   1.772  15.072  0.8056 -0.2223 -1.1619
12242TIP3   OH258216   3.563   0.589  14.330 -0.4205  0.0378  0.1005
12242TIP3    H158217   3.573   0.678  14.363 -0.4804  0.0454  0.0978
12242TIP3    H258218   3.557   0.535  14.408  1.9246 -0.2443  0.1646
12243TIP3   OH258219   1.132   3.674   2.366 -0.1588 -0.2351  0.4705
12243TIP3    H158220   1.145   3.667   2.460  1.2738  1.1279  0.4214
12243TIP3    H258221   1.170   3.594   2.330 -1.3936 -1.1163  1.0751
12244TIP3   OH258222   2.007   5.798  12.105 -0.5392  0.1159  0.1762
12244TIP3    H158223   2.035   5.865  12.042 -0.1972  1.2098  1.4402
12244TIP3    H258224   2.083   5.784  12.161 -0.9902 -0.4577  0.6619
12245TIP3   OH258225   0.765   3.080   2.660  0.3688 -0.1643  0.3144
12245TIP3    H158226   0.730   3.044   2.741 -1.3617 -1.7617 -1.0475
12245TIP3    H258227   0.860   3.080   2.673  0.3090 -2.8786  1.4389
12246TIP3   OH258228   5.064   5.517   3.931 -0.5753 -0.4618 -0.1977
12246TIP3    H158229   5.155   5.518   3.960 -1.1507  0.9146  1.7220
12246TIP3    H258230   5.067   5.472   3.846  2.0407  0.5124 -0.7237
12247TIP3   OH258231   0.268   0.911  10.666 -0.2920  0.4079 -0.3648
12247TIP3    H158232   0.195   0.849  10.674 -0.3310  0.4492 -0.4021
12247TIP3    H258233   0.226   0.993  10.641 -0.1631  0.2771 -1.0033
12248TIP3   OH258234   5.179   2.654   4.279  0.1338 -0.0899 -0.0948
12248TIP3    H158235   5.145   2.738   4.312  1.9316 -0.0672  1.8805
12248TIP3    H258236   5.265   2.676   4.243  1.7617 -1.4027  2.7550
12249TIP3   OH258237   5.943   3.529   3.115  0.0038  0.1421  0.5482
12249TIP3    H158238   5.914   3.464   3.179  1.6120 -1.5196 -0.3097
12249TIP3    H258239   5.970   3.604   3.168 -1.5576  0.0166  1.5922
12250TIP3   OH258240   5.644   3.941  13.065 -0.0575 -0.1606 -0.1172
12250TIP3    H158241   5.714   4.002  13.043 -0.5834 -0.0110 -1.4803
12250TIP3    H258242   5.688   3.869  13.110  0.5666  1.2021  1.5917
12251TIP3   OH258243   4.624   6.491   5.905 -0.1838 -0.4818 -0.2231
12251TIP3    H158244   4.579   6.449   5.831 -2.6484  0.1743  0.8020
12251TIP3    H258245   4.576   6.461   5.982  0.7445  0.8108  0.9042
12252TIP3   OH258246   3.150   4.668  11.418  0.1558  0.5749  0.1542
12252TIP3    H158247   3.067   4.678  11.465 -0.1906 -0.9919 -0.0718
12252TIP3    H258248   3.128   4.686  11.326  0.2125  0.8175  0.1878
12253TIP3   OH258249   6.328   0.502  13.413 -0.5375  0.5372  0.3103
12253TIP3    H158250   6.261   0.497  13.345  0.3329 -2.4500 -0.4880
12253TIP3    H258251   6.317   0.421  13.463  1.8548  0.3661  0.6907
12254TIP3   OH258252   5.272   0.431  13.810 -0.2530 -0.3743 -0.0805
12254TIP3    H158253   5.242   0.362  13.869 -1.6783  0.5585  0.3260
12254TIP3    H258254   5.358   0.402  13.781  0.2481 -1.1312  2.0114
12255TIP3   OH258255   4.184   6.499   3.049 -0.2163  0.0594 -0.3344
12255TIP3    H158256   4.124   6.566   3.080 -0.5637 -0.4534  0.1136
12255TIP3    H258257   4.128   6.433   3.009  0.0855 -0.1938 -0.3401
12256TIP3   OH258258   3.101   3.451   0.199  0.1867 -0.3727 -0.3358
12256TIP3    H158259   3.046   3.374   0.215  0.2910 -0.9125 -2.3036
12256TIP3    H258260   3.065   3.519   0.257 -2.1547 -0.9061 -1.0391
12257TIP3   OH258261   0.322   1.130   6.195  0.0942  1.0945  0.3369
12257TIP3    H158262   0.346   1.222   6.196  1.3937  0.7726  0.9131
12257TIP3    H258263   0.376   1.090   6.264 -1.6633  0.1988  1.2635
12258TIP3   OH258264   2.096   2.195   5.787  0.0605 -0.3629 -0.2405
12258TIP3    H158265   2.103   2.250   5.865 -1.0902  1.1701 -1.1580
12258TIP3    H258266   2.040   2.122   5.814  1.2641 -0.9153  0.8779
12259TIP3   OH258267   2.520   5.237   0.856  0.5460 -0.0064 -0.3820
12259TIP3    H158268   2.607   5.274   0.870  0.4380 -0.1255  0.7522
12259TIP3    H258269   2.468   5.310   0.823  0.5327  0.6772  1.0748
12260TIP3   OH258270   2.674   5.710  16.795  0.6692  0.1089  0.5599
12260TIP3    H158271   2.679   5.687  16.888  1.4869  0.9541  0.7374
12260TIP3    H258272   2.665   5.805  16.793  0.7886  0.1162 -0.2198
12261TIP3   OH258273   2.757   5.092   0.114 -0.3982 -0.4939  0.5446
12261TIP3    H158274   2.804   5.010   0.125 -1.8459 -1.8823 -2.4473
12261TIP3    H258275   2.665   5.067   0.113 -0.8828  1.1420 -0.3417
12262TIP3   OH258276   5.477   4.273  13.112 -0.6286  0.4865  0.2245
12262TIP3    H158277   5.541   4.238  13.174 -0.7405 -1.6958 -0.8180
12262TIP3    H258278   5.519   4.267  13.027 -0.7385  2.8234 -0.0550
12263TIP3   OH258279   6.366   6.071  17.216  0.5132  0.5898  0.2051
12263TIP3    H158280   6.347   5.977  17.225  0.0347  0.8154  1.9550
12263TIP3    H258281   6.392   6.082  17.124  0.5467 -1.2431 -0.0383
12264TIP3   OH258282   3.300   1.273   2.598 -0.3553  0.7369 -0.3147
12264TIP3    H158283   3.218   1.322   2.601 -0.3526  0.8817 -1.7539
12264TIP3    H258284   3.362   1.326   2.648 -0.4625  2.0386 -1.5003
12265TIP3   OH258285   3.488   4.017  14.550 -0.9380 -0.0863 -0.1078
12265TIP3    H158286   3.578   4.012  14.520 -0.2542  0.9133  1.6221
12265TIP3    H258287   3.467   4.110  14.550 -0.2194  0.2583  4.0635
12266TIP3   OH258288   3.670   0.952   1.591  0.2544 -0.4272  0.1016
12266TIP3    H158289   3.607   0.927   1.524  0.6988 -1.0415 -0.0970
12266TIP3    H258290   3.695   1.042   1.569 -0.9259  0.0092  0.4804
12267TIP3   OH258291   5.616   1.321   4.939 -0.9877  1.0533  0.7489
12267TIP3    H158292   5.576   1.370   5.010  0.0953  1.0490  1.3934
12267TIP3    H258293   5.693   1.280   4.979 -0.7910  0.4131 -0.2415
12268TIP3   OH258294   3.797   0.281   4.249  0.3186  0.4479 -0.2604
12268TIP3    H158295   3.737   0.329   4.191  0.8487 -0.9512 -2.0557
12268TIP3    H258296   3.884   0.313   4.225  0.5296 -0.0078 -0.1202
12269TIP3   OH258297   5.619   3.449  16.210 -0.4063 -0.2484  0.6333
12269TIP3    H158298   5.678   3.385  16.249 -0.7002 -0.9502 -0.0397
12269TIP3    H258299   5.567   3.399  16.147 -0.9964  0.5539  0.4552
12270TIP3   OH258300   5.842   0.804   4.805  0.1706 -0.1778 -0.1244
12270TIP3    H158301   5.912   0.766   4.857  1.7166  3.1918  0.5682
12270TIP3    H258302   5.769   0.815   4.867  0.9732  1.0999  0.6548
12271TIP3   OH258303   5.279   4.718  16.051 -0.5738 -0.1783  0.7746
12271TIP3    H158304   5.351   4.683  15.998 -1.9778  0.1506 -1.4844
12271TIP3    H258305   5.243   4.641  16.095  0.4180 -0.5250  1.0003
12272TIP3   OH258306   6.362   4.370  12.626 -0.4602  0.0506  0.0927
12272TIP3    H158307   6.350   4.275  12.617  1.0726 -0.4028  2.1456
12272TIP3    H258308   6.298   4.408  12.566 -1.2986 -2.2751 -0.5836
12273TIP3   OH258309   1.580   6.189  16.378  0.3128 -0.3461 -0.1518
12273TIP3    H158310   1.507   6.186  16.439 -0.1739 -0.9031 -0.7498
12273TIP3    H258311   1.585   6.101  16.341  1.3825 -0.3577 -0.0151
12274TIP3   OH258312   4.121   5.625  14.310  0.6905 -0.0748  0.3078
12274TIP3    H158313   4.196   5.661  14.357  1.8686 -0.0678 -1.4660
12274TIP3    H258314   4.160   5.565  14.246 -0.9164 -1.0464  0.1925
12275TIP3   OH258315   4.877   1.605  11.989  0.2889  0.1589  0.3699
12275TIP3    H158316   4.783   1.595  12.004  0.2369 -0.0717 -0.0982
12275TIP3    H258317   4.885   1.620  11.895  0.7120  0.2967  0.4255
12276TIP3   OH258318   6.691   2.865   5.289  0.1406 -0.2592  0.2866
12276TIP3    H158319   6.656   2.786   5.329  2.7258 -0.4607  2.4357
12276TIP3    H258320   6.664   2.936   5.348 -1.9683  0.5549 -1.5025
12277TIP3   OH258321   5.748   2.067  12.164  0.1013 -0.0961  0.6506
12277TIP3    H158322   5.790   2.152  12.154  0.3584 -0.3065 -0.0940
12277TIP3    H258323   5.654   2.085  12.157  0.0939  0.2725  1.5853
12278TIP3   OH258324   2.107   4.349  12.758  0.2185 -0.5237 -0.5697
12278TIP3    H158325   2.115   4.320  12.667  1.4113  1.7362 -1.2474
12278TIP3    H258326   2.146   4.277  12.809 -0.7844 -1.9797 -1.7518
12279TIP3   OH258327   2.843   2.251   0.855  0.2825  0.4054 -0.5655
12279TIP3    H158328   2.768   2.310   0.866  0.5567  1.0000 -1.6693
12279TIP3    H258329   2.895   2.292   0.785  0.9160 -0.7257 -0.7760
12280TIP3   OH258330   4.744   0.411   1.829  0.3834 -0.1179 -0.5790
12280TIP3    H158331   4.746   0.499   1.866  0.4936  0.3757 -1.7436
12280TIP3    H258332   4.662   0.407   1.781 -1.0556 -1.6473  1.7647
12281TIP3   OH258333   5.160   4.117  12.019  0.2581  0.4606  0.3704
12281TIP3    H158334   5.183   4.041  11.967  0.9399  0.0197  1.2855
12281TIP3    H258335   5.066   4.108  12.034  0.1403  0.3629 -0.3966
12282TIP3   OH258336   1.982   3.234  16.313 -0.5712 -0.3345 -0.6650
12282TIP3    H158337   2.078   3.232  16.309 -0.5030  1.2749 -0.5248
12282TIP3    H258338   1.954   3.196  16.230  0.2144  0.0790 -1.1391
12283TIP3   OH258339   1.897   0.420   2.385 -0.0092 -0.3400 -0.2151
12283TIP3    H158340   1.906   0.480   2.460 -0.6838 -2.2920  1.5353
12283TIP3    H258341   1.981   0.426   2.340  0.0525  1.6539  0.0477
12284TIP3   OH258342   6.194   5.572  17.045 -0.6395  0.0304 -0.1309
12284TIP3    H158343   6.182   5.521  17.125  0.4927  0.6525  0.4582
12284TIP3    H258344   6.257   5.522  16.994  0.6968  0.9307  0.5772
12285TIP3   OH258345   6.039   4.016  13.640  0.0927  0.2186 -0.2518
12285TIP3    H158346   6.009   4.067  13.715 -0.6217 -0.3497 -0.1348
12285TIP3    H258347   6.134   4.010  13.652  0.0491  0.5575  0.3351
12286TIP3   OH258348   2.440   4.640   3.819 -0.3101 -0.8595 -1.1070
12286TIP3    H158349   2.453   4.575   3.888 -1.2940 -1.4835 -1.4823
12286TIP3    H258350   2.518   4.695   3.822 -1.2215  0.4403  1.8719
12287TIP3   OH258351   6.051   6.407  14.957  0.4533 -0.0571  0.1879
12287TIP3    H158352   6.096   6.329  14.990 -1.0597 -1.0265  0.0343
12287TIP3    H258353   5.958   6.386  14.963 -0.0433  2.0798  0.9491
12288TIP3   OH258354   1.512   3.205   5.370  0.0465 -0.3358 -0.1220
12288TIP3    H158355   1.500   3.139   5.438  0.2169 -1.2142 -0.9302
12288TIP3    H258356   1.439   3.265   5.382  0.0103 -0.5331  0.7580
12289TIP3   OH258357   4.107   3.175   2.283 -0.1120 -0.1321 -0.3014
12289TIP3    H158358   4.157   3.128   2.216  1.2423  1.3025 -0.3545
12289TIP3    H258359   4.127   3.127   2.364  0.3524 -0.3295 -0.5270
12290TIP3   OH258360   6.204   6.338  16.337  0.6785 -0.0498  0.3227
12290TIP3    H158361   6.154   6.272  16.385  0.4689 -0.4620 -0.4361
12290TIP3    H258362   6.259   6.379  16.403 -1.1644  0.9307  1.3382
12291TIP3   OH258363   5.753   0.527  14.801  0.1531 -0.3293  0.6507
12291TIP3    H158364   5.680   0.548  14.743  0.9433  1.6261  0.2833
12291TIP3    H258365   5.731   0.569  14.884  0.6966 -0.0159  0.6419
12292TIP3   OH258366   2.305   0.212   5.056  0.1791  0.2172  0.0181
12292TIP3    H158367   2.268   0.209   4.968 -0.0799 -1.2654  0.1476
12292TIP3    H258368   2.366   0.286   5.055 -1.5859  1.7430 -0.6821
12293TIP3   OH258369   3.141   1.005  12.012 -0.0047  0.2246  0.1161
12293TIP3    H158370   3.175   0.928  11.965  1.4025  0.6364  0.3896
12293TIP3    H258371   3.052   0.982  12.036 -0.5919 -0.2453 -2.2361
12294TIP3   OH258372   1.588   6.393   5.870 -0.5503  0.3065  0.3166
12294TIP3    H158373   1.524   6.351   5.928 -0.1090  0.8712  1.2259
12294TIP3    H258374   1.664   6.335   5.874 -0.1864  0.8259  1.0384
12295TIP3   OH258375   4.993   1.515  13.039 -0.2291 -0.1058  1.0734
12295TIP3    H158376   4.914   1.462  13.024 -0.2213  0.3186 -0.7530
12295TIP3    H258377   5.048   1.461  13.096 -2.1311 -0.0817  3.0550
12296TIP3   OH258378   6.229   2.859  16.986 -0.0089 -0.4475  0.2869
12296TIP3    H158379   6.271   2.852  17.072 -0.8019  0.2106  0.7481
12296TIP3    H258380   6.144   2.900  17.005  0.7730  2.0096 -1.0940
12297TIP3   OH258381   0.461   2.756   5.835 -0.4572  0.0341 -0.4054
12297TIP3    H158382   0.478   2.690   5.902  2.1015  0.5368 -0.4450
12297TIP3    H258383   0.406   2.712   5.771  1.3686 -2.2183 -0.5579
12298TIP3   OH258384   1.235   5.913  11.665  0.0701 -0.2404  0.5136
12298TIP3    H158385   1.245   5.887  11.757 -1.5296  0.2693  0.8749
12298TIP3    H258386   1.301   5.862  11.618  0.7352 -0.7242  1.9019
12299TIP3   OH258387   1.673   1.970  17.241  0.7187  0.1907  0.2004
12299TIP3    H158388   1.766   1.951  17.225  0.8951  0.7206  0.5770
12299TIP3    H258389   1.671   2.062  17.266 -0.1839  0.8801 -2.0832
12300TIP3   OH258390   0.784   1.382  14.191  0.0292 -0.8422 -0.0712
12300TIP3    H158391   0.823   1.359  14.275  1.2294 -1.4703 -0.7716
12300TIP3    H258392   0.857   1.416  14.140 -0.3825 -1.8079 -1.3459
12301TIP3   OH258393   6.040   1.792  17.202  0.4363 -0.0786 -0.3678
12301TIP3    H158394   6.133   1.793  17.179  0.2493 -1.2883 -1.2664
12301TIP3    H258395   6.013   1.884  17.194  1.1136  0.0055 -2.0641
12302TIP3   OH258396   1.566   3.513  15.792  0.5257  0.3356 -0.0817
12302TIP3    H158397   1.542   3.486  15.881 -1.9070  0.6661 -0.5560
12302TIP3    H258398   1.530   3.601  15.783 -2.4919 -0.9466 -2.4466
12303TIP3   OH258399   0.425   3.908   5.691  0.1030  0.3256  0.1962
12303TIP3    H158400   0.399   3.830   5.740  0.3410 -0.3546 -0.7343
12303TIP3    H258401   0.517   3.895   5.671  0.6205  1.6603  1.4775
12304TIP3   OH258402   0.986   2.077   5.528  0.2262 -0.3170 -0.1461
12304TIP3    H158403   1.033   2.071   5.612  1.8078  0.5463 -0.9225
12304TIP3    H258404   1.019   2.003   5.477 -1.6261 -1.5608  0.3643
12305TIP3   OH258405   2.000   3.263   0.945  0.1550  0.0526 -0.1953
12305TIP3    H158406   2.013   3.350   0.907  1.6947 -0.6944 -1.5257
12305TIP3    H258407   1.987   3.205   0.869 -0.9733 -0.8846  0.6627
12306TIP3   OH258408   1.648   6.184   6.196 -0.0797  0.4018  0.1204
12306TIP3    H158409   1.581   6.117   6.181 -0.2864  0.2973  1.4347
12306TIP3    H258410   1.723   6.155   6.143 -0.4581 -0.4145  0.0205
12307TIP3   OH258411   3.139   6.717   5.210  0.2624  0.1854  0.5428
12307TIP3    H158412   3.122   6.788   5.272  2.1947  2.3198 -1.2102
12307TIP3    H258413   3.093   6.743   5.130  0.4907 -0.8839  0.0481
12308TIP3   OH258414   0.125   2.229   1.419  0.1113 -0.5055 -0.1272
12308TIP3    H158415   0.130   2.146   1.373  1.6308 -0.8966  0.6508
12308TIP3    H258416   0.206   2.274   1.396  0.2932 -0.1631  1.1056
12309TIP3   OH258417   4.175   2.353  13.992  0.1839 -0.4553  0.3838
12309TIP3    H158418   4.183   2.263  14.023  1.2455 -1.0449 -1.4646
12309TIP3    H258419   4.108   2.392  14.049  0.9830 -1.8507  2.4089
12310TIP3   OH258420   0.409   6.542  12.158 -0.2915 -0.5192  0.4258
12310TIP3    H158421   0.470   6.517  12.088 -0.6974  0.6567 -0.3863
12310TIP3    H258422   0.450   6.510  12.238  0.3831 -1.5560 -0.3014
12311TIP3   OH258423   2.399   0.883  14.576  0.1541  0.1668  0.3213
12311TIP3    H158424   2.331   0.835  14.624  0.3459  1.0618  1.5186
12311TIP3    H258425   2.456   0.919  14.643 -0.0275  2.1441 -0.5220
12312TIP3   OH258426   3.240   1.893   3.077  0.3878 -0.5570 -0.2601
12312TIP3    H158427   3.166   1.933   3.031  0.9986 -1.4492 -2.1308
12312TIP3    H258428   3.203   1.863   3.160 -0.8703  0.7556 -0.3024
12313TIP3   OH258429   2.056   4.455  14.374  0.3609 -0.5682  0.1174
12313TIP3    H158430   2.057   4.526  14.310 -0.8481  1.1814  1.9004
12313TIP3    H258431   2.140   4.411  14.363  1.1125  1.0925 -1.1237
12314TIP3   OH258432   5.599   5.417  12.187  0.1268  0.0644 -0.5949
12314TIP3    H158433   5.552   5.377  12.114  0.0383  0.1967 -0.6107
12314TIP3    H258434   5.681   5.448  12.149  0.1586 -0.0265 -0.6002
12315TIP3   OH258435   2.095   3.304   3.817  0.7211  0.2696  0.2256
12315TIP3    H158436   2.167   3.288   3.756 -0.4361 -0.5203 -0.9792
12315TIP3    H258437   2.045   3.375   3.777 -0.1875 -0.4218  0.1131
12316TIP3   OH258438   1.101   1.251  12.024 -0.3816 -0.2095 -0.1709
12316TIP3    H158439   1.097   1.205  11.940 -0.1001 -1.4799  0.4865
12316TIP3    H258440   1.128   1.340  12.002 -1.1793 -0.2825 -1.5072
12317TIP3   OH258441   2.861   3.901   1.181  0.5465 -0.1702  0.6002
12317TIP3    H158442   2.922   3.969   1.210 -0.2804  0.9134 -0.1340
12317TIP3    H258443   2.893   3.821   1.223  2.0808  0.4860  0.7570
12318TIP3   OH258444   5.746   5.157   6.076  0.5693 -0.0651  0.1305
12318TIP3    H158445   5.701   5.083   6.036 -0.5805  0.2256  0.8420
12318TIP3    H258446   5.830   5.162   6.030 -0.4215 -0.1251 -1.7968
12319TIP3   OH258447   4.752   0.819   0.279 -0.8046  0.2625 -0.1531
12319TIP3    H158448   4.826   0.800   0.222  1.3454 -0.1685  2.5786
12319TIP3    H258449   4.746   0.914   0.279  0.4587  0.3590  0.3846
12320TIP3   OH258450   5.110   1.619  11.220  0.1807 -0.5981  0.2404
12320TIP3    H158451   5.089   1.585  11.133  0.4195 -0.2119  0.0341
12320TIP3    H258452   5.030   1.663  11.248  0.8790  1.4171 -0.8048
12321TIP3   OH258453   0.127   2.237   0.380  0.3545  0.4469 -0.1464
12321TIP3    H158454   0.177   2.238   0.462  0.1411 -2.1479  0.0941
12321TIP3    H258455   0.178   2.182   0.321 -0.6508  0.3594 -0.9690
12322TIP3   OH258456   0.360   1.850   4.784 -0.0036 -0.1359  0.4811
12322TIP3    H158457   0.414   1.893   4.718 -1.0897  1.2693  0.4574
12322TIP3    H258458   0.270   1.878   4.764 -0.3828  0.1797  2.4223
12323TIP3   OH258459   6.267   2.965   5.893 -0.3647  0.2491 -0.3281
12323TIP3    H158460   6.195   2.989   5.835 -0.7995 -0.3710 -0.0506
12323TIP3    H258461   6.246   3.006   5.977 -1.2446 -1.2538  0.2253
12324TIP3   OH258462   4.630   3.460   0.599 -0.2007 -0.1312 -0.6016
12324TIP3    H158463   4.655   3.367   0.597 -0.8188 -0.3083 -0.2695
12324TIP3    H258464   4.589   3.474   0.513 -2.2129 -0.7811  0.1939
12325TIP3   OH258465   0.001   6.099  14.257  0.4763 -0.0147  0.6891
12325TIP3    H158466  -0.081   6.143  14.235  0.4021 -0.6670 -0.3964
12325TIP3    H258467  -0.005   6.014  14.213  1.3832 -0.3916  1.2741
12326TIP3   OH258468   6.443   1.824   2.497 -0.0023 -0.3846  0.8992
12326TIP3    H158469   6.401   1.899   2.540 -0.4230  0.1720 -0.4322
12326TIP3    H258470   6.375   1.757   2.496  0.2416 -0.6553  1.7229
12327TIP3   OH258471   2.773   4.418  17.213 -0.2700  0.3416 -0.3106
12327TIP3    H158472   2.754   4.508  17.190 -0.1890  0.7789  1.2389
12327TIP3    H258473   2.690   4.382  17.244 -0.2090  0.0163 -0.5169
12328TIP3   OH258474   1.104   0.581  12.556 -0.0889 -0.2699  0.1412
12328TIP3    H158475   1.080   0.496  12.519 -0.0328  0.1860 -0.9960
12328TIP3    H258476   1.087   0.643  12.485  0.2802  0.6150  0.8116
12329TIP3   OH258477   4.234   2.527   1.615 -0.1095 -0.0887 -0.3715
12329TIP3    H158478   4.231   2.466   1.541  1.0855 -1.2768  0.5097
12329TIP3    H258479   4.296   2.595   1.588  0.2564 -0.4696 -0.5004
12330TIP3   OH258480   5.188   0.907  13.139  0.1642  0.0329  0.2101
12330TIP3    H158481   5.210   0.982  13.083  0.5749 -0.4210 -0.2395
12330TIP3    H258482   5.228   0.927  13.223 -0.5825  0.7938  0.4005
12331TIP3   OH258483   2.004   0.001   0.686 -0.1444  0.4312 -0.5402
12331TIP3    H158484   1.931   0.053   0.720 -1.1745 -1.2782 -0.0006
12331TIP3    H258485   2.019  -0.066   0.753  0.8930 -0.1732 -1.3557
12332TIP3   OH258486   6.274   1.287   2.843 -0.4523 -0.4332  0.4930
12332TIP3    H158487   6.224   1.251   2.770  0.7273  1.9087 -1.6508
12332TIP3    H258488   6.346   1.225   2.856  1.1270  0.5447 -2.6005
12333TIP3   OH258489   3.106   5.570   3.255 -0.1933 -0.2062 -0.0805
12333TIP3    H158490   3.094   5.569   3.160  0.0198 -2.9001 -0.1676
12333TIP3    H258491   3.017   5.567   3.290 -0.2394 -1.1115 -0.2589
12334TIP3   OH258492   0.330   2.949  11.389  0.0701 -0.1985  0.0219
12334TIP3    H158493   0.257   2.929  11.331 -0.2294 -0.3585  0.4532
12334TIP3    H258494   0.308   3.033  11.428  0.8687  0.5432 -1.0440
12335TIP3   OH258495   1.078   5.224   5.452  0.2163 -0.2208 -0.6988
12335TIP3    H158496   0.987   5.196   5.453  0.2731 -0.5057 -1.9749
12335TIP3    H258497   1.085   5.287   5.523 -0.2309 -2.4407  1.4504
12336TIP3   OH258498   1.070   5.330  16.514  0.0411  0.0692 -0.3854
12336TIP3    H158499   1.147   5.350  16.568 -0.0089 -0.1608 -0.2246
12336TIP3    H258500   1.092   5.248  16.471  0.2548  0.4780 -1.0615
12337TIP3   OH258501   3.792   4.153   1.581  0.6525 -0.1455  0.2119
12337TIP3    H158502   3.798   4.088   1.511  0.3250  0.3889 -0.3183
12337TIP3    H258503   3.788   4.237   1.535  1.1917  0.2613  0.8943
12338TIP3   OH258504   5.901   0.679   2.878 -0.2446 -0.0871  0.4440
12338TIP3    H158505   5.808   0.695   2.895  0.1696  2.5174  0.7557
12338TIP3    H258506   5.946   0.749   2.925  1.7533 -0.1539 -1.2311
12339TIP3   OH258507   6.229   5.227  16.208  0.0416  0.3517  0.8787
12339TIP3    H158508   6.268   5.311  16.182  0.7501 -0.9154 -2.7342
12339TIP3    H258509   6.292   5.190  16.270  1.5858  0.9829 -0.2451
12340TIP3   OH258510   1.496   6.260  16.977  0.0163  1.2821  0.2110
12340TIP3    H158511   1.445   6.190  17.018 -0.6975  2.0477  0.6393
12340TIP3    H258512   1.570   6.214  16.936 -1.1722  0.1339 -0.7070
12341TIP3   OH258513   1.035   6.568  11.682  0.0947  0.0537  0.2625
12341TIP3    H158514   1.042   6.639  11.619 -1.3597 -0.7691 -0.8865
12341TIP3    H258515   1.124   6.533  11.688  0.4253  0.6787 -0.7068
12342TIP3   OH258516   4.784   4.031  16.656  0.1983 -0.3863 -0.4735
12342TIP3    H158517   4.750   4.006  16.570  0.0068  1.1187 -0.8521
12342TIP3    H258518   4.840   4.107  16.639 -1.3329  1.1340  0.9527
12343TIP3   OH258519   0.402   0.503   0.666 -0.2569  0.3198 -0.2356
12343TIP3    H158520   0.339   0.502   0.594  0.7397  0.2962 -1.1340
12343TIP3    H258521   0.428   0.594   0.674  0.4657  0.1569 -0.6634
12344TIP3   OH258522   1.596   5.188  12.819  0.5632 -0.0231 -0.5098
12344TIP3    H158523   1.635   5.268  12.785  0.9386 -0.4220 -1.0324
12344TIP3    H258524   1.532   5.162  12.753  0.0037  0.1705 -0.0524
12345TIP3   OH258525   2.608   0.957  16.320 -0.1998  0.2502 -0.5732
12345TIP3    H158526   2.625   0.864  16.310  1.3947  0.4823 -0.3316
12345TIP3    H258527   2.531   0.962  16.376  1.4444 -0.9546  1.9777
12346TIP3   OH258528   4.868   5.415  15.942  0.8228  0.5136  0.5669
12346TIP3    H158529   4.865   5.383  16.032 -0.5662  0.4772  0.5247
12346TIP3    H258530   4.939   5.366  15.902  0.6999 -0.3124  1.3296
12347TIP3   OH258531   3.030   6.534  14.550  0.7554 -0.4695 -0.4995
12347TIP3    H158532   3.073   6.463  14.502 -0.2414 -1.9999  0.7550
12347TIP3    H258533   3.059   6.522  14.641  1.2127  1.2696 -0.3885
12348TIP3   OH258534   5.561   4.275  15.386  0.0839  0.0077  0.3002
12348TIP3    H158535   5.579   4.182  15.394  0.5843 -0.1668 -2.2032
12348TIP3    H258536   5.598   4.313  15.466 -0.0587 -1.8802  1.3309
12349TIP3   OH258537   0.296   5.012  13.801  0.5383 -0.1993 -0.1331
12349TIP3    H158538   0.341   5.009  13.885  2.9634  0.9259 -1.3100
12349TIP3    H258539   0.275   4.921  13.782  2.4290 -0.7795  0.4346
12350TIP3   OH258540   6.475   2.610  12.735  0.0636 -0.2873 -0.2483
12350TIP3    H158541   6.538   2.682  12.737  1.2383 -1.2822 -0.6094
12350TIP3    H258542   6.459   2.590  12.827  0.4500 -0.1649 -0.1507
12351TIP3   OH258543   3.458   4.228   6.261  0.3450 -0.1111  0.1511
12351TIP3    H158544   3.512   4.150   6.270 -0.0774 -0.5705 -1.1568
12351TIP3    H258545   3.389   4.217   6.326  1.8111  0.5446  1.9411
12352TIP3   OH258546   1.760   4.884  13.769 -0.6893  0.0518  0.2825
12352TIP3    H158547   1.708   4.877  13.849 -1.3890 -0.6921 -0.2215
12352TIP3    H258548   1.849   4.902  13.800 -1.4771  3.1252  1.1080
12353TIP3   OH258549   3.774   6.335   5.849  0.1722  0.1129  0.2076
12353TIP3    H158550   3.804   6.273   5.915  1.1598 -0.2875 -0.5858
12353TIP3    H258551   3.837   6.407   5.853 -1.0733  1.2089  1.2552
12354TIP3   OH258552   5.985   4.720  13.571 -0.0506  0.2795 -0.2468
12354TIP3    H158553   5.991   4.787  13.638 -0.0655  0.6298 -0.5938
12354TIP3    H258554   5.920   4.753  13.509 -0.2859 -0.1923 -0.2633
12355TIP3   OH258555   5.935   2.255  14.650 -0.1916 -0.2035  0.0347
12355TIP3    H158556   5.972   2.331  14.605  1.6937 -1.1282 -0.0713
12355TIP3    H258557   5.898   2.291  14.731  0.3988  0.8653 -0.1533
12356TIP3   OH258558   3.075   6.245  16.888  0.0043  0.8292 -0.1349
12356TIP3    H158559   3.118   6.160  16.893  0.8318  1.1824 -0.8859
12356TIP3    H258560   3.011   6.244  16.960  1.7304  0.5409  1.4814
12357TIP3   OH258561   6.306   1.171   6.406  0.8692  0.5272 -0.6324
12357TIP3    H158562   6.316   1.240   6.472  1.9827  0.2697 -0.5098
12357TIP3    H258563   6.302   1.090   6.456 -3.2469  0.5959 -0.5650
12358TIP3   OH258564   0.229   5.599   3.782  0.2811  0.1746  0.3391
12358TIP3    H158565   0.242   5.505   3.796 -0.2943 -0.1229 -0.9779
12358TIP3    H258566   0.167   5.624   3.850 -1.2310 -0.8785 -0.5889
12359TIP3   OH258567   5.160   5.462   4.542 -0.2231  0.0693  0.0574
12359TIP3    H158568   5.165   5.553   4.512  1.1996 -0.0233 -0.0286
12359TIP3    H258569   5.223   5.415   4.488  0.2232 -0.6655  1.1864
12360TIP3   OH258570   1.098   1.243   2.627  0.4618  0.3563 -0.1860
12360TIP3    H158571   1.103   1.275   2.717  0.4973  0.0459 -0.0764
12360TIP3    H258572   1.048   1.310   2.581 -0.0200  0.2585  0.1833
12361TIP3   OH258573   5.092   2.478   4.056  0.0000 -0.2488 -0.0777
12361TIP3    H158574   5.133   2.528   4.127  0.0871 -0.2955 -0.0944
12361TIP3    H258575   5.009   2.523   4.040 -0.0314 -0.2517  0.0701
12362TIP3   OH258576   2.784   4.431   6.299  0.5323 -0.6447  0.8939
12362TIP3    H158577   2.746   4.347   6.324 -2.2563  0.2424 -0.0158
12362TIP3    H258578   2.713   4.494   6.309  2.1220  1.3870  0.1617
12363TIP3   OH258579   4.695   1.992   1.695  1.0796 -0.1170 -0.6942
12363TIP3    H158580   4.714   1.907   1.735 -1.0739 -1.5628 -2.4915
12363TIP3    H258581   4.752   2.053   1.741  2.8213 -2.5289  0.5906
12364TIP3   OH258582   0.860   5.225   1.941  0.2048 -0.1842  0.5130
12364TIP3    H158583   0.853   5.299   1.881 -0.9381  0.6452  1.6085
12364TIP3    H258584   0.903   5.157   1.890  2.0202  1.4708 -0.2810
12365TIP3   OH258585   0.829   3.000   0.563  0.1671 -0.3535  0.4846
12365TIP3    H158586   0.761   3.064   0.585  0.5569  0.5331 -0.7512
12365TIP3    H258587   0.906   3.030   0.611  0.1986 -0.2305  0.3574
12366TIP3   OH258588   5.022   4.153  16.017 -0.2868  0.1007  0.1433
12366TIP3    H158589   4.955   4.176  16.081  0.2511  0.8834  0.4470
12366TIP3    H258590   5.102   4.144  16.068  0.1232  0.6261 -0.3972
12367TIP3   OH258591   1.452   6.747  11.354 -0.1249 -0.0533 -0.3451
12367TIP3    H158592   1.509   6.682  11.395 -0.8401  0.0000  0.8056
12367TIP3    H258593   1.487   6.758  11.266  2.1724  0.6338  0.5838
12368TIP3   OH258594   1.103   5.698  15.110 -0.5171 -0.0260  0.2471
12368TIP3    H158595   1.175   5.697  15.048 -1.8941  0.3626 -1.4404
12368TIP3    H258596   1.115   5.778  15.161  1.0616 -0.7469  1.0725
12369TIP3   OH258597   6.122   3.195  13.604  0.1054  0.1675  0.3715
12369TIP3    H158598   6.032   3.216  13.630  0.7489  2.6329  0.9341
12369TIP3    H258599   6.176   3.254  13.658  2.1839 -2.3111  1.1893
12370TIP3   OH258600   3.218   3.295   1.743  0.6794  0.4665 -0.0436
12370TIP3    H158601   3.187   3.305   1.833 -0.8992 -1.3533 -0.3240
12370TIP3    H258602   3.278   3.220   1.746  0.7345  0.4909 -0.4901
12371TIP3   OH258603   5.084   6.434   2.785 -0.1392  0.3995 -0.0267
12371TIP3    H158604   5.076   6.518   2.741  2.2055  0.8921  0.3749
12371TIP3    H258605   5.022   6.439   2.858  0.0154  1.8227  0.0279
12372TIP3   OH258606   1.635   2.062  14.601 -0.4328 -0.3300 -0.2122
12372TIP3    H158607   1.693   1.988  14.585 -0.0323  0.2844 -1.8571
12372TIP3    H258608   1.548   2.023  14.606  0.0586 -1.3090  2.6982
12373TIP3   OH258609   6.155   4.914   0.893  0.0760 -0.4375  0.2437
12373TIP3    H158610   6.176   4.824   0.869 -1.8035 -1.1987  1.2219
12373TIP3    H258611   6.087   4.940   0.830  0.9783  0.5095 -0.3650
12374TIP3   OH258612   0.194   5.466  11.892 -0.0940  0.4289  0.9892
12374TIP3    H158613   0.231   5.468  11.804 -0.4604  2.3623  0.8304
12374TIP3    H258614   0.267   5.443  11.949  0.0901 -1.0838  0.1922
12375TIP3   OH258615   2.420   3.672   5.354  0.9268  0.0099  0.1020
12375TIP3    H158616   2.347   3.647   5.296  1.4915 -0.4241 -0.4411
12375TIP3    H258617   2.414   3.612   5.428  1.3707 -0.7643 -0.4703
12376TIP3   OH258618   2.828   0.509   3.257 -0.4007  0.1866  0.0809
12376TIP3    H158619   2.738   0.528   3.283 -0.1216  1.2706  0.2741
12376TIP3    H258620   2.855   0.585   3.205 -0.0814 -0.7787 -1.2299
12377TIP3   OH258621   1.878   3.219   1.786 -0.6192  0.0735  0.0385
12377TIP3    H158622   1.969   3.198   1.763 -0.7037 -0.3214  0.0519
12377TIP3    H258623   1.869   3.190   1.877 -0.4009  1.2735  0.4579
12378TIP3   OH258624   3.361   0.131  11.848  0.0077  0.0804  0.0358
12378TIP3    H158625   3.332   0.205  11.900 -0.4531  0.9728 -1.4336
12378TIP3    H258626   3.431   0.166  11.793 -0.3111 -0.5311 -0.7788
12379TIP3   OH258627   0.763   6.315  16.575  0.2573 -0.0217 -0.1111
12379TIP3    H158628   0.777   6.337  16.667  1.4866  0.3665 -0.3743
12379TIP3    H258629   0.809   6.231  16.564  1.2202  0.5652 -0.6630
12380TIP3   OH258630   6.683   2.858  11.848 -0.0963  0.3705 -0.1299
12380TIP3    H158631   6.632   2.788  11.888 -0.4739  0.5472 -0.3011
12380TIP3    H258632   6.707   2.824  11.762 -0.0998  0.3702 -0.1310
12381TIP3   OH258633   2.432   0.203   3.024 -0.7502 -0.2881  0.5587
12381TIP3    H158634   2.504   0.215   2.962 -1.0115 -1.6994 -0.0644
12381TIP3    H258635   2.474   0.196   3.109 -0.2337 -0.1182  0.3180
12382TIP3   OH258636   5.211   2.208  11.085 -0.1422  0.3332 -0.2079
12382TIP3    H158637   5.281   2.232  11.024  0.2455 -0.8430 -0.2595
12382TIP3    H258638   5.255   2.200  11.170 -0.8413  2.8727  0.4639
12383TIP3   OH258639   0.001   2.984  14.382 -0.2051 -0.3234 -0.7517
12383TIP3    H158640  -0.047   2.928  14.444  1.9851 -0.7857  0.6515
12383TIP3    H258641  -0.021   3.073  14.408 -0.4955 -0.5230 -0.2987
12384TIP3   OH258642   2.010   1.623   0.358 -0.3572  0.4772 -0.8241
12384TIP3    H158643   2.092   1.669   0.372 -0.7258  0.7418  0.5412
12384TIP3    H258644   1.943   1.680   0.396 -0.8762 -0.9171  0.4626
12385TIP3   OH258645   6.471   1.880   2.922 -0.1212  0.5753  0.4700
12385TIP3    H158646   6.536   1.934   2.876 -1.0067  1.9035  0.7094
12385TIP3    H258647   6.474   1.796   2.877  0.3326  1.2592 -0.8331
12386TIP3   OH258648   6.787   5.524   2.116  0.1097  0.9215 -0.0548
12386TIP3    H158649   6.875   5.554   2.091  1.9729 -2.2075  2.0540
12386TIP3    H258650   6.764   5.580   2.190  0.8109  1.0914  0.0460
12387TIP3   OH258651   2.561   3.112   2.073  0.2311  0.3520 -0.3172
12387TIP3    H158652   2.615   3.190   2.072 -0.1984  0.7102  1.6079
12387TIP3    H258653   2.538   3.099   2.165 -1.9795 -0.4605 -0.9133
12388TIP3   OH258654   5.102   5.871  11.626  0.4640  0.1969  0.0390
12388TIP3    H158655   5.049   5.798  11.659 -1.1077  0.8355 -0.9539
12388TIP3    H258656   5.173   5.830  11.577 -1.1559 -0.7053 -1.6711
12389TIP3   OH258657   3.705   5.255   5.420 -0.0737 -0.0464 -0.0465
12389TIP3    H158658   3.718   5.347   5.444  0.6007 -0.4422  1.2085
12389TIP3    H258659   3.752   5.245   5.337 -0.6400  0.8696 -0.4907
12390TIP3   OH258660   3.988   1.856   6.327  0.3785  0.6469 -0.1243
12390TIP3    H158661   4.044   1.791   6.369 -2.1039 -1.2628  0.4800
12390TIP3    H258662   3.931   1.887   6.397 -2.5081 -1.1281 -1.5103
12391TIP3   OH258663   1.521   1.939   3.861  0.1511 -0.7018 -0.4031
12391TIP3    H158664   1.451   1.874   3.870 -0.2897 -0.4004 -1.5429
12391TIP3    H258665   1.475   2.023   3.862  0.8217 -0.2803  2.3460
12392TIP3   OH258666   5.314   5.571  13.840  0.3275 -0.2813 -0.0415
12392TIP3    H158667   5.275   5.609  13.919  1.3069  0.4392  0.1123
12392TIP3    H258668   5.240   5.536  13.791 -0.4721  0.7418  0.4082
12393TIP3   OH258669   0.856   4.119  16.438 -1.1965 -0.6541 -0.6930
12393TIP3    H158670   0.824   4.209  16.438  1.0665  0.2288 -0.7186
12393TIP3    H258671   0.850   4.092  16.346 -2.8103 -0.9318 -0.5324
12394TIP3   OH258672   5.718   5.080  10.386  0.7048 -1.0166  0.2802
12394TIP3    H158673   5.740   5.159  10.336 -0.6610 -0.8992 -0.2003
12394TIP3    H258674   5.759   5.093  10.471 -1.9702  1.7639  1.3567
12395TIP3   OH258675   1.754   1.266  16.462  0.9306  0.4052 -0.5173
12395TIP3    H158676   1.806   1.186  16.453  0.8792  0.5105 -1.8798
12395TIP3    H258677   1.666   1.241  16.434  0.0377  0.1003  2.2075
12396TIP3   OH258678   4.141   3.724   2.665 -0.1777 -0.1662 -0.1534
12396TIP3    H158679   4.107   3.802   2.709  0.2819 -0.0925  0.0807
12396TIP3    H258680   4.149   3.659   2.735 -0.2558 -0.3209 -0.2876
12397TIP3   OH258681   3.602   4.069  13.066 -0.2812 -0.2883  0.1417
12397TIP3    H158682   3.547   4.048  12.990  0.4131  0.4216 -0.5794
12397TIP3    H258683   3.549   4.131  13.117  1.2385  3.7249 -2.6264
12398TIP3   OH258684   5.999   6.626  14.079 -0.1548 -0.4064 -0.8715
12398TIP3    H158685   5.962   6.557  14.134  0.6755 -1.1459 -1.2197
12398TIP3    H258686   5.941   6.701  14.092  1.1364  0.1569  2.6611
12399TIP3   OH258687   2.266   4.058   0.587  0.2139  0.4499 -0.6459
12399TIP3    H158688   2.278   4.119   0.660  0.4012 -0.7298  0.3337
12399TIP3    H258689   2.174   4.069   0.561  0.1820  0.9659 -0.3255
12400TIP3   OH258690   0.817   1.669  13.430 -0.4511  0.0976 -0.0909
12400TIP3    H158691   0.748   1.603  13.443 -0.4906 -0.3621 -2.2456
12400TIP3    H258692   0.776   1.736  13.376  0.6744 -0.0245 -1.1290
12401TIP3   OH258693   2.222   2.939  16.297 -0.6949  0.4921 -0.1055
12401TIP3    H158694   2.288   2.993  16.254  0.1316 -0.8820 -0.6533
12401TIP3    H258695   2.180   2.997  16.360  0.7864  1.5124  0.0002
12402TIP3   OH258696   0.054   5.332   0.401 -0.0733  0.6527  0.0812
12402TIP3    H158697   0.029   5.425   0.402 -0.1249  0.6460 -0.3543
12402TIP3    H258698   0.097   5.318   0.485 -1.3983  0.7046  0.7896
12403TIP3   OH258699   5.517   4.256  13.449 -0.1665 -0.6363 -0.1002
12403TIP3    H158700   5.435   4.210  13.430 -0.9575  1.0288 -0.8548
12403TIP3    H258701   5.494   4.322  13.514  0.5618 -0.0886 -0.3898
12404TIP3   OH258702   3.922   6.634  11.320  0.7264 -0.2068  0.5925
12404TIP3    H158703   3.890   6.701  11.381 -0.5490  0.1409 -0.4083
12404TIP3    H258704   3.932   6.556  11.374  0.3793  0.2829  1.4020
12405TIP3   OH258705   2.658   5.041   3.462  0.6897  0.0793  0.7159
12405TIP3    H158706   2.581   5.012   3.414  1.3147  0.8299 -0.8115
12405TIP3    H258707   2.708   4.962   3.479  1.0973 -0.0761 -1.0642
12406TIP3   OH258708   5.444   4.164   3.899  0.1509  0.1400 -0.3049
12406TIP3    H158709   5.393   4.178   3.978  1.5849 -0.4740  0.7763
12406TIP3    H258710   5.421   4.075   3.871 -0.0971  0.2261 -0.3720
12407TIP3   OH258711   6.749   3.589  11.535 -0.2889  0.0124  0.1697
12407TIP3    H158712   6.840   3.588  11.506 -0.8029 -0.9280 -1.5111
12407TIP3    H258713   6.739   3.508  11.585 -0.0657  0.4322  0.9253
12408TIP3   OH258714   1.262   5.486   0.019  0.6342 -0.4569 -0.3882
12408TIP3    H158715   1.269   5.391   0.022  2.9739 -0.3166  0.0288
12408TIP3    H258716   1.277   5.514   0.109 -2.5338  0.2649  0.0452
12409TIP3   OH258717   2.600   3.255   0.996  0.2207  0.5432 -0.1642
12409TIP3    H158718   2.684   3.277   0.955  0.6377 -1.1500 -0.2858
12409TIP3    H258719   2.536   3.264   0.925  0.6387 -0.3352 -0.6671
12410TIP3   OH258720   4.371   6.371   4.314  0.5739 -0.2331  0.4497
12410TIP3    H158721   4.290   6.418   4.292  1.4522  1.2419  0.1779
12410TIP3    H258722   4.364   6.353   4.407 -0.3033 -0.6267  0.3200
12411TIP3   OH258723   3.600   2.023  16.416 -0.0187 -0.4107 -0.4328
12411TIP3    H158724   3.519   2.065  16.447  0.4413 -0.7888  1.4278
12411TIP3    H258725   3.578   1.930  16.413  0.2922 -0.4993 -0.0510
12412TIP3   OH258726   0.033   1.056  15.793 -0.7320  0.0369 -0.2763
12412TIP3    H158727  -0.030   0.991  15.763 -0.9459 -0.0320  0.3167
12412TIP3    H258728   0.026   1.128  15.730  0.1056 -0.8499 -1.4330
12413TIP3   OH258729   4.199   1.681  14.758 -0.2851 -0.2842  0.4633
12413TIP3    H158730   4.148   1.687  14.677 -3.3516 -1.8639  2.0958
12413TIP3    H258731   4.216   1.772  14.783 -2.6042  0.3656 -0.0660
12414TIP3   OH258732   5.771   0.899   0.241  0.5549 -0.4134 -0.3189
12414TIP3    H158733   5.770   0.990   0.210  2.5511 -0.9170 -2.1219
12414TIP3    H258734   5.761   0.907   0.336  0.3140  1.6565 -0.4547
12415TIP3   OH258735   2.060   0.910   0.153  0.5515 -0.1503 -0.2913
12415TIP3    H158736   2.145   0.910   0.109 -0.0691  3.7029 -1.8257
12415TIP3    H258737   2.082   0.906   0.247  2.3804  0.0422 -0.6783
12416TIP3   OH258738   4.502   5.886  11.964 -0.5546 -0.0154  0.2667
12416TIP3    H158739   4.564   5.878  11.891 -1.6164  0.1015 -0.6748
12416TIP3    H258740   4.431   5.827  11.941 -2.6044  2.5866 -0.5845
12417TIP3   OH258741   4.506   5.689   3.118  0.6135 -0.1978 -0.4593
12417TIP3    H158742   4.449   5.730   3.053 -1.2194 -3.9453 -1.5132
12417TIP3    H258743   4.576   5.650   3.065  0.6071 -0.9993  0.1156
12418TIP3   OH258744   0.844   3.028  13.813  0.3404  0.6880 -0.0694
12418TIP3    H158745   0.826   2.969  13.741 -1.1311  0.0525  0.7682
12418TIP3    H258746   0.921   3.078  13.785 -0.0076  0.2589 -1.9227
12419TIP3   OH258747   5.736   1.143   3.900 -0.4148  0.2363 -0.2538
12419TIP3    H158748   5.715   1.230   3.933  0.3611 -0.1744  1.3954
12419TIP3    H258749   5.653   1.095   3.905 -0.6642  0.6316 -0.4487
12420TIP3   OH258750   6.809   1.494   5.073 -1.0141  0.6350  0.0272
12420TIP3    H158751   6.812   1.487   5.169  1.9692 -0.2148 -0.0507
12420TIP3    H258752   6.861   1.572   5.054  2.3494 -1.6812 -0.9984
12421TIP3   OH258753   5.601   1.906   1.459  0.0775  0.0366 -0.6043
12421TIP3    H158754   5.577   1.843   1.526  2.0020 -0.2961 -0.1679
12421TIP3    H258755   5.524   1.912   1.403 -0.8113 -1.2702  0.4173
12422TIP3   OH258756   3.739   0.637  14.724 -0.4827  0.2654 -0.2904
12422TIP3    H158757   3.656   0.614  14.683 -0.2636 -0.3189 -0.4155
12422TIP3    H258758   3.730   0.730  14.747 -2.1408 -0.3960  2.0517
12423TIP3   OH258759   0.789   5.246  12.907 -0.6786  0.0150  0.1235
12423TIP3    H158760   0.743   5.172  12.866 -0.1197  0.1945 -0.8726
12423TIP3    H258761   0.772   5.320  12.849  0.7794  0.0976 -0.2406
12424TIP3   OH258762   5.819   1.996   6.346 -0.2774  0.2934  0.0917
12424TIP3    H158763   5.844   1.907   6.321  0.1821  1.0256 -2.2860
12424TIP3    H258764   5.727   2.004   6.322 -0.4256  0.3611  0.6593
12425TIP3   OH258765   2.433   3.247   3.554  0.1214  0.2267 -0.1723
12425TIP3    H158766   2.399   3.250   3.643  0.4207 -0.0106 -0.0503
12425TIP3    H258767   2.370   3.192   3.507  0.5864 -0.5944  0.1615
12426TIP3   OH258768   6.350   3.810   5.948 -0.0353 -0.0794 -0.5180
12426TIP3    H158769   6.306   3.832   6.030 -0.2172  0.7470 -0.8210
12426TIP3    H258770   6.408   3.885   5.931 -1.5226  0.7601 -2.1889
12427TIP3   OH258771   3.874   2.357   2.626  0.3050 -0.0187  0.0088
12427TIP3    H158772   3.872   2.261   2.625  0.6440 -0.0396  0.8906
12427TIP3    H258773   3.786   2.383   2.597 -0.2561 -0.6096  1.1295
12428TIP3   OH258774   6.410   0.218   4.549 -0.9361  0.3916 -0.1442
12428TIP3    H158775   6.358   0.142   4.524 -0.1290 -0.0026 -0.6354
12428TIP3    H258776   6.346   0.289   4.556 -1.4558  0.0682 -1.4050
12429TIP3   OH258777   5.228   3.926  12.438 -0.5800 -0.5550 -0.1237
12429TIP3    H158778   5.314   3.894  12.409  0.2688 -0.6079  2.2194
12429TIP3    H258779   5.240   4.020  12.449 -1.7038 -0.0706 -2.4760
12430TIP3   OH258780   3.578   2.332   1.360  0.0534 -0.2090 -0.3306
12430TIP3    H158781   3.558   2.239   1.348  1.4644 -0.7129  1.0167
12430TIP3    H258782   3.512   2.362   1.423 -0.3566 -0.2917 -0.7089
12431TIP3   OH258783   0.311   0.445  12.242 -0.0397 -0.7678 -0.9045
12431TIP3    H158784   0.297   0.428  12.149 -1.3828 -0.5724 -0.7441
12431TIP3    H258785   0.235   0.408  12.286 -0.2238  0.5854 -0.0297
12432TIP3   OH258786   0.535   3.707   4.076 -0.3899 -0.2513 -0.2498
12432TIP3    H158787   0.464   3.762   4.044 -0.9990 -1.0981 -0.3877
12432TIP3    H258788   0.547   3.641   4.008  0.7188  0.0385 -0.3524
12433TIP3   OH258789   6.195   4.532  10.678 -0.6043  0.2686  0.4651
12433TIP3    H158790   6.230   4.455  10.632  1.1464  1.6656 -0.6442
12433TIP3    H258791   6.262   4.599  10.667 -2.5312  2.3125  0.5055
12434TIP3   OH258792   1.742   5.479   0.744  0.4506  0.6022  0.2250
12434TIP3    H158793   1.793   5.557   0.768  0.6849 -0.1859  2.5789
12434TIP3    H258794   1.802   5.406   0.759  0.0007 -0.0944 -1.2432
12435TIP3   OH258795   5.923   1.064  11.269 -0.0274  0.0916 -0.4773
12435TIP3    H158796   6.016   1.068  11.244  0.1528  0.0153  0.1626
12435TIP3    H258797   5.909   0.973  11.294  0.0361  0.3567  0.5749
12436TIP3   OH258798   5.946   4.689  14.437 -0.1209  0.0196  0.5944
12436TIP3    H158799   5.864   4.670  14.483  0.2782 -0.2063  1.2137
12436TIP3    H258800   5.970   4.777  14.464 -0.8523  0.6325 -0.6367
12437TIP3   OH258801   0.168   1.779  11.430 -0.0410 -0.4751 -0.0934
12437TIP3    H158802   0.231   1.777  11.358 -0.9677  0.5179 -0.9878
12437TIP3    H258803   0.194   1.855  11.482  2.1463 -2.5683  2.1674
12438TIP3   OH258804   6.113   6.202  14.707  0.0570 -0.5630  0.2367
12438TIP3    H158805   6.077   6.116  14.730 -0.7790 -0.5573 -0.9568
12438TIP3    H258806   6.104   6.254  14.786  1.0513 -1.7220  1.1412
12439TIP3   OH258807   3.748   6.209   0.523 -0.3639  0.3909 -0.7438
12439TIP3    H158808   3.813   6.168   0.466  1.1171  2.2013 -0.4374
12439TIP3    H258809   3.798   6.270   0.577 -2.1194  0.7100  0.6104
12440TIP3   OH258810   5.320   1.860  13.149 -0.2614 -0.4085  0.4161
12440TIP3    H158811   5.387   1.885  13.213  0.2511  0.0735 -0.2837
12440TIP3    H258812   5.370   1.827  13.074 -0.8000 -0.0206 -0.1277
12441TIP3   OH258813   5.194   4.150   3.277 -0.2977  0.7420  0.8368
12441TIP3    H158814   5.279   4.160   3.234 -0.2496 -0.8472  0.5007
12441TIP3    H258815   5.215   4.146   3.371 -0.0476  0.7429  0.7812
12442TIP3   OH258816   3.631   5.943   4.706 -0.6745  0.1310  0.1533
12442TIP3    H158817   3.687   6.016   4.733  1.7188 -1.9009  1.1589
12442TIP3    H258818   3.570   5.932   4.779  0.0207  0.1593  0.7605
12443TIP3   OH258819   2.258   5.493   4.604  0.1009 -0.8465 -0.0178
12443TIP3    H158820   2.272   5.408   4.563 -0.2143 -1.4433  1.0867
12443TIP3    H258821   2.293   5.484   4.692  0.7515  0.4178 -0.1259
12444TIP3   OH258822   5.940   2.486  14.142  0.3031 -0.3314 -0.1756
12444TIP3    H158823   5.911   2.442  14.222  1.3339 -2.2826 -0.8040
12444TIP3    H258824   5.993   2.420  14.097  1.1436  1.2909 -1.6551
12445TIP3   OH258825   6.015   2.563   1.691  0.3173 -0.1772  0.5496
12445TIP3    H158826   6.099   2.558   1.737  0.7390 -0.4499 -0.2259
12445TIP3    H258827   6.018   2.490   1.629 -1.4497 -1.6088  2.0359
12446TIP3   OH258828   1.279   3.896   5.392  0.0730 -0.4625 -0.4084
12446TIP3    H158829   1.227   3.865   5.318  0.4853  0.8397 -1.2738
12446TIP3    H258830   1.313   3.816   5.432 -0.1156 -1.1960 -1.6594
12447TIP3   OH258831   5.261   3.279   4.711  0.3756  0.5040 -0.3548
12447TIP3    H158832   5.200   3.305   4.642 -0.5906  1.9970  0.9967
12447TIP3    H258833   5.258   3.350   4.774  1.2947 -0.7616  1.1921
12448TIP3   OH258834   0.217   3.967   3.615 -0.6598  0.4274  0.1617
12448TIP3    H158835   0.212   3.928   3.702 -2.8043  0.2969  0.0210
12448TIP3    H258836   0.197   4.060   3.629 -0.2840  0.5503 -0.1015
12449TIP3   OH258837   6.616   2.892   2.252  0.4392 -0.1028 -0.8138
12449TIP3    H158838   6.583   2.803   2.242 -0.3419  0.2647 -1.6516
12449TIP3    H258839   6.705   2.889   2.217  1.3454 -1.0845  1.3749
12450TIP3   OH258840   5.495   3.850   5.819 -0.0468 -0.5305  0.1761
12450TIP3    H158841   5.414   3.852   5.870 -0.9876 -0.0653 -1.2663
12450TIP3    H258842   5.484   3.920   5.755  1.3479 -0.7185 -0.3015
12451TIP3   OH258843   5.749   3.440   1.254 -0.6619  0.7149 -0.4282
12451TIP3    H158844   5.803   3.470   1.327 -0.7967  1.3555 -0.5874
12451TIP3    H258845   5.714   3.355   1.283 -0.9144  1.0830  0.3521
12452TIP3   OH258846   6.744   0.731   0.755 -0.0050 -0.3732 -0.6790
12452TIP3    H158847   6.648   0.733   0.751 -0.0076 -0.7306 -0.8473
12452TIP3    H258848   6.764   0.655   0.809  0.1681  0.3020  0.2350
12453TIP3   OH258849   3.599   3.749  12.791  0.4202 -0.4950 -0.1947
12453TIP3    H158850   3.562   3.834  12.815  0.3338 -0.6883  0.3742
12453TIP3    H258851   3.613   3.755  12.697 -3.3609 -1.2415 -0.9711
12454TIP3   OH258852   4.624   4.241   3.820  0.1568  0.0017 -0.1712
12454TIP3    H158853   4.683   4.199   3.758 -0.7394 -1.6062 -0.0138
12454TIP3    H258854   4.538   4.237   3.778  0.0209  1.6181 -0.0821
12455TIP3   OH258855   2.307   1.372  15.238 -0.1148  0.5631  0.0301
12455TIP3    H158856   2.266   1.456  15.218 -0.2898  0.6961  0.9116
12455TIP3    H258857   2.240   1.324  15.288  0.8219  0.8309  1.6055
12456TIP3   OH258858   6.323   5.805  17.145  0.0596  0.4048  0.1178
12456TIP3    H158859   6.294   5.787  17.234 -1.0008  3.7928  0.5924
12456TIP3    H258860   6.291   5.730  17.094 -1.8914 -0.2379  2.1018
12457TIP3   OH258861   3.854   3.878   3.221  0.2624 -0.2349 -0.0083
12457TIP3    H158862   3.826   3.940   3.153  0.3268 -0.9678 -0.7124
12457TIP3    H258863   3.799   3.801   3.207  0.1648 -0.3331  0.8797
12458TIP3   OH258864   2.454   2.924  11.254  0.1231  0.2506 -0.6365
12458TIP3    H158865   2.507   2.872  11.193  1.0510 -1.5133  1.5636
12458TIP3    H258866   2.397   2.976  11.197  0.1817 -2.0586 -2.9982
12459TIP3   OH258867   2.761   0.378  11.648  0.0409 -0.1425  0.3783
12459TIP3    H158868   2.732   0.289  11.630 -0.3803  0.1029 -0.1898
12459TIP3    H258869   2.707   0.406  11.722  0.1281 -0.3318  0.5146
12460TIP3   OH258870   5.927   0.332   2.790  0.3033 -0.0176 -0.3345
12460TIP3    H158871   5.969   0.338   2.876 -1.1506 -1.7216  0.5422
12460TIP3    H258872   5.870   0.409   2.786  1.4060  0.8368 -0.4203
12461TIP3   OH258873   0.422   4.467  16.952  0.0455 -0.5884 -0.3908
12461TIP3    H158874   0.363   4.462  16.877 -0.2188  2.4398 -0.5028
12461TIP3    H258875   0.499   4.513  16.919  0.8869 -1.1824  0.6815
12462TIP3   OH258876   2.486   5.067   0.145 -0.3596 -1.1149  0.7305
12462TIP3    H158877   2.464   5.104   0.059 -0.4061  0.3710  1.3425
12462TIP3    H258878   2.407   5.021   0.172 -0.5416 -1.1105  0.2162
12463TIP3   OH258879   2.702   3.014   5.746  0.3426 -0.4519 -0.7417
12463TIP3    H158880   2.617   2.975   5.768  0.5565  0.1759  1.4258
12463TIP3    H258881   2.735   2.961   5.674 -1.4591 -1.3092 -0.9788
12464TIP3   OH258882   4.532   6.268   3.681 -0.0756  0.3026  0.7431
12464TIP3    H158883   4.604   6.329   3.666 -0.0118 -0.1351 -0.9977
12464TIP3    H258884   4.548   6.197   3.619 -2.2581  0.4523 -0.1042
12465TIP3   OH258885   6.337   3.441  16.268 -0.2315 -0.0263  0.2934
12465TIP3    H158886   6.422   3.406  16.294  0.5008  0.8104 -0.8491
12465TIP3    H258887   6.353   3.480  16.182 -1.6474  0.6490  0.3112
12466TIP3   OH258888   6.112   4.677   1.842  0.3909 -0.2315 -0.2192
12466TIP3    H158889   6.191   4.631   1.870  0.7835  0.8038  0.4395
12466TIP3    H258890   6.117   4.679   1.747  0.7619 -0.8524 -0.2183
12467TIP3   OH258891   0.537   0.420   5.365  0.2052 -0.0394  0.1625
12467TIP3    H158892   0.600   0.491   5.353 -1.2331  1.1154 -1.2298
12467TIP3    H258893   0.544   0.368   5.285  1.5162 -1.7761  1.3364
12468TIP3   OH258894   2.891   6.279   2.486 -0.1656 -0.0039 -0.7261
12468TIP3    H158895   2.845   6.306   2.566 -0.4627  1.7781 -1.4505
12468TIP3    H258896   2.885   6.183   2.486 -1.3046  0.0333  0.7108
12469TIP3   OH258897   3.695   4.419   5.615  0.2891  0.3934 -0.6013
12469TIP3    H158898   3.707   4.464   5.698 -1.1142 -0.9330  0.3864
12469TIP3    H258899   3.663   4.487   5.555 -0.0140  1.0916  0.3351
12470TIP3   OH258900   0.185   2.604  13.021 -0.1742  0.1438 -0.4394
12470TIP3    H158901   0.168   2.530  12.962 -1.4347  1.0960 -1.3348
12470TIP3    H258902   0.170   2.568  13.109 -1.3755 -0.5289 -0.8907
12471TIP3   OH258903   3.200   0.190   3.289 -0.2072  0.1405 -1.1621
12471TIP3    H158904   3.262   0.235   3.231 -1.9871  4.0264 -0.3525
12471TIP3    H258905   3.114   0.217   3.259 -1.2662  1.5669  2.5419
12472TIP3   OH258906   0.320   3.514   6.143 -0.4314  0.0060 -0.5777
12472TIP3    H158907   0.313   3.585   6.207  0.7764 -1.2087  0.9642
12472TIP3    H258908   0.413   3.509   6.122 -0.1671 -2.3104  0.8062
12473TIP3   OH258909   0.550   1.916   5.579  0.5919  0.3639  0.0935
12473TIP3    H158910   0.510   1.995   5.615  0.1965  0.5382 -0.7082
12473TIP3    H258911   0.489   1.846   5.601 -0.9758  0.8307 -2.3797
12474TIP3   OH258912   4.413   1.717   1.709 -0.4790 -0.6383  0.2413
12474TIP3    H158913   4.415   1.623   1.724 -1.6344 -0.8090 -0.5843
12474TIP3    H258914   4.330   1.746   1.746  0.1627  0.1806  1.0947
12475TIP3   OH258915   3.053   6.516  12.171  0.2271  0.6073  0.2099
12475TIP3    H158916   3.027   6.477  12.088 -1.6596  0.7231  0.6927
12475TIP3    H258917   3.038   6.610  12.159  0.5885  0.6967  0.4596
12476TIP3   OH258918   2.909   0.177  15.803 -0.5207 -0.2577  0.3353
12476TIP3    H158919   2.943   0.158  15.890  0.1484  0.7926  0.3184
12476TIP3    H258920   2.900   0.272  15.800 -0.5481 -0.2765 -0.7245
12477TIP3   OH258921   0.232   4.099  13.231  0.3016 -0.0966 -0.5430
12477TIP3    H158922   0.321   4.129  13.216 -0.3266  1.8416 -0.6859
12477TIP3    H258923   0.223   4.096  13.326  0.7996 -1.2524 -0.5221
12478TIP3   OH258924   2.689   2.947  16.659 -0.1636  0.2757  0.1611
12478TIP3    H158925   2.707   2.911  16.572  0.3485  1.6818 -0.3463
12478TIP3    H258926   2.758   3.012  16.673  0.5408 -0.8435  2.1944
12479TIP3   OH258927   4.022   3.866   3.616 -0.0535 -0.1154  0.1822
12479TIP3    H158928   3.939   3.863   3.568  0.7263  0.9319 -1.3607
12479TIP3    H258929   4.082   3.814   3.562  0.8542  1.1154 -0.0488
12480TIP3   OH258930   2.892   1.467  13.136  0.0853 -0.0376  0.1223
12480TIP3    H158931   2.809   1.513  13.137  0.2434  0.2510  1.0224
12480TIP3    H258932   2.956   1.530  13.170  0.8158 -0.0150 -1.2154
12481TIP3   OH258933   6.696   3.555   0.471 -0.1734 -0.6349  0.9017
12481TIP3    H158934   6.776   3.521   0.431 -0.5860 -0.2799 -0.2636
12481TIP3    H258935   6.705   3.534   0.564  1.4779 -0.1998  0.8691
12482TIP3   OH258936   3.391   4.657  16.489  0.0027  0.1734  0.4286
12482TIP3    H158937   3.309   4.680  16.445  0.0434 -0.7218 -0.1585
12482TIP3    H258938   3.459   4.694  16.434  0.0209 -0.1488  0.2256
12483TIP3   OH258939   3.846   0.066   6.099 -0.4044  0.1254 -0.8795
12483TIP3    H158940   3.843   0.046   6.193  0.1927 -0.7987 -1.0454
12483TIP3    H258941   3.793   0.145   6.090 -0.2729  0.3624  0.2722
12484TIP3   OH258942   3.269   2.140  16.817 -0.1943  0.2773  0.5965
12484TIP3    H158943   3.349   2.142  16.870 -0.3361 -0.5732  0.8468
12484TIP3    H258944   3.207   2.089  16.869  0.0188 -1.6003 -0.8706
12485TIP3   OH258945   5.118   3.222  12.063 -0.6423  0.0988  0.3062
12485TIP3    H158946   5.205   3.184  12.067 -0.6779  0.0362  0.4673
12485TIP3    H258947   5.063   3.154  12.024 -0.8362 -0.2478  1.1645
12486TIP3   OH258948   3.617   1.049  10.939 -0.1952 -0.4750 -0.2381
12486TIP3    H158949   3.665   1.107  10.998  1.7050  1.1703 -3.1416
12486TIP3    H258950   3.550   1.105  10.899 -1.1018 -1.4058 -0.0598
12487TIP3   OH258951   4.379   3.926   2.851  0.1115 -0.0927  0.2667
12487TIP3    H158952   4.301   3.979   2.839 -0.6923 -1.0082  1.2132
12487TIP3    H258953   4.396   3.888   2.765 -0.6814 -0.1365  0.1198
12488TIP3   OH258954   2.448   3.954   6.242 -0.3613  0.6862  0.2800
12488TIP3    H158955   2.383   3.888   6.267 -0.5003  0.3791 -0.8559
12488TIP3    H258956   2.525   3.934   6.294 -0.5366 -0.1366  0.2289
12489TIP3   OH258957   4.235   0.201   2.639  0.2352 -0.4413 -0.7595
12489TIP3    H158958   4.167   0.142   2.672 -2.7555  1.6218 -2.8456
12489TIP3    H258959   4.263   0.162   2.556  2.2389 -1.6147  0.3712
12490TIP3   OH258960   1.932   0.916  12.932 -0.6727 -0.2111  0.1239
12490TIP3    H158961   1.945   0.889  12.841 -0.2960 -1.6300  0.5633
12490TIP3    H258962   1.873   0.850  12.968  0.2801 -0.4845  1.2579
12491TIP3   OH258963   4.152   4.519  11.291 -0.2991  0.0086  0.0659
12491TIP3    H158964   4.132   4.554  11.205  2.6636 -1.1295 -1.2045
12491TIP3    H258965   4.238   4.476  11.281  0.2324 -0.0583  3.5950
12492TIP3   OH258966   0.976   1.770  13.605 -0.5307 -0.9665  0.0345
12492TIP3    H158967   0.972   1.866  13.601 -1.8180 -0.8295  2.3910
12492TIP3    H258968   0.919   1.740  13.535 -0.7514  0.0281 -0.2232
12493TIP3   OH258969   6.306   6.427  15.091  0.1102 -0.0085 -0.5143
12493TIP3    H158970   6.283   6.510  15.135  0.8436  0.0421 -0.2095
12493TIP3    H258971   6.401   6.430  15.084  0.1062 -0.6627 -0.8472
12494TIP3   OH258972   3.400   5.490   5.079 -0.3536 -0.3124  0.3356
12494TIP3    H158973   3.419   5.440   5.159 -0.0500 -1.3050 -0.3444
12494TIP3    H258974   3.387   5.424   5.012  0.1618  0.5308 -0.6176
12495TIP3   OH258975   0.107   4.655  12.431 -0.1844 -0.2340  0.1406
12495TIP3    H158976   0.016   4.685  12.422  0.6183  2.2465 -0.5901
12495TIP3    H258977   0.103   4.561  12.416 -2.6569 -0.2321  0.3561
12496TIP3   OH258978   3.681   6.098  12.596  0.0662  0.3453 -0.6013
12496TIP3    H158979   3.647   6.047  12.670 -0.7871 -0.1602 -1.3209
12496TIP3    H258980   3.608   6.153  12.569  0.2252  0.1788 -1.3748
12497TIP3   OH258981   3.481   2.284   1.747 -0.0601  0.1122 -0.2252
12497TIP3    H158982   3.437   2.317   1.825 -0.4033  1.4891 -0.9752
12497TIP3    H258983   3.573   2.278   1.772  0.0202  1.6844 -0.0422
12498TIP3   OH258984   3.498   6.099   1.666  0.6780  0.0507  0.2177
12498TIP3    H158985   3.419   6.135   1.627  0.9624 -0.6011 -1.0342
12498TIP3    H258986   3.477   6.007   1.683  0.3137  0.4826  2.3739
12499TIP3   OH258987   2.426   3.430  17.125 -0.2909  0.1287 -0.6562
12499TIP3    H158988   2.386   3.429  17.038 -2.1120  1.4033  0.1167
12499TIP3    H258989   2.353   3.441  17.185  0.6223 -3.0682  1.2993
12500TIP3   OH258990   6.370   4.534  15.239 -0.1004 -0.2661 -0.2171
12500TIP3    H158991   6.433   4.533  15.312 -0.1091  2.2443 -0.1033
12500TIP3    H258992   6.302   4.472  15.266  0.9275 -0.9445  0.9369
12501TIP3   OH258993   4.762   3.816   3.706 -0.2066 -0.2191 -0.3047
12501TIP3    H158994   4.812   3.885   3.663 -1.1102  0.3472 -0.4483
12501TIP3    H258995   4.773   3.834   3.799 -2.0631  1.3270 -0.3351
12502TIP3   OH258996   1.979   6.704  14.016 -1.0591  0.4552 -0.1510
12502TIP3    H158997   2.042   6.736  13.952 -0.4180  2.9396  1.5727
12502TIP3    H258998   2.012   6.618  14.042  0.9839  1.2152 -0.1080
12503TIP3   OH258999   2.316   4.538  16.196 -0.6627 -0.2486 -0.0476
12503TIP3    H159000   2.319   4.623  16.240  1.3481 -0.3593  0.1317
12503TIP3    H259001   2.226   4.530  16.165 -1.7464  0.5333  2.6513
12504TIP3   OH259002   2.206   4.183  15.985 -0.1093  0.3158  0.5751
12504TIP3    H159003   2.259   4.253  15.947  1.6813 -1.0846  0.3443
12504TIP3    H259004   2.168   4.139  15.909  0.6287 -0.3390  0.5748
12505TIP3   OH259005   1.817   0.578  12.700  0.1680  0.2111  0.0952
12505TIP3    H159006   1.861   0.663  12.694 -1.7405  1.1941 -0.9669
12505TIP3    H259007   1.757   0.587  12.774  0.6288 -0.5654  0.5755
12506TIP3   OH259008   3.021   0.659   1.636 -0.1172  0.2874 -0.0676
12506TIP3    H159009   3.017   0.720   1.562 -2.8682 -0.2071 -0.4388
12506TIP3    H259010   2.935   0.666   1.677 -0.2035 -2.6442  0.4424
12507TIP3   OH259011   0.227   6.690  13.033  0.3238 -0.2620 -0.0139
12507TIP3    H159012   0.200   6.782  13.038  1.9236  0.3816 -1.6676
12507TIP3    H259013   0.176   6.654  12.960 -0.6478 -0.8556  0.9315
12508TIP3   OH259014   6.755   1.510  15.817 -0.3682  0.3069  0.4711
12508TIP3    H159015   6.724   1.447  15.881 -1.4616 -1.0473 -1.3008
12508TIP3    H259016   6.813   1.460  15.759 -0.1860  1.2397 -0.1894
12509TIP3   OH259017   3.290   2.006  14.295  0.5067  0.4665  0.1943
12509TIP3    H159018   3.309   1.943  14.365 -0.6126  0.2507  0.3276
12509TIP3    H259019   3.293   1.954  14.215 -0.5133  0.1921  0.3130
12510TIP3   OH259020   3.058   3.017   0.009 -0.5774 -0.0934  0.1840
12510TIP3    H159021   3.118   2.946  -0.014 -0.6251 -0.3724  0.8758
12510TIP3    H259022   3.111   3.097   0.000 -0.2490 -0.2938  0.2894
12511TIP3   OH259023   0.360   6.743  14.793  0.1771 -0.1582 -1.1427
12511TIP3    H159024   0.312   6.810  14.746 -0.8793 -0.0924 -0.0140
12511TIP3    H259025   0.441   6.785  14.820  0.2388  0.1656 -1.8148
12512TIP3   OH259026   6.637   0.622   1.321 -0.4344 -0.0081  0.1997
12512TIP3    H159027   6.623   0.587   1.233  0.8726 -0.5679  0.2026
12512TIP3    H259028   6.598   0.557   1.380 -0.4079 -0.1330  0.0793
12513TIP3   OH259029   2.011   0.788   6.041  0.4842 -0.2217  0.5001
12513TIP3    H159030   2.079   0.754   6.098 -1.1996 -1.8343  1.6455
12513TIP3    H259031   1.933   0.795   6.096 -0.8543 -0.4856 -1.2410
12514TIP3   OH259032   1.347   5.846  12.363  0.3193 -0.3406  0.2403
12514TIP3    H159033   1.277   5.892  12.409  0.1751  1.4234 -1.6128
12514TIP3    H259034   1.308   5.762  12.339 -1.9610  1.2856 -2.3726
12515TIP3   OH259035   4.165   3.507  15.845  0.3672  0.4628 -0.0504
12515TIP3    H159036   4.124   3.561  15.914 -1.7363 -2.3329  1.0921
12515TIP3    H259037   4.254   3.493  15.875 -0.2490  0.0612  1.7092
12516TIP3   OH259038   5.198   0.494   1.941  0.3815 -0.1368  0.2390
12516TIP3    H159039   5.150   0.470   1.862 -2.2177  1.2275  1.2661
12516TIP3    H259040   5.162   0.438   2.009  0.9378  0.2440  0.8550
12517TIP3   OH259041   0.313   2.475   2.608  0.0243 -0.0838 -0.2440
12517TIP3    H159042   0.370   2.446   2.680  0.2955  0.5336 -0.2080
12517TIP3    H259043   0.234   2.421   2.617  0.0947 -0.0787  0.4560
12518TIP3   OH259044   5.801   2.187   3.503 -0.0242 -0.1290  0.3766
12518TIP3    H159045   5.885   2.165   3.462 -0.3944  0.9752 -1.0394
12518TIP3    H259046   5.772   2.105   3.543  0.8229 -1.0237 -0.7781
12519TIP3   OH259047   6.782   4.869   0.363  0.2875  0.0927 -0.3033
12519TIP3    H159048   6.789   4.948   0.309  0.3281 -0.0982 -0.5819
12519TIP3    H259049   6.862   4.869   0.415  2.1326 -1.6612 -2.9085
12520TIP3   OH259050   5.839   1.623   5.300 -0.5089 -0.1106  0.0312
12520TIP3    H159051   5.792   1.653   5.378  0.3633  0.5093  0.3457
12520TIP3    H259052   5.839   1.527   5.307  0.7768 -0.0503  1.5799
12521TIP3   OH259053   6.742   4.054  11.043  0.2104 -0.1750 -0.4212
12521TIP3    H159054   6.770   4.075  11.132 -0.5411  2.0351 -0.6265
12521TIP3    H259055   6.663   4.106  11.031 -0.5450 -1.5895 -1.8979
12522TIP3   OH259056   5.018   0.604  16.074  0.8357 -0.1290 -0.2974
12522TIP3    H159057   4.989   0.587  16.163  1.9642 -0.8062 -0.0498
12522TIP3    H259058   5.093   0.662  16.083  0.8881 -0.1076 -0.8130
12523TIP3   OH259059   0.109   6.491   0.998  0.1412 -0.2548  0.4862
12523TIP3    H159060   0.021   6.458   0.980 -0.0279  1.0148 -1.2466
12523TIP3    H259061   0.161   6.413   1.014 -0.9681 -1.1276  0.0078
12524TIP3   OH259062   3.973   0.538   0.970 -0.4507  0.0943  0.3647
12524TIP3    H159063   3.983   0.453   0.927 -0.3806  0.6741 -0.8194
12524TIP3    H259064   3.885   0.566   0.947 -0.9228 -0.1875  1.7679
12525TIP3   OH259065   4.391   5.637  11.928 -0.0774  0.7140  0.1988
12525TIP3    H159066   4.458   5.581  11.890  0.1275  0.6145  0.7017
12525TIP3    H259067   4.314   5.623  11.873  0.4171  1.1337 -0.6283
12526TIP3   OH259068   4.966   3.414   1.947  0.6790  0.1111  0.1677
12526TIP3    H159069   5.056   3.438   1.924  0.5606  0.6624  0.2695
12526TIP3    H259070   4.919   3.498   1.950 -0.3598 -0.2991 -2.0946
12527TIP3   OH259071   3.589   2.084   2.466 -0.6188  0.2175 -0.4962
12527TIP3    H159072   3.543   2.103   2.548  0.2297 -0.5779  0.1807
12527TIP3    H259073   3.519   2.079   2.401 -1.3057  0.8912  0.1653
12528TIP3   OH259074   0.984   2.730   1.799  0.3369 -0.0433 -0.3242
12528TIP3    H159075   0.913   2.752   1.739  1.0194  0.8816 -0.8302
12528TIP3    H259076   0.972   2.638   1.819 -0.2600 -0.2179 -1.4123
12529TIP3   OH259077   0.711   4.586   5.666  0.2533 -0.3097  0.4398
12529TIP3    H159078   0.639   4.524   5.670 -0.9343  0.9121 -0.8182
12529TIP3    H259079   0.776   4.544   5.609 -0.7027 -0.2730 -0.7121
12530TIP3   OH259080   2.403   0.846  17.142 -0.1445  0.0604  0.7950
12530TIP3    H159081   2.422   0.753  17.158  2.4853  0.0070 -1.6518
12530TIP3    H259082   2.371   0.847  17.051 -1.1706  1.4686  1.1555
12531TIP3   OH259083   2.725   3.114   3.319  0.5403  0.1604  0.0562
12531TIP3    H159084   2.795   3.074   3.268  0.8327  1.4052 -0.5700
12531TIP3    H259085   2.654   3.128   3.256  0.8167  1.4974  0.0133
12532TIP3   OH259086   4.750   0.472   2.826  0.4637 -0.5438 -0.3805
12532TIP3    H159087   4.845   0.470   2.840  0.5810  0.5678 -0.8847
12532TIP3    H259088   4.721   0.551   2.873 -0.2518 -1.0210 -0.0082
12533TIP3   OH259089   4.768   1.969  13.942  0.5776  0.1685  0.1534
12533TIP3    H159090   4.700   1.923  13.991  0.7175  0.3278  0.5007
12533TIP3    H259091   4.829   2.002  14.009  1.2195 -0.3260 -0.1706
12534TIP3   OH259092   2.702   4.767   1.312  0.0334 -0.0516  0.2228
12534TIP3    H159093   2.689   4.736   1.402 -1.9245  1.7900  0.6850
12534TIP3    H259094   2.639   4.717   1.261  0.2720 -0.2312  0.1069
12535TIP3   OH259095   0.583   6.155   0.910  0.9682 -0.1375 -0.1038
12535TIP3    H159096   0.584   6.095   0.835  2.7299 -0.2616 -0.0274
12535TIP3    H259097   0.554   6.239   0.873  1.8987 -0.1745 -0.9570
12536TIP3   OH259098   0.305   6.612  14.483 -0.2110 -0.3122 -0.4509
12536TIP3    H159099   0.240   6.569  14.427 -0.8125 -1.8449  1.3006
12536TIP3    H259100   0.253   6.657  14.549  0.4540 -1.4826  0.9176
12537TIP3   OH259101   4.849   5.060   4.714 -0.6446 -0.0524  0.8034
12537TIP3    H159102   4.860   5.006   4.635  1.4045  1.2844  0.0950
12537TIP3    H259103   4.782   5.123   4.691  0.7951  1.1112 -0.3897
12538TIP3   OH259104   2.912   5.810  12.699  0.4138  0.3890 -0.2405
12538TIP3    H159105   2.821   5.781  12.704  0.4597  0.3539  0.7714
12538TIP3    H259106   2.953   5.770  12.776  1.3567  0.1559 -0.8549
12539TIP3   OH259107   0.608   5.960   1.844  0.0775 -0.5151  0.0877
12539TIP3    H159108   0.615   5.903   1.768  1.2662 -2.2018  1.4005
12539TIP3    H259109   0.520   5.998   1.837 -0.0173 -0.9805 -1.8378
12540TIP3   OH259110   5.563   1.868   4.850  0.0744 -0.3108  0.9216
12540TIP3    H159111   5.572   1.938   4.786 -0.6145  0.0146  1.1718
12540TIP3    H259112   5.478   1.828   4.831 -0.6424  0.4929  2.3074
12541TIP3   OH259113   2.927   5.115  12.430  0.0448 -0.3718 -0.3075
12541TIP3    H159114   2.904   5.111  12.523 -0.3396 -1.5840 -0.4361
12541TIP3    H259115   2.844   5.131  12.385  0.2584  0.3958 -0.4326
12542TIP3   OH259116   0.052   2.612  12.157 -0.0501 -0.7557 -0.4813
12542TIP3    H159117   0.003   2.539  12.197 -0.5732  0.3078  0.9283
12542TIP3    H259118   0.042   2.684  12.220 -1.0398  1.0983 -2.6068
12543TIP3   OH259119   0.903   4.665   1.778  0.1005 -0.7926  0.0926
12543TIP3    H159120   0.839   4.717   1.730  0.5469 -0.0362  0.2896
12543TIP3    H259121   0.955   4.622   1.710  0.8213  0.3852 -0.1388
12544TIP3   OH259122   3.220   1.785   3.421 -0.1749 -0.1416  0.1902
12544TIP3    H159123   3.276   1.750   3.352  0.2882  2.7559 -1.0597
12544TIP3    H259124   3.268   1.769   3.502  1.1211 -0.2025 -0.5678
12545TIP3   OH259125   3.410   0.943   5.444 -0.1165  0.2990 -0.7328
12545TIP3    H159126   3.475   0.951   5.514 -1.8093 -1.2322  1.1355
12545TIP3    H259127   3.411   0.850   5.421  0.6961  0.8271 -3.1443
12546TIP3   OH259128   2.540   4.235   4.584  0.3114 -0.5236 -0.4009
12546TIP3    H159129   2.472   4.172   4.605 -0.2959 -0.2439 -1.4596
12546TIP3    H259130   2.605   4.225   4.653 -0.4702 -1.2850  0.2334
12547TIP3   OH259131   3.469   1.524  15.824  0.0974  0.2439  0.4172
12547TIP3    H159132   3.403   1.503  15.890 -0.4551 -0.1318 -0.2385
12547TIP3    H259133   3.418   1.560  15.751  0.6855  0.5533  0.1546
12548TIP3   OH259134   0.725   1.823   3.963 -0.2777  0.1006 -0.7588
12548TIP3    H159135   0.643   1.873   3.966 -1.3666 -1.6211 -0.6617
12548TIP3    H259136   0.726   1.774   4.046 -0.1499 -1.3850 -1.6102
12549TIP3   OH259137   2.375   6.439  15.756 -0.0604  0.0620 -0.0185
12549TIP3    H159138   2.330   6.426  15.672  0.2244 -0.3589 -0.1117
12549TIP3    H259139   2.460   6.476  15.733  0.2727 -0.6511  0.0280
12550TIP3   OH259140   6.585   1.059   4.899  0.2041  0.0880  0.0719
12550TIP3    H159141   6.596   0.997   4.971 -1.4320 -0.5352 -0.1737
12550TIP3    H259142   6.578   1.144   4.942 -1.4828 -0.3495  0.7689
12551TIP3   OH259143   0.509   3.492   3.283  0.2886 -0.2595 -0.5259
12551TIP3    H159144   0.520   3.549   3.207  0.5214  0.7288  0.2274
12551TIP3    H259145   0.522   3.549   3.359  0.9996 -1.3965  0.2600
12552TIP3   OH259146   1.388   0.921   2.812 -0.0251  0.2278 -0.6930
12552TIP3    H159147   1.328   0.876   2.871 -1.0936 -1.1671 -2.6935
12552TIP3    H259148   1.379   1.013   2.834 -0.7096 -0.2104  0.9855
12553TIP3   OH259149   1.423   3.431   6.423  0.7081  0.0699  0.0465
12553TIP3    H159150   1.491   3.366   6.412  1.3569  0.9583 -1.5409
12553TIP3    H259151   1.430   3.459   6.515  0.9690 -1.4365  0.5065
12554TIP3   OH259152   2.641   0.655   6.990 -0.3957 -0.2834 -0.0758
12554TIP3    H159153   2.640   0.562   6.969 -1.3699 -0.6723  1.5454
12554TIP3    H259154   2.731   0.683   6.970 -0.2648 -1.4019 -1.1673
12555TIP3   OH259155   4.410   5.506  10.882 -0.1192 -0.0376  0.1419
12555TIP3    H159156   4.488   5.545  10.843  0.3164 -0.9225  0.1105
12555TIP3    H259157   4.407   5.540  10.971  0.5630 -0.3587  0.2926
12556TIP3   OH259158   3.993   5.902   3.477  0.2013 -0.1974 -0.6594
12556TIP3    H159159   4.047   5.826   3.499 -0.5047 -0.4173  0.3815
12556TIP3    H259160   4.056   5.971   3.454  0.8867 -0.6776 -0.2337
12557TIP3   OH259161   6.734   4.201  11.297  0.1921  0.2955 -0.5427
12557TIP3    H159162   6.656   4.232  11.344 -0.1888  0.0049 -0.9727
12557TIP3    H259163   6.763   4.277  11.247  0.5141  0.5645  0.0417
12558TIP3   OH259164   5.415   3.822   2.806 -0.2655  0.7772  0.6539
12558TIP3    H159165   5.369   3.777   2.877  1.5795 -1.0720  0.7888
12558TIP3    H259166   5.504   3.835   2.840  0.2047  1.3456 -0.7261
12559TIP3   OH259167   1.818   2.862   1.454 -0.4395 -0.3529 -0.0623
12559TIP3    H159168   1.793   2.944   1.498 -0.6073 -0.7566  0.6016
12559TIP3    H259169   1.883   2.889   1.389 -1.4766  0.5023 -0.7773
12560TIP3   OH259170   4.342   5.320   5.558  0.3103 -0.2228 -0.8235
12560TIP3    H159171   4.418   5.324   5.500  2.0758 -0.0103  1.3775
12560TIP3    H259172   4.375   5.348   5.643 -1.6185 -2.5467  0.8194
12561TIP3   OH259173   4.113   5.534   3.654 -0.1847 -0.2474 -0.0470
12561TIP3    H159174   4.145   5.569   3.571  1.4506 -1.3079  0.0946
12561TIP3    H259175   4.178   5.563   3.719  0.1124 -1.8149  0.3856
12562TIP3   OH259176   2.778   1.872   2.010 -0.2303  0.2127 -0.1336
12562TIP3    H159177   2.772   1.831   2.096 -0.8615 -1.6029 -0.9941
12562TIP3    H259178   2.823   1.955   2.026  0.2761 -0.3910  1.8277
12563TIP3   OH259179   4.193   2.500  15.369  0.5488 -0.1694  0.2336
12563TIP3    H159180   4.106   2.479  15.402  0.3728 -1.9605 -1.2350
12563TIP3    H259181   4.177   2.549  15.288  0.8433 -1.4172 -0.6131
12564TIP3   OH259182   4.437   1.669  14.944  0.0951 -0.4886  0.7059
12564TIP3    H159183   4.403   1.670  14.854 -0.5294  0.9021  0.9403
12564TIP3    H259184   4.531   1.656  14.933 -0.1437 -1.8791 -0.0577
12565TIP3   OH259185   5.987   0.032   0.587 -0.4627 -0.6284  0.3953
12565TIP3    H159186   5.986   0.123   0.616  1.5155 -0.5065  0.2018
12565TIP3    H259187   5.915   0.027   0.523 -0.9234  0.6498  0.7837
12566TIP3   OH259188   0.480   2.718  11.507 -0.1482 -0.8856 -0.1328
12566TIP3    H159189   0.569   2.685  11.512  0.1458 -0.2046 -0.7240
12566TIP3    H259190   0.489   2.806  11.472 -0.7866  0.4464  2.7864
12567TIP3   OH259191   3.427   2.131   5.510 -0.3783  0.4503  0.2699
12567TIP3    H159192   3.509   2.097   5.546 -0.9391  0.4630  1.6399
12567TIP3    H259193   3.361   2.103   5.573 -1.4660  0.2497 -0.9327
12568TIP3   OH259194   3.034   4.257  16.218 -0.1041 -0.2458  0.0011
12568TIP3    H159195   3.025   4.347  16.250  0.9079 -0.1042 -0.0819
12568TIP3    H259196   3.129   4.243  16.213 -0.2538 -1.1485 -0.4611
12569TIP3   OH259197   1.629   5.239   6.194  0.1853 -0.1979 -0.3915
12569TIP3    H159198   1.659   5.327   6.171 -1.3577  0.4345 -0.0955
12569TIP3    H259199   1.609   5.244   6.288 -1.3534 -0.4014 -0.6797
12570TIP3   OH259200   5.186   3.287   4.040  0.2355 -0.5886 -0.5438
12570TIP3    H159201   5.266   3.304   3.991 -0.0972 -0.9351 -1.2240
12570TIP3    H259202   5.127   3.359   4.016 -0.0769 -0.9863 -1.0021
12571TIP3   OH259203   3.976   4.557  12.176  0.0303 -0.3992  0.5492
12571TIP3    H159204   3.889   4.535  12.208 -0.0462 -0.4672  0.2977
12571TIP3    H259205   3.998   4.639  12.219  0.9002 -1.6307  2.6348
12572TIP3   OH259206   3.998   6.101  13.226 -0.1301  0.1961 -0.0176
12572TIP3    H159207   3.926   6.142  13.275  2.0707  3.2645  1.0083
12572TIP3    H259208   3.963   6.087  13.138 -3.2458 -2.5820  1.4275
12573TIP3   OH259209   5.766   1.121   1.641  0.3433  0.1752 -0.2477
12573TIP3    H159210   5.727   1.066   1.573 -0.6543  1.6203 -0.8828
12573TIP3    H259211   5.695   1.138   1.702  0.4243  1.3709 -0.4676
12574TIP3   OH259212   0.018   0.207  14.866 -0.6574  0.1045 -0.7157
12574TIP3    H159213  -0.040   0.179  14.796 -0.8087 -0.1112 -0.5091
12574TIP3    H259214   0.023   0.131  14.924  0.0071  0.0457 -0.8455
12575TIP3   OH259215   1.960   0.337  14.270  0.4460 -0.2478  0.3123
12575TIP3    H159216   2.055   0.353  14.266  0.7659 -2.0785 -0.3097
12575TIP3    H259217   1.949   0.249  14.235 -1.7334  0.7153 -1.6858
12576TIP3   OH259218   1.406   5.695   1.124  0.1623 -0.0687 -0.2495
12576TIP3    H159219   1.325   5.698   1.073 -1.4272  2.3475  2.0943
12576TIP3    H259220   1.472   5.735   1.068 -0.9613  0.5029 -1.2117
12577TIP3   OH259221   1.492   5.698   4.837  0.1176 -0.4961 -0.0050
12577TIP3    H159222   1.497   5.614   4.884  2.4541 -0.2106  0.4139
12577TIP3    H259223   1.449   5.758   4.898 -0.4296 -1.0760  0.1861
12578TIP3   OH259224   1.791   3.537   4.895 -0.4653 -0.6334  0.1926
12578TIP3    H159225   1.714   3.560   4.843 -1.9136 -1.6948  1.7288
12578TIP3    H259226   1.773   3.573   4.982  1.0130 -0.4912  0.4650
12579TIP3   OH259227   2.818   5.115   1.781  0.5991 -0.3584  0.1556
12579TIP3    H159228   2.821   5.024   1.752  1.9034 -0.5206  0.7042
12579TIP3    H259229   2.728   5.129   1.808 -0.2598 -0.7095 -2.3057
12580TIP3   OH259230   3.206   4.721   1.859 -0.1999 -0.9854  0.3539
12580TIP3    H159231   3.233   4.633   1.833 -0.8919 -1.1165  0.0553
12580TIP3    H259232   3.134   4.707   1.920 -0.4559 -0.6228  0.1369
12581TIP3   OH259233   3.199   6.291   3.212 -0.1502  0.5525 -0.1330
12581TIP3    H159234   3.157   6.355   3.155  0.8148 -0.2907 -1.8924
12581TIP3    H259235   3.271   6.339   3.253  1.4188  0.4075 -2.4725
12582TIP3   OH259236   4.646   2.486   4.569 -0.2100 -0.2607 -0.0604
12582TIP3    H159237   4.715   2.501   4.633  0.6362  1.4365 -1.2689
12582TIP3    H259238   4.586   2.560   4.581 -0.0917  0.0238 -1.1139
12583TIP3   OH259239   2.215   0.591  14.476  0.0787 -0.4108  0.6062
12583TIP3    H159240   2.234   0.608  14.384 -1.5855  0.2020  0.3446
12583TIP3    H259241   2.296   0.554  14.510  1.4729  1.3746 -0.5620
12584TIP3   OH259242   6.653   6.711   4.446 -0.5483 -0.0899 -0.0118
12584TIP3    H159243   6.674   6.804   4.450  0.2150 -0.2435 -0.2819
12584TIP3    H259244   6.651   6.683   4.538  1.2387 -0.2234  0.0326
12585TIP3   OH259245   2.544   5.883   3.482 -0.3424  0.0804 -0.8684
12585TIP3    H159246   2.525   5.973   3.456  1.1891  0.4234 -0.9154
12585TIP3    H259247   2.636   5.871   3.459  0.7186 -0.1087  2.8364
12586TIP3   OH259248   0.676   0.577  12.886  0.3695  0.2641 -0.3825
12586TIP3    H159249   0.599   0.530  12.853  0.3917  0.9773 -1.5152
12586TIP3    H259250   0.723   0.604  12.807  1.2575  0.7009  0.2801
12587TIP3   OH259251   2.108   4.092   3.267 -0.6974  0.0092 -0.5538
12587TIP3    H159252   2.142   4.172   3.308 -0.3648  0.9295 -2.4912
12587TIP3    H259253   2.156   4.021   3.309  0.0698  0.9454  0.1965
12588TIP3   OH259254   0.551   1.347  13.183  0.0616  0.0015 -0.0346
12588TIP3    H159255   0.531   1.326  13.092 -1.1762  2.2306 -0.3465
12588TIP3    H259256   0.581   1.438  13.180  2.2065 -0.5764  1.5495
12589TIP3   OH259257   4.804   4.222  15.077 -0.0696 -0.1003  0.1068
12589TIP3    H159258   4.724   4.172  15.065  0.5255 -2.3960  3.9843
12589TIP3    H259259   4.787   4.278  15.153  1.2459  1.1792 -0.4891
12590TIP3   OH259260   4.671   2.730   0.311 -0.0457 -0.7607  0.5011
12590TIP3    H159261   4.653   2.698   0.399  0.8201 -1.2707  0.5029
12590TIP3    H259262   4.726   2.662   0.271  1.8348  0.6641  0.4910
12591TIP3   OH259263   0.814   1.114   1.364  0.2714  0.5900  0.7154
12591TIP3    H159264   0.815   1.030   1.317  1.4746  0.9614  0.0412
12591TIP3    H259265   0.728   1.152   1.342  1.1279  1.1796 -2.0398
12592TIP3   OH259266   6.295   2.393   0.867 -0.1614  0.2716 -0.3150
12592TIP3    H159267   6.370   2.338   0.889 -0.5692 -1.1423 -2.1835
12592TIP3    H259268   6.333   2.476   0.837  0.5735  0.1348  0.2185
12593TIP3   OH259269   3.712   6.607  14.244 -0.1168 -0.1366 -0.3521
12593TIP3    H159270   3.715   6.531  14.301 -0.3340 -1.8907 -2.5347
12593TIP3    H259271   3.626   6.604  14.202  1.0218 -0.6550 -2.8827
12594TIP3   OH259272   4.586   5.391  17.121 -0.2637  0.3318  0.3686
12594TIP3    H159273   4.523   5.419  17.055  0.8839  0.3920 -0.7331
12594TIP3    H259274   4.662   5.447  17.107  0.4162 -0.3961  1.0193
12595TIP3   OH259275   1.576   0.281  11.227  0.3407  0.2580  0.1908
12595TIP3    H159276   1.560   0.232  11.308  1.1579  0.9761  0.7992
12595TIP3    H259277   1.595   0.370  11.256 -1.4811  1.0758 -0.9076
12596TIP3   OH259278   1.446   6.733   5.536  0.3142 -0.0014 -0.0346
12596TIP3    H159279   1.537   6.708   5.518  0.1903  0.3931 -1.3753
12596TIP3    H259280   1.450   6.828   5.548 -0.1388  0.3471 -2.1308
12597TIP3   OH259281   0.416   4.278   5.756  0.2241  0.4277  0.3447
12597TIP3    H159282   0.417   4.261   5.850  1.2129  0.4602  0.3534
12597TIP3    H259283   0.393   4.371   5.749 -0.0110  0.3857  0.5450
12598TIP3   OH259284   0.967   1.971   5.960  0.0473  0.3302  0.3048
12598TIP3    H159285   1.020   1.891   5.958  1.6520  1.3489  0.5561
12598TIP3    H259286   0.918   1.969   5.878  1.3771 -0.0600 -0.5071
12599TIP3   OH259287   6.657   1.260  11.960 -0.2834  0.7508  0.7730
12599TIP3    H159288   6.623   1.309  11.885 -0.1926  0.1211  0.3084
12599TIP3    H259289   6.593   1.274  12.029 -0.5594  1.0477  0.4618
12600TIP3   OH259290   3.493   3.788  13.149 -0.3430  0.5051  0.0258
12600TIP3    H159291   3.402   3.772  13.122 -1.0989  1.8048  1.6491
12600TIP3    H259292   3.500   3.883  13.154  1.0041  0.4092  0.3489
12601TIP3   OH259293   0.021   1.297  15.988  0.1407 -0.0772  0.4851
12601TIP3    H159294  -0.004   1.269  16.076 -1.6953 -1.9967 -0.5456
12601TIP3    H259295   0.061   1.219  15.948  0.7620  0.6967 -0.4482
12602TIP3   OH259296   5.334   1.658  13.608  0.3406 -0.1248 -0.4187
12602TIP3    H159297   5.349   1.654  13.514  0.4401  0.3774 -0.4264
12602TIP3    H259298   5.350   1.749  13.631 -2.6221  0.5274 -0.4370
12603TIP3   OH259299   6.159   0.736  13.936 -0.5558 -0.3834  0.5671
12603TIP3    H159300   6.232   0.786  13.901 -2.0827  0.9762 -0.8583
12603TIP3    H259301   6.196   0.651  13.959  1.2557 -0.0867 -1.0428
12604TIP3   OH259302   1.577   4.199  13.668  0.6172  0.2375  0.2032
12604TIP3    H159303   1.549   4.138  13.736  0.1438  0.6761  0.4087
12604TIP3    H259304   1.502   4.259  13.657  1.5351  1.5619  0.9112
12605TIP3   OH259305   1.498   6.095   0.629 -0.0893  0.1195 -0.7853
12605TIP3    H159306   1.423   6.143   0.664  1.9389  2.2210  1.0705
12605TIP3    H259307   1.496   6.113   0.535 -1.7439  0.3207 -0.7492
12606TIP3   OH259308   4.720   4.009   6.368  0.1529 -0.1520  0.2516
12606TIP3    H159309   4.671   3.982   6.445  0.4039  0.6966  0.7185
12606TIP3    H259310   4.656   4.056   6.314 -0.0276 -0.7639 -0.0683
12607TIP3   OH259311   1.729   5.693   2.750  0.0353  0.1415 -0.4152
12607TIP3    H159312   1.664   5.748   2.794  0.0905  0.3890 -0.6445
12607TIP3    H259313   1.678   5.619   2.716  0.0927 -0.4279  0.6720
12608TIP3   OH259314   4.577   5.460   4.420  0.0956 -0.5434 -0.3093
12608TIP3    H159315   4.576   5.556   4.428  1.1081 -0.6581  2.0864
12608TIP3    H259316   4.485   5.435   4.429 -0.0062  0.1462  0.9337
12609TIP3   OH259317   2.971   2.586   5.238  0.0085 -0.5706  0.0959
12609TIP3    H159318   2.934   2.583   5.326 -0.8612  0.8262 -0.1876
12609TIP3    H259319   3.011   2.673   5.231 -0.6437 -0.3385 -1.1321
12610TIP3   OH259320   4.491   5.546  14.979 -0.2437  0.8986  0.0961
12610TIP3    H159321   4.509   5.543  15.073 -1.0615  1.1733  0.2689
12610TIP3    H259322   4.573   5.517  14.939 -0.0262  0.3408  0.9028
12611TIP3   OH259323   3.008   1.892  12.127 -0.2200 -0.2753  0.1288
12611TIP3    H159324   3.003   1.843  12.209 -1.3277 -0.3694  0.0213
12611TIP3    H259325   3.050   1.832  12.065  0.5361 -0.2365  0.5899
12612TIP3   OH259326   6.283   4.072  12.276  0.6459  0.0308  0.1766
12612TIP3    H159327   6.377   4.054  12.269  0.6617 -0.1304  0.7391
12612TIP3    H259328   6.278   4.167  12.279  0.6680  0.0949 -1.4178
12613TIP3   OH259329   5.582   3.148   3.497  0.0158 -0.1322  0.4337
12613TIP3    H159330   5.671   3.144   3.531  0.2107  1.8049  0.2739
12613TIP3    H259331   5.528   3.106   3.564  0.8146  0.4964  1.4992
12614TIP3   OH259332   3.393   2.777   3.007 -0.3418 -0.7521  0.1390
12614TIP3    H159333   3.433   2.793   2.921 -1.9647 -0.5689 -0.6427
12614TIP3    H259334   3.453   2.817   3.070  1.3202 -1.6502 -0.8220
12615TIP3   OH259335   3.451   0.918  11.941 -0.4298  0.3085 -0.1555
12615TIP3    H159336   3.401   0.974  11.882 -2.1031 -0.8901  0.0638
12615TIP3    H259337   3.424   0.945  12.029  0.2428  0.4725  0.0094
12616TIP3   OH259338   5.689   2.936  12.567  0.3364  0.2814 -0.0625
12616TIP3    H159339   5.632   3.006  12.537  0.4720  0.9913  1.2904
12616TIP3    H259340   5.635   2.857  12.561  0.5072  0.2642 -2.5829
12617TIP3   OH259341   2.583   0.481  11.350  0.7177  0.0356  0.1930
12617TIP3    H159342   2.549   0.399  11.314 -0.8646  0.9935 -0.5883
12617TIP3    H259343   2.621   0.456  11.435  0.1791 -1.4820  0.0138
12618TIP3   OH259344   0.914   0.189   4.171 -0.4317 -0.2324  0.1693
12618TIP3    H159345   0.967   0.152   4.242  0.1003 -1.8878 -1.0130
12618TIP3    H259346   0.829   0.205   4.211  0.6965  1.9378  1.9687
12619TIP3   OH259347   0.050   3.142   0.486 -0.4225 -0.2846 -0.2316
12619TIP3    H159348  -0.029   3.191   0.464 -0.1783  0.0630 -0.3431
12619TIP3    H259349   0.037   3.056   0.445 -0.4924 -0.0359 -0.7444
12620TIP3   OH259350   1.360   5.365   1.948 -0.4573  0.1146  0.2947
12620TIP3    H159351   1.443   5.392   1.907 -1.5171  2.1034 -0.6967
12620TIP3    H259352   1.339   5.438   2.007 -2.6991  0.8298 -1.3017
12621TIP3   OH259353   1.358   5.393  12.400 -0.6120 -0.0884  0.0344
12621TIP3    H159354   1.284   5.344  12.434  0.6115 -3.3930 -1.6044
12621TIP3    H259355   1.410   5.415  12.477 -2.5793  1.2496  1.0750
12622TIP3   OH259356   3.208   3.512   2.280 -0.0416  0.1711 -0.0139
12622TIP3    H159357   3.178   3.562   2.204  1.1494 -0.2812 -0.8206
12622TIP3    H259358   3.252   3.576   2.336  2.4717 -0.0395 -1.5688
12623TIP3   OH259359   0.352   2.204  16.251  0.0398  0.2700  0.1219
12623TIP3    H159360   0.374   2.116  16.219 -0.2184 -0.3278  1.5174
12623TIP3    H259361   0.409   2.262  16.201 -0.2042 -0.6206 -1.2576
12624TIP3   OH259362   6.484   4.715  13.600 -0.5197  0.3107  0.1080
12624TIP3    H159363   6.498   4.775  13.526 -1.1404  1.4708  0.8927
12624TIP3    H259364   6.425   4.648  13.566  1.6403 -0.9850 -1.3402
12625TIP3   OH259365   6.419   1.776  16.523  0.3451 -0.6345  0.0884
12625TIP3    H159366   6.385   1.717  16.455  0.0131 -0.4559  0.0991
12625TIP3    H259367   6.509   1.745  16.538  0.3983 -0.7238 -0.3764
12626TIP3   OH259368   2.365   0.226  11.930  0.3800 -0.2264 -0.1446
12626TIP3    H159369   2.329   0.186  11.851  1.4025  1.1105 -1.3510
12626TIP3    H259370   2.327   0.176  12.002  0.2898 -2.2356 -1.5037
12627TIP3   OH259371   5.449   5.827   2.348  0.8733 -1.1802 -0.0915
12627TIP3    H159372   5.466   5.821   2.442  1.4628 -1.0786 -0.1892
12627TIP3    H259373   5.411   5.743   2.325 -0.2692 -0.8227  0.4376
12628TIP3   OH259374   1.880   0.112  14.118  0.2460  0.6039  0.2163
12628TIP3    H159375   1.812   0.121  14.052  0.4889  0.4106 -0.0614
12628TIP3    H259376   1.943   0.051  14.080  0.1004  0.0379  0.8591
12629TIP3   OH259377   2.217   3.843   3.449  0.1396  0.0599  0.0590
12629TIP3    H159378   2.175   3.905   3.509  0.9620 -0.0970  0.7999
12629TIP3    H259379   2.195   3.757   3.483 -0.0877 -0.0473 -0.3484
12630TIP3   OH259380   2.388   4.627  13.734  0.4474  0.6964 -0.0457
12630TIP3    H159381   2.334   4.614  13.812  0.3529  2.9114  0.3085
12630TIP3    H259382   2.418   4.718  13.740  2.8604  0.0488 -1.0992
12631TIP3   OH259383   5.078   3.524  12.507  0.2210 -0.5229  0.3355
12631TIP3    H159384   5.097   3.471  12.584  0.5604  0.3250  0.8542
12631TIP3    H259385   5.036   3.603  12.542 -0.0868 -0.3531 -0.3967
12632TIP3   OH259386   3.172   6.034  14.709  1.1828  0.4180 -0.1206
12632TIP3    H159387   3.193   6.080  14.790 -0.5700  1.1952 -0.0680
12632TIP3    H259388   3.153   5.944  14.737  1.4870  0.4495  0.1981
12633TIP3   OH259389   1.991   2.678   1.191 -0.4710 -0.2224 -0.0840
12633TIP3    H159390   1.958   2.657   1.278  0.8131  0.4059  0.5697
12633TIP3    H259391   1.975   2.772   1.182  0.0329 -0.1540 -0.2511
12634TIP3   OH259392   4.377   0.169   5.086 -0.3317 -0.4200 -0.3025
12634TIP3    H159393   4.358   0.185   4.994 -0.4283 -0.0171 -0.2159
12634TIP3    H259394   4.346   0.248   5.131  0.8217 -0.0979 -0.0610
12635TIP3   OH259395   3.150   3.303  16.792  0.0799  0.8514  0.1998
12635TIP3    H159396   3.175   3.395  16.800  1.5295  0.3281  2.6897
12635TIP3    H259397   3.222   3.262  16.743  0.5282  0.6687  0.9981
12636TIP3   OH259398   1.913   3.515   2.840 -0.4852  0.0886  0.0117
12636TIP3    H159399   1.905   3.430   2.798  1.2288  0.6255 -1.5253
12636TIP3    H259400   1.986   3.558   2.795 -0.4637  1.8770  1.5943
12637TIP3   OH259401   5.743   3.169  15.730  0.7657 -0.2311 -0.1165
12637TIP3    H159402   5.835   3.145  15.733  1.9213  3.5182 -0.4935
12637TIP3    H259403   5.721   3.170  15.636  0.8031  0.3022 -0.1238
12638TIP3   OH259404   5.176   6.604   3.290  1.0227 -1.1100  0.1461
12638TIP3    H159405   5.241   6.558   3.236  0.3158 -1.3025 -0.5621
12638TIP3    H259406   5.120   6.534   3.323 -1.6029 -0.6966 -2.9478
12639TIP3   OH259407   2.817   2.751  14.212  0.2682 -0.0195  0.1979
12639TIP3    H159408   2.837   2.721  14.301 -0.3681 -1.1568 -0.0337
12639TIP3    H259409   2.722   2.745  14.205  0.1363  1.7062 -0.0057
12640TIP3   OH259410   0.543   4.963  14.600 -0.3367  0.6682 -0.1117
12640TIP3    H159411   0.487   4.889  14.576  2.6007 -1.0234 -2.5471
12640TIP3    H259412   0.591   4.933  14.677  1.8084 -0.6838 -1.8609
12641TIP3   OH259413   2.502   4.180  16.555 -0.4806  0.0867 -0.2389
12641TIP3    H159414   2.540   4.096  16.581  1.8372  1.3404  0.6596
12641TIP3    H259415   2.413   4.178  16.592  0.2825 -1.0849  1.6563
12642TIP3   OH259416   5.105   0.326  15.315  0.0495  0.6025 -0.7282
12642TIP3    H159417   5.054   0.314  15.395  1.6784 -1.2432  0.1482
12642TIP3    H259418   5.163   0.400  15.335 -1.6866  2.2079 -1.4457
12643TIP3   OH259419   3.156   3.208  12.130 -0.0432 -0.0992 -0.7950
12643TIP3    H159420   3.149   3.166  12.044 -0.4301 -0.0553 -0.7867
12643TIP3    H259421   3.250   3.222  12.143 -0.0180  0.3183 -1.4114
12644TIP3   OH259422   4.936   3.267  15.377 -0.0499  0.3394 -0.8642
12644TIP3    H159423   4.957   3.260  15.470 -0.7731 -0.1208 -0.7309
12644TIP3    H259424   4.964   3.356  15.353  1.9854 -0.2150 -0.6966
12645TIP3   OH259425   3.210   1.896   4.791  0.4196 -0.4265 -0.2424
12645TIP3    H159426   3.189   1.986   4.818 -0.7881 -0.9677  0.7413
12645TIP3    H259427   3.126   1.860   4.761  0.3093 -1.9995  1.7478
12646TIP3   OH259428   5.849   1.358  10.907 -0.4436  0.8889 -0.2708
12646TIP3    H159429   5.819   1.270  10.930 -0.2553  0.9703  0.3088
12646TIP3    H259430   5.786   1.389  10.842 -1.0033  0.6426  0.1456
12647TIP3   OH259431   1.611   2.825  11.728 -0.2410  0.1890 -0.8625
12647TIP3    H159432   1.547   2.896  11.735  0.9920  1.2685 -0.2019
12647TIP3    H259433   1.678   2.858  11.668 -0.0304 -0.7307 -1.1552
12648TIP3   OH259434   0.711   1.628   0.132 -0.1668  0.0483 -0.5261
12648TIP3    H159435   0.739   1.538   0.116  0.4690  0.4445 -1.8574
12648TIP3    H259436   0.688   1.661   0.045 -0.6044  1.1029 -0.0266
12649TIP3   OH259437   6.180   1.920  16.563 -0.1817  0.1111  0.3615
12649TIP3    H159438   6.100   1.887  16.523 -0.5170 -1.2420  2.0391
12649TIP3    H259439   6.244   1.850  16.547 -0.3744 -0.5447  2.2685
12650TIP3   OH259440   1.022   4.989  17.035  0.0022 -0.3910  0.1628
12650TIP3    H159441   0.998   4.988  17.127 -0.4203 -0.5454  0.0541
12650TIP3    H259442   1.092   4.925  17.027 -0.8999 -1.4161  0.1381
12651TIP3   OH259443   1.987   4.988   0.205 -0.1008  0.2080 -0.1669
12651TIP3    H159444   1.952   5.058   0.150  0.3031  0.8980  0.4261
12651TIP3    H259445   1.963   5.014   0.295  1.3709  0.4146  0.2033
12652TIP3   OH259446   1.348   5.429  15.912  0.0033 -0.7160  0.2182
12652TIP3    H159447   1.414   5.437  15.843  0.4393 -0.6990  0.6395
12652TIP3    H259448   1.344   5.336  15.930 -0.5199 -0.7858 -0.2209
12653TIP3   OH259449   0.782   5.563  14.063 -0.4559 -0.0777  0.3994
12653TIP3    H159450   0.862   5.519  14.034 -0.9894  0.5430 -2.1906
12653TIP3    H259451   0.808   5.654  14.076 -0.5792 -0.0342  0.3407
12654TIP3   OH259452   1.785   5.364  13.698  0.5587 -0.0410  0.7261
12654TIP3    H159453   1.758   5.454  13.679  0.4729 -0.0788  0.6684
12654TIP3    H259454   1.881   5.368  13.704  0.8920 -0.4856 -2.3337
12655TIP3   OH259455   3.366   3.861   5.370 -0.1331  0.2687 -0.6380
12655TIP3    H159456   3.359   3.858   5.274 -2.1093 -1.4762 -0.5183
12655TIP3    H259457   3.309   3.934   5.396  2.1993  2.2792 -0.8187
12656TIP3   OH259458   1.202   5.758  14.185  0.0530 -0.0486  0.6555
12656TIP3    H159459   1.159   5.834  14.147 -0.7332  0.0286  1.6548
12656TIP3    H259460   1.286   5.752  14.139  0.1614  1.4688  0.6217
12657TIP3   OH259461   0.282   3.993  16.597  0.1187 -0.1356  0.1629
12657TIP3    H159462   0.327   4.047  16.661  0.8562  0.3501 -0.7472
12657TIP3    H259463   0.281   4.045  16.517 -2.4288  0.0401  0.2320
12658TIP3   OH259464   2.156   4.339  14.747 -0.3346  0.3811  0.3054
12658TIP3    H159465   2.097   4.265  14.732  1.4045 -1.6155  2.4683
12658TIP3    H259466   2.124   4.380  14.828  0.9198 -0.5226  1.3165
12659TIP3   OH259467   4.318   0.656   3.291 -0.7428 -0.3956 -0.3232
12659TIP3    H159468   4.396   0.695   3.252 -1.0131 -0.3139 -0.7912
12659TIP3    H259469   4.339   0.649   3.384  0.1056 -1.0613 -0.5511
12660TIP3   OH259470   2.431   5.437  15.509 -0.1329  0.7958 -0.1968
12660TIP3    H159471   2.518   5.445  15.470  0.5854  2.4854  1.5771
12660TIP3    H259472   2.386   5.372  15.455  2.5178 -0.8158 -0.6556
12661TIP3   OH259473   5.570   5.138  15.972 -0.2379 -0.1031 -0.4058
12661TIP3    H159474   5.532   5.066  16.023 -0.1495  0.2169  0.1212
12661TIP3    H259475   5.495   5.182  15.933 -0.3310 -0.1647 -0.2975
12662TIP3   OH259476   2.891   1.061   6.318  0.3539  0.0865 -0.3468
12662TIP3    H159477   2.839   1.027   6.391  0.8913 -0.7657 -0.3460
12662TIP3    H259478   2.904   1.154   6.338 -1.9868  0.5661 -0.8386
12663TIP3   OH259479   4.408   2.458  13.657  0.9549  0.3507 -0.2388
12663TIP3    H159480   4.395   2.502  13.741  1.4285 -1.9006  1.0984
12663TIP3    H259481   4.489   2.408  13.668  0.2352 -1.1771 -1.4711
12664TIP3   OH259482   1.216   0.259  11.965  0.3761  0.4686  0.5387
12664TIP3    H159483   1.144   0.200  11.941  0.1634  1.7608 -2.3161
12664TIP3    H259484   1.290   0.231  11.911  1.0446  1.2127  1.0389
12665TIP3   OH259485   4.700   6.801  14.424 -0.7106 -0.1778  0.0829
12665TIP3    H159486   4.707   6.801  14.519  0.9228  2.0374  0.0368
12665TIP3    H259487   4.786   6.770  14.395 -0.2835  1.5623 -0.6270
12666TIP3   OH259488   0.617   3.003  14.361  0.3533 -0.1908 -0.0404
12666TIP3    H159489   0.565   3.060  14.418 -0.4760 -1.7208  0.8179
12666TIP3    H259490   0.659   2.942  14.420  1.6172 -0.1800 -0.8981
12667TIP3   OH259491   3.565   1.229   0.358  0.0773 -0.0763  0.3910
12667TIP3    H159492   3.526   1.173   0.424 -1.2335  0.6709  0.2893
12667TIP3    H259493   3.630   1.174   0.315 -0.2102 -1.0784  1.1964
12668TIP3   OH259494   1.312   0.765  11.864 -0.2213  0.8199  0.7670
12668TIP3    H159495   1.401   0.768  11.900  0.1816  0.6884 -0.2061
12668TIP3    H259496   1.291   0.672  11.859 -0.7158  0.8634  1.6831
12669TIP3   OH259497   2.153   2.852   5.682  0.1283 -0.5304 -0.2824
12669TIP3    H159498   2.146   2.763   5.717  1.1303 -0.1791  0.9181
12669TIP3    H259499   2.066   2.888   5.692 -0.1816 -1.2312 -0.3574
12670TIP3   OH259500   2.953   4.867  16.689 -0.4842  0.3195 -0.6843
12670TIP3    H159501   3.046   4.891  16.686 -0.5683  0.6352 -0.8587
12670TIP3    H259502   2.927   4.885  16.779 -0.6278  1.2278 -0.8942
12671TIP3   OH259503   5.148   3.241  12.473 -0.5623  0.2439  0.5848
12671TIP3    H159504   5.064   3.247  12.426 -1.3345  0.3664  1.9207
12671TIP3    H259505   5.126   3.265  12.563  1.1180  1.2962  0.7506
12672TIP3   OH259506   6.481   4.762  12.811 -0.4698 -0.2201  1.2426
12672TIP3    H159507   6.398   4.742  12.767  0.4024  1.6364 -1.5645
12672TIP3    H259508   6.461   4.835  12.869 -0.4059  2.3442 -1.7054
12673TIP3   OH259509   0.260   3.590   5.343 -0.1906  0.5795  0.3629
12673TIP3    H159510   0.167   3.592   5.317 -0.3938 -0.1359  1.0300
12673TIP3    H259511   0.272   3.672   5.391 -0.3330  0.9293 -0.1778
12674TIP3   OH259512   1.175   3.856   0.721  0.5053  0.2851 -0.0904
12674TIP3    H159513   1.152   3.888   0.634  1.1147 -0.1254 -0.4094
12674TIP3    H259514   1.270   3.853   0.722  0.4925 -0.4173  0.3257
12675TIP3   OH259515   4.291   6.665  15.041 -0.3357 -0.3483  0.0747
12675TIP3    H159516   4.246   6.648  14.959 -0.1724  0.4709 -0.1882
12675TIP3    H259517   4.358   6.597  15.046  1.0309  0.8074 -1.4984
12676TIP3   OH259518   4.120   6.146  14.123  0.4405  0.0515  0.0947
12676TIP3    H159519   4.169   6.229  14.126 -0.3355  0.5186  0.1077
12676TIP3    H259520   4.187   6.078  14.129  1.0961  0.6811  0.0092
12677TIP3   OH259521   3.008   4.231   1.635  0.2523 -0.6575  0.0789
12677TIP3    H159522   2.926   4.261   1.673 -0.3676 -0.7318 -1.1429
12677TIP3    H259523   3.032   4.299   1.572  0.6974 -1.0256 -0.1638
12678TIP3   OH259524   1.911   0.269  15.799  0.1872  0.0156 -0.7137
12678TIP3    H159525   1.827   0.291  15.760 -0.7257 -1.8933  0.0495
12678TIP3    H259526   1.895   0.270  15.894 -0.1041 -3.9399 -0.5586
12679TIP3   OH259527   2.000   1.308   5.620 -0.4771 -0.1383  0.3002
12679TIP3    H159528   1.958   1.222   5.623 -2.7860  0.9269  1.2881
12679TIP3    H259529   1.987   1.344   5.708  2.9736  0.1622  0.8091
12680TIP3   OH259530   0.247   4.845   3.855  0.0347  0.2396  0.5198
12680TIP3    H159531   0.175   4.859   3.794 -0.3293  1.8064  1.2592
12680TIP3    H259532   0.241   4.752   3.878 -0.9163  0.0415 -0.4611
12681TIP3   OH259533   2.292   5.555   4.066 -0.6839  0.3966 -0.3787
12681TIP3    H159534   2.374   5.506   4.064 -0.8596 -0.0264  1.1935
12681TIP3    H259535   2.312   5.636   4.020  1.1355  1.0079  1.3193
12682TIP3   OH259536   5.023   0.233  16.268  0.2891 -0.1792 -0.2165
12682TIP3    H159537   4.984   0.315  16.299 -0.9178 -0.9844  0.4866
12682TIP3    H259538   5.100   0.221  16.324  0.2576  0.2862 -0.0667
12683TIP3   OH259539   1.748   1.326  17.112 -0.6112  0.6851  0.1422
12683TIP3    H159540   1.806   1.357  17.043  0.9723 -0.0090  1.0899
12683TIP3    H259541   1.777   1.374  17.190  0.3867 -1.4249  1.1531
12684TIP3   OH259542   2.014   4.800   5.981 -0.0345  0.0661  0.0391
12684TIP3    H159543   1.992   4.887   5.949  0.7381  0.0067 -0.6772
12684TIP3    H259544   2.097   4.810   6.027  1.6347 -0.7634 -2.5918
12685TIP3   OH259545   3.353   2.054   2.089  0.1023  0.2791 -0.2255
12685TIP3    H159546   3.386   2.023   2.173  1.2218  1.5287 -0.1726
12685TIP3    H259547   3.277   1.998   2.071 -0.0628 -0.1106  1.5241
12686TIP3   OH259548   0.667   5.738   3.652 -0.0136 -0.1159 -0.4552
12686TIP3    H159549   0.671   5.737   3.557 -0.5454  0.6357 -0.4965
12686TIP3    H259550   0.616   5.660   3.675  1.7046 -1.3632 -0.6631
12687TIP3   OH259551   0.472   2.190  14.506  0.4665 -0.3239  0.4038
12687TIP3    H159552   0.534   2.125  14.473  0.5291  0.3552 -0.8956
12687TIP3    H259553   0.498   2.272  14.464 -1.4431 -0.0645 -0.3824
12688TIP3   OH259554   2.483   2.245   3.481  0.0648  0.7813 -0.0027
12688TIP3    H159555   2.427   2.262   3.405  0.5211 -0.3708 -0.6111
12688TIP3    H259556   2.570   2.231   3.445  0.0168 -1.3092  0.5450
12689TIP3   OH259557   0.476   0.548  14.841  0.0069 -0.3685 -0.0677
12689TIP3    H159558   0.570   0.529  14.836  0.0989  0.2139 -0.7859
12689TIP3    H259559   0.437   0.466  14.871  0.7532 -0.5977  0.3056
12690TIP3   OH259560   0.408   0.471  11.940  0.0967 -0.1582 -0.5221
12690TIP3    H159561   0.391   0.379  11.960 -1.2041  0.3657  0.9844
12690TIP3    H259562   0.503   0.478  11.940  0.2105 -1.4327 -0.3577
12691TIP3   OH259563   1.627   2.484  12.685  0.1174 -0.4947  0.1030
12691TIP3    H159564   1.689   2.426  12.641 -0.0580 -1.2550  0.8352
12691TIP3    H259565   1.683   2.547  12.731  0.3374 -0.7483  0.1906
12692TIP3   OH259566   0.841   1.668  14.560  0.2301 -0.2067  0.0780
12692TIP3    H159567   0.766   1.615  14.534  1.2420 -0.8411 -1.7701
12692TIP3    H259568   0.825   1.689  14.652 -1.9354 -0.7335 -0.1289
12693TIP3   OH259569   0.374   1.413   1.980  0.1082  0.1390 -0.4944
12693TIP3    H159570   0.324   1.336   1.952  0.1462  0.0049 -0.1991
12693TIP3    H259571   0.328   1.487   1.941  1.2253 -0.1394 -2.5270
12694TIP3   OH259572   0.035   4.932   5.842  0.0988  0.3062  0.5434
12694TIP3    H159573   0.014   5.025   5.852 -1.4352  0.4683 -2.7121
12694TIP3    H259574  -0.031   4.900   5.781  0.5331 -2.9951  1.6389
12695TIP3   OH259575   4.313   4.308   2.884 -0.4249  0.3753 -0.4377
12695TIP3    H159576   4.289   4.380   2.943  2.1950 -0.1433  1.4251
12695TIP3    H259577   4.256   4.236   2.910  0.4892  0.2431  1.3961
12696TIP3   OH259578   4.286   5.274  15.382 -0.4748  0.4138  0.4063
12696TIP3    H159579   4.375   5.295  15.411 -0.7675  0.6442  1.1687
12696TIP3    H259580   4.259   5.351  15.332  1.1946 -1.2168 -3.3936
12697TIP3   OH259581   0.412   0.845  17.092 -0.5963 -0.0589 -0.3271
12697TIP3    H159582   0.448   0.934  17.088  0.3247 -0.3482  0.9632
12697TIP3    H259583   0.473   0.792  17.040  0.4175 -0.3890  1.1287
12698TIP3   OH259584   0.767   6.469  15.548  0.0592  0.1875  0.3268
12698TIP3    H159585   0.772   6.536  15.616 -0.4490  1.1462 -0.5444
12698TIP3    H259586   0.677   6.437  15.552  0.4183 -0.7795  1.0281
12699TIP3   OH259587   6.617   4.546   2.626 -0.1423 -0.4187 -0.0212
12699TIP3    H159588   6.569   4.606   2.568 -1.1461  0.5122  1.6782
12699TIP3    H259589   6.709   4.570   2.615 -0.2968 -0.3042 -1.2415
12700TIP3   OH259590   2.738   4.007   1.492  0.1450  0.0310 -0.3894
12700TIP3    H159591   2.766   3.967   1.575 -1.4875  2.6910  1.6042
12700TIP3    H259592   2.820   4.037   1.452  1.1074 -2.4872 -0.5474
12701TIP3   OH259593   3.465   6.250   0.494 -0.7131 -0.0651 -0.3657
12701TIP3    H159594   3.551   6.226   0.528 -0.1653  0.9780 -0.9710
12701TIP3    H259595   3.404   6.194   0.541  0.4200 -1.9825 -1.0988
12702TIP3   OH259596   5.214   0.467   3.168  0.0980  0.0368 -0.2057
12702TIP3    H159597   5.204   0.497   3.077  0.1541  0.9992  0.0952
12702TIP3    H259598   5.275   0.393   3.162 -0.4727 -0.3916 -1.0334
12703TIP3   OH259599   2.684   4.171   4.361 -0.8176 -0.1780 -0.0610
12703TIP3    H159600   2.645   4.208   4.441  1.8775  1.2309  0.7112
12703TIP3    H259601   2.737   4.098   4.392  0.7215  0.7416 -0.4072
12704TIP3   OH259602   3.599   4.947  10.769 -0.1377 -0.1194  0.0130
12704TIP3    H159603   3.533   4.995  10.718 -1.3911 -2.1145 -0.3637
12704TIP3    H259604   3.558   4.863  10.787  2.1233 -1.2275  0.2629
12705TIP3   OH259605   1.605   0.514   5.967  0.2374 -0.4026 -0.0330
12705TIP3    H159606   1.533   0.451   5.973  0.5387 -0.7519 -0.0459
12705TIP3    H259607   1.563   0.596   5.941 -0.2028 -0.5141  0.3226
12706TIP3   OH259608   4.614   3.105  16.720  0.5402  0.1737  0.3039
12706TIP3    H159609   4.556   3.061  16.782 -0.2516  1.7603  0.7374
12706TIP3    H259610   4.670   3.035  16.686 -0.3049 -1.0594  1.3486
12707TIP3   OH259611   6.035   2.624   0.683  0.0646 -0.5483  0.1546
12707TIP3    H159612   6.111   2.603   0.629 -0.5521 -0.2132 -0.8486
12707TIP3    H259613   5.965   2.645   0.621 -1.2466 -2.1066  1.0115
12708TIP3   OH259614   0.744   1.885  11.634  0.3718 -0.3385 -0.4572
12708TIP3    H159615   0.706   1.829  11.566 -0.9560  2.2872 -2.0191
12708TIP3    H259616   0.675   1.948  11.655  1.6917  0.5822  1.4171
12709TIP3   OH259617   4.655   4.679   2.759  0.4547  0.6292 -0.4192
12709TIP3    H159618   4.706   4.747   2.714  0.7297 -0.2243 -1.4388
12709TIP3    H259619   4.713   4.648   2.828 -0.1551  2.2989  0.9178
12710TIP3   OH259620   2.901   0.785  10.855  0.3783 -0.1023  0.6750
12710TIP3    H159621   2.965   0.856  10.847  2.1876 -1.7262  0.0790
12710TIP3    H259622   2.837   0.804  10.787  0.5164  1.2491  0.8854
12711TIP3   OH259623   6.177   3.686   5.721 -0.2143 -0.2517  0.1066
12711TIP3    H159624   6.181   3.675   5.816 -1.0453  0.7242  0.2797
12711TIP3    H259625   6.175   3.781   5.709  0.0074 -0.3723 -0.8936
12712TIP3   OH259626   2.507   5.410   3.989  0.5176  0.3351 -0.3175
12712TIP3    H159627   2.587   5.447   4.024  1.5742 -2.9760  1.1510
12712TIP3    H259628   2.537   5.348   3.922 -0.7640 -0.9469  0.2441
12713TIP3   OH259629   3.116   3.078   2.724 -0.2685  0.0787  0.1741
12713TIP3    H159630   3.025   3.073   2.695 -0.1896  1.5041 -0.3801
12713TIP3    H259631   3.111   3.114   2.813 -0.4118 -2.9575  1.5463
12714TIP3   OH259632   0.723   4.031   6.066 -0.3870  0.3146  0.2066
12714TIP3    H159633   0.780   4.026   5.990  1.2546  1.5091  1.2858
12714TIP3    H259634   0.760   3.967   6.128 -1.2933 -0.1616  0.2775
12715TIP3   OH259635   1.038   6.216  16.974 -0.1103 -0.1383 -0.1456
12715TIP3    H159636   1.079   6.302  16.965  0.0906 -0.0223  1.6758
12715TIP3    H259637   1.052   6.174  16.888  0.4397  1.3415 -0.8132
12716TIP3   OH259638   1.488   2.328  15.495  0.2968 -0.5693 -0.5131
12716TIP3    H159639   1.446   2.354  15.577  0.9579 -1.7377  0.2183
12716TIP3    H259640   1.419   2.340  15.428 -1.2078 -2.3818  0.6308
12717TIP3   OH259641   0.619   2.800  12.235  0.2655  0.4763  0.4036
12717TIP3    H159642   0.597   2.886  12.198 -0.2575 -0.0481 -0.5513
12717TIP3    H259643   0.698   2.816  12.286 -0.1958  1.6607  0.7965
12718TIP3   OH259644   6.787   3.457  12.223  0.8448  0.9731 -0.1949
12718TIP3    H159645   6.876   3.491  12.208  1.1795 -0.1967 -0.9737
12718TIP3    H259646   6.763   3.415  12.141 -0.3697  1.1263  0.0734
12719TIP3   OH259647   2.165   0.477   0.934 -0.8682  0.1704 -0.1835
12719TIP3    H159648   2.145   0.532   0.858 -2.1176 -1.3097 -0.9941
12719TIP3    H259649   2.147   0.533   1.010 -0.0964  1.5064 -0.9510
12720TIP3   OH259650   5.617   4.218  12.877 -0.3356 -0.9461  0.8965
12720TIP3    H159651   5.550   4.168  12.831 -1.2794 -0.3551  1.5836
12720TIP3    H259652   5.700   4.185  12.843 -0.9566  0.2794 -2.1449
12721TIP3   OH259653   6.007   5.504  12.492  0.0665 -0.1416 -0.1061
12721TIP3    H159654   5.969   5.583  12.530  2.7812  0.8120  0.9002
12721TIP3    H259655   6.049   5.535  12.411  0.2131 -0.7686 -0.2706
12722TIP3   OH259656   2.385   3.060  13.382 -0.0938 -0.2201 -0.3284
12722TIP3    H159657   2.331   2.994  13.424  1.0587  0.3058  2.1432
12722TIP3    H259658   2.473   3.047  13.418  0.6086  1.3275 -1.3448
12723TIP3   OH259659   2.354   0.145   1.727 -0.0130  0.1135  0.2995
12723TIP3    H159660   2.267   0.129   1.763 -0.3563 -0.5037 -0.7675
12723TIP3    H259661   2.412   0.142   1.803 -0.8300 -0.1848  0.9271
12724TIP3   OH259662   4.819   4.009   4.684 -0.0787  0.1435  0.0337
12724TIP3    H159663   4.800   3.960   4.764  1.0476 -0.8574 -0.2862
12724TIP3    H259664   4.825   3.942   4.616  0.3302  0.8554 -0.6425
12725TIP3   OH259665   1.185   5.404  11.309 -0.0248 -0.0975 -0.0503
12725TIP3    H159666   1.143   5.488  11.327 -0.0940 -0.9539  5.4174
12725TIP3    H259667   1.116   5.339  11.325  1.1240 -1.2594  0.3707
12726TIP3   OH259668   6.597   3.438   5.109 -0.3490  0.3057 -0.2963
12726TIP3    H159669   6.626   3.381   5.181 -1.6185  1.4877  1.2398
12726TIP3    H259670   6.677   3.458   5.060  0.3640 -1.5076  0.0517
12727TIP3   OH259671   1.205   1.931   0.227 -0.1232  0.2144 -0.0810
12727TIP3    H159672   1.177   1.839   0.220  2.3869 -0.7336  1.0067
12727TIP3    H259673   1.278   1.938   0.165  0.8054  0.9754  1.0576
12728TIP3   OH259674   3.104   2.444  16.922  0.2882  0.5528  0.4607
12728TIP3    H159675   3.029   2.475  16.972 -1.5395 -0.4754 -1.4964
12728TIP3    H259676   3.139   2.371  16.974 -1.5709 -0.5069  0.3192
12729TIP3   OH259677   3.983   4.050   0.092  0.2598 -0.1745 -0.0648
12729TIP3    H159678   3.991   4.131   0.042 -1.3111 -1.1549 -2.0357
12729TIP3    H259679   3.992   3.980   0.027 -2.6645 -1.4953  0.7667
12730TIP3   OH259680   4.316   6.363   2.027  0.2458  0.1730  0.0561
12730TIP3    H159681   4.245   6.424   2.049 -1.3613 -1.9253  1.0170
12730TIP3    H259682   4.388   6.388   2.086  0.2426  2.0776 -0.6563
12731TIP3   OH259683   5.740   5.627  11.913 -0.1374  0.6062  0.1884
12731TIP3    H159684   5.663   5.681  11.930 -0.5046  0.2620 -0.3723
12731TIP3    H259685   5.719   5.578  11.834  0.7750  0.7220 -0.1400
12732TIP3   OH259686   6.172   4.788   0.198  0.3282 -0.6199 -0.1184
12732TIP3    H159687   6.134   4.823   0.118  1.5362  1.7287  0.2515
12732TIP3    H259688   6.102   4.796   0.263  0.8914  2.4368  0.2473
12733TIP3   OH259689   3.625   1.315   2.202 -0.2908  0.7988  0.1660
12733TIP3    H159690   3.625   1.225   2.234  0.7807  0.1118 -1.6087
12733TIP3    H259691   3.545   1.353   2.237 -0.0307 -0.3590  2.1955
12734TIP3   OH259692   5.501   0.715   5.264 -0.4859 -0.2014  0.1721
12734TIP3    H159693   5.505   0.652   5.192  1.7417  0.3520 -0.2776
12734TIP3    H259694   5.588   0.755   5.265 -0.1749 -0.6251  3.5548
12735TIP3   OH259695   1.431   0.124  12.595 -0.2245 -0.3292 -0.0995
12735TIP3    H159696   1.510   0.104  12.546 -0.8785 -0.3837 -1.1547
12735TIP3    H259697   1.457   0.193  12.656  0.6932 -0.5423 -0.2484
12736TIP3   OH259698   2.753   3.442   0.369  0.2287  0.1705  0.3622
12736TIP3    H159699   2.801   3.360   0.383 -0.8592 -0.4721  0.4227
12736TIP3    H259700   2.767   3.492   0.449 -1.1400 -1.0217  1.4032
12737TIP3   OH259701   1.244   6.267  14.700 -0.4339  0.0820 -0.1084
12737TIP3    H159702   1.319   6.298  14.649  0.2835  1.0218  1.4402
12737TIP3    H259703   1.273   6.183  14.736 -0.8467 -0.4606 -1.0167
12738TIP3   OH259704   2.315   3.710   6.189  0.3995 -0.8669  0.1682
12738TIP3    H159705   2.228   3.707   6.148 -0.1849 -0.3049  1.3190
12738TIP3    H259706   2.306   3.655   6.267  1.0106 -0.6066  0.4220
12739TIP3   OH259707   5.501   0.168   3.381 -0.4960  0.1394 -0.4881
12739TIP3    H159708   5.513   0.257   3.413 -0.7496 -0.1892  0.5822
12739TIP3    H259709   5.564   0.159   3.310 -1.4604  1.6217 -1.5823
12740TIP3   OH259710   1.897   3.227   6.006 -0.0731  0.0103 -0.2889
12740TIP3    H159711   1.985   3.191   5.990 -0.6277 -1.9100  0.7018
12740TIP3    H259712   1.906   3.277   6.087 -0.2242 -1.6821  0.8317
12741TIP3   OH259713   5.211   4.797   4.617 -0.4265 -0.0791  0.1519
12741TIP3    H159714   5.235   4.731   4.682 -0.0530 -0.5108 -0.4145
12741TIP3    H259715   5.228   4.880   4.660 -0.5264 -0.3590  0.7351
12742TIP3   OH259716   3.175   3.957   1.107 -0.1536 -0.2979  0.6495
12742TIP3    H159717   3.239   4.013   1.152  0.3976  0.7472 -1.3085
12742TIP3    H259718   3.201   3.868   1.129  0.4878  0.1491  1.8222
12743TIP3   OH259719   5.560   2.497  11.440  0.3815 -0.0020 -0.0897
12743TIP3    H159720   5.601   2.550  11.373 -0.8797  1.8265  0.5219
12743TIP3    H259721   5.470   2.484  11.409 -0.1263  0.6071  1.0588
12744TIP3   OH259722   1.149   0.644   0.554  0.5161  0.5841  0.3493
12744TIP3    H159723   1.188   0.558   0.571  0.4361  0.3574 -0.6021
12744TIP3    H259724   1.210   0.687   0.494 -0.1065  0.6870 -0.2081
12745TIP3   OH259725   2.239   1.046   4.707 -0.0215  0.4443  0.6472
12745TIP3    H159726   2.210   0.984   4.775  0.1577  0.2086  0.5111
12745TIP3    H259727   2.272   1.121   4.755 -0.0391  0.3417  0.8204
12746TIP3   OH259728   6.257   1.238  12.816  0.0755 -0.8815  0.8185
12746TIP3    H159729   6.188   1.292  12.779  0.8140 -0.5439 -0.1250
12746TIP3    H259730   6.246   1.153  12.774  2.2099  0.0711 -1.9964
12747TIP3   OH259731   0.024   3.585   1.357 -0.2888 -0.5924  0.0556
12747TIP3    H159732   0.097   3.637   1.390 -0.2135 -0.3730 -0.4486
12747TIP3    H259733   0.065   3.512   1.310 -0.3954 -0.8287  0.3226
12748TIP3   OH259734   3.803   4.925  13.979  0.1845  0.2387 -0.1575
12748TIP3    H159735   3.820   5.011  14.015 -0.3027 -0.0822  0.8894
12748TIP3    H259736   3.839   4.864  14.043  0.3616 -0.3432 -0.7943
12749TIP3   OH259737   1.828   5.487   0.201  0.7900 -0.1381 -0.1081
12749TIP3    H159738   1.740   5.513   0.228  0.7109  1.2143 -1.5277
12749TIP3    H259739   1.884   5.509   0.275  0.0955  0.0893  0.3554
12750TIP3   OH259740   0.903   5.234   0.060 -0.0379  0.1820  0.0415
12750TIP3    H159741   0.961   5.190   0.123 -1.6447 -1.5633  0.3859
12750TIP3    H259742   0.940   5.322   0.052  2.8721 -0.9294 -0.0632
12751TIP3   OH259743   0.293   4.530   4.618  0.2724 -0.2834 -0.0685
12751TIP3    H159744   0.276   4.624   4.625  0.5118 -0.2952  0.8992
12751TIP3    H259745   0.210   4.492   4.589  0.2142  0.2384 -0.5873
12752TIP3   OH259746   4.115   5.884   3.948  0.2154  0.1996 -0.5007
12752TIP3    H159747   4.073   5.934   4.019  2.8632  0.6949  0.8509
12752TIP3    H259748   4.115   5.794   3.979  0.5722  0.2800 -0.2566
12753TIP3   OH259749   4.853   2.989  15.360 -0.3423 -0.2240 -0.1387
12753TIP3    H159750   4.789   2.988  15.431 -1.6223  0.4645 -1.2366
12753TIP3    H259751   4.868   3.082  15.344 -1.8824 -0.2899 -2.3081
12754TIP3   OH259752   6.288   1.345  14.998  0.2608 -0.3225  0.6072
12754TIP3    H159753   6.328   1.425  14.964 -1.2627  0.0535 -0.3990
12754TIP3    H259754   6.251   1.370  15.082 -0.0486 -0.0168  0.3804
12755TIP3   OH259755   0.393   0.232   5.897 -0.0076  0.2663  0.4560
12755TIP3    H159756   0.437   0.193   5.973  0.2163  3.7134  2.3214
12755TIP3    H259757   0.303   0.245   5.927 -0.8047 -1.2660 -1.1412
12756TIP3   OH259758   0.560   4.311   3.269  0.3336 -0.2712  0.0999
12756TIP3    H159759   0.500   4.386   3.267  1.5250  0.7019 -0.9049
12756TIP3    H259760   0.536   4.261   3.191  0.6134 -0.0440 -0.1350
12757TIP3   OH259761   2.795   1.789   0.278  0.0042 -0.4603  0.7981
12757TIP3    H159762   2.763   1.879   0.266 -1.3248 -0.9247  0.7167
12757TIP3    H259763   2.821   1.784   0.370  0.6487  0.1714  0.6580
12758TIP3   OH259764   0.344   5.562   4.379  0.7844  0.5511  0.4027
12758TIP3    H159765   0.417   5.596   4.431  1.4121 -1.3029  0.7989
12758TIP3    H259766   0.363   5.588   4.289  1.0985  1.4480  0.7254
12759TIP3   OH259767   4.651   4.360   2.170 -0.3656 -0.5182  0.2243
12759TIP3    H159768   4.666   4.444   2.214  0.4472 -1.4105  1.7215
12759TIP3    H259769   4.556   4.349   2.171 -0.3502 -0.8554  2.5071
12760TIP3   OH259770   6.489   0.666   2.124  0.6129  0.1556  0.3840
12760TIP3    H159771   6.458   0.589   2.172 -1.1719  0.5661 -0.0228
12760TIP3    H259772   6.461   0.740   2.178  0.3108  0.5648 -0.3241
12761TIP3   OH259773   0.880   1.028   0.293 -0.0310 -0.1327 -0.1616
12761TIP3    H159774   0.918   1.115   0.280  1.4720 -0.6093  0.8015
12761TIP3    H259775   0.923   0.973   0.228 -1.3474 -0.0763 -1.1049
12762TIP3   OH259776   3.606   5.385  14.206  0.0353 -0.2701 -0.4232
12762TIP3    H159777   3.567   5.386  14.294  1.1246  1.5990  0.1178
12762TIP3    H259778   3.701   5.382  14.223  0.3822  2.4280 -1.3839
12763TIP3   OH259779   6.609   2.552  13.549 -0.5786 -0.1180 -0.1642
12763TIP3    H159780   6.646   2.508  13.473  0.4286  1.5502 -0.6907
12763TIP3    H259781   6.674   2.540  13.618 -0.6875 -0.1784 -0.0726
12764TIP3   OH259782   4.853   1.413  15.105  0.2686  0.0159 -0.4348
12764TIP3    H159783   4.805   1.442  15.182  1.4538 -0.6715  0.6138
12764TIP3    H259784   4.812   1.330  15.080 -0.4060  0.4653 -0.8287
12765TIP3   OH259785   6.413   3.488  13.260 -0.2370 -1.0376  0.0758
12765TIP3    H159786   6.377   3.543  13.329 -0.7677 -0.5769 -0.5526
12765TIP3    H259787   6.473   3.546  13.213 -1.3371 -0.7699 -1.0320
12766TIP3   OH259788   3.707   4.918   5.257  0.6382  0.4677 -0.5144
12766TIP3    H159789   3.739   4.992   5.206 -2.2828  1.0782 -1.6553
12766TIP3    H259790   3.690   4.850   5.192  1.5170 -0.5578  0.2994
12767TIP3   OH259791   2.397   1.455   4.057  0.4689  0.1747 -0.3601
12767TIP3    H159792   2.411   1.422   4.146 -0.9439 -0.0695 -0.1995
12767TIP3    H259793   2.368   1.546   4.070  0.0782  0.0789 -0.5476
12768TIP3   OH259794   4.572   4.865  12.595 -0.1250  0.1566  0.1419
12768TIP3    H159795   4.664   4.880  12.575  0.2475 -0.5209  1.2302
12768TIP3    H259796   4.527   4.872  12.511  0.9875 -0.0085 -0.4857
12769TIP3   OH259797   6.569   6.351  11.963  1.0394  0.0683 -0.0402
12769TIP3    H159798   6.641   6.381  11.909  0.0490  0.9786 -0.9071
12769TIP3    H259799   6.509   6.425  11.966  0.4990 -0.3805  1.3240
12770TIP3   OH259800   5.686   0.743   3.867 -0.0024  0.0247  0.1933
12770TIP3    H159801   5.596   0.711   3.869  0.6016 -1.7860  0.1153
12770TIP3    H259802   5.711   0.739   3.775  0.0938  0.7385  0.1858
12771TIP3   OH259803   2.537   1.818   6.598 -0.0317  0.2465 -0.2102
12771TIP3    H159804   2.490   1.880   6.654  0.8698 -0.1954  1.0907
12771TIP3    H259805   2.488   1.736   6.607  1.3672 -0.4427  1.8166
12772TIP3   OH259806   3.940   1.188  11.259 -0.0101 -0.0202  0.0685
12772TIP3    H159807   4.007   1.122  11.277 -0.1721 -0.2557 -0.1936
12772TIP3    H259808   3.986   1.271  11.264  0.0908 -0.1151  0.9314
12773TIP3   OH259809   3.671   2.512  16.503  0.2539 -0.2649 -0.3110
12773TIP3    H159810   3.701   2.504  16.594 -2.3103 -0.4515  0.6033
12773TIP3    H259811   3.652   2.422  16.476 -0.6420 -0.0532 -0.4119
12774TIP3   OH259812   2.820   2.230   5.045 -0.6375 -0.6265 -0.0834
12774TIP3    H159813   2.748   2.267   5.097  0.1590 -1.9278  2.0633
12774TIP3    H259814   2.814   2.136   5.058  0.2753 -0.9186 -1.5084
12775TIP3   OH259815   0.937   3.526   0.515  0.4688  0.0664 -0.0310
12775TIP3    H159816   0.987   3.521   0.433  1.1475 -2.1896  0.4511
12775TIP3    H259817   0.994   3.484   0.580 -0.7378  0.3390  1.2336
12776TIP3   OH259818   3.800   1.222   6.520  0.0537 -0.7041 -0.8888
12776TIP3    H159819   3.887   1.222   6.561 -0.0576  1.3149 -0.5538
12776TIP3    H259820   3.781   1.314   6.503 -2.1810 -1.0450 -0.6191
12777TIP3   OH259821   5.111   1.083   6.155  0.6701  0.0832 -0.0287
12777TIP3    H159822   5.069   1.023   6.093  1.7273  0.5653 -1.2501
12777TIP3    H259823   5.040   1.139   6.185 -0.1653 -1.2027  0.4586
12778TIP3   OH259824   3.679   2.137   0.820  0.3346 -0.8190 -0.1256
12778TIP3    H159825   3.693   2.043   0.835  2.1219 -0.5518  0.0575
12778TIP3    H259826   3.749   2.180   0.869 -0.8542  0.6646  0.3301
12779TIP3   OH259827   3.260   6.163  11.316  0.4800  0.3536  0.1665
12779TIP3    H159828   3.290   6.240  11.363  0.3629 -0.2071  1.1909
12779TIP3    H259829   3.167   6.157  11.337  0.3917  0.1746 -0.2573
12780TIP3   OH259830   4.330   3.597   2.509 -0.6714  0.3703  0.1039
12780TIP3    H159831   4.329   3.535   2.436 -0.4593  0.5935 -0.0937
12780TIP3    H259832   4.240   3.600   2.540 -0.9190  0.8288 -0.6244
12781TIP3   OH259833   2.030   3.570   6.417  0.4510 -0.4708 -0.1294
12781TIP3    H159834   2.083   3.510   6.365  1.6819 -0.6402  1.2601
12781TIP3    H259835   2.093   3.621   6.466 -0.6543 -0.5497  1.4453
12782TIP3   OH259836   2.152   6.267  11.842 -0.2556 -0.0861 -0.0909
12782TIP3    H159837   2.226   6.296  11.896 -1.0424  0.0033  0.9785
12782TIP3    H259838   2.084   6.331  11.859 -0.5050 -0.0182 -1.2765
12783TIP3   OH259839   1.764   2.558   2.225  0.2998 -0.1358  0.0050
12783TIP3    H159840   1.765   2.519   2.137  0.1738 -0.9560  0.3567
12783TIP3    H259841   1.855   2.551   2.254  0.6595  1.4791 -0.6157
12784TIP3   OH259842   1.042   4.770   3.656  0.2322 -0.1038  0.2258
12784TIP3    H159843   1.037   4.722   3.739  0.6827 -0.8418 -0.1598
12784TIP3    H259844   1.131   4.753   3.624 -0.8445 -2.3614 -1.8686
12785TIP3   OH259845   3.602   0.663   6.307  0.3204  0.3662 -0.2913
12785TIP3    H159846   3.578   0.635   6.218 -1.2463  1.3591 -0.2307
12785TIP3    H259847   3.696   0.646   6.313 -0.0363 -2.3546 -1.1356
12786TIP3   OH259848   1.487   5.430  14.915 -0.5113  0.0678  0.2953
12786TIP3    H159849   1.422   5.360  14.906 -1.0961  0.7379 -1.0147
12786TIP3    H259850   1.490   5.472  14.829  1.0545  0.6032  0.5624
12787TIP3   OH259851   4.866   6.565  16.058 -0.0556  0.5272  0.5083
12787TIP3    H159852   4.805   6.562  15.984 -0.3758 -0.1315  0.7880
12787TIP3    H259853   4.929   6.632  16.034 -0.7239  1.0183  0.0821
12788TIP3   OH259854   0.587   4.671   4.220  0.3740  0.1857 -0.1321
12788TIP3    H159855   0.533   4.624   4.156 -1.6501  1.9978  0.0909
12788TIP3    H259856   0.592   4.760   4.186  0.9260  0.7165  1.2511
12789TIP3   OH259857   4.434   3.326   3.059 -0.4287  0.9529  0.1658
12789TIP3    H159858   4.357   3.380   3.041 -3.6123 -2.3289  2.5283
12789TIP3    H259859   4.402   3.236   3.053  3.8598 -0.7389 -0.8039
12790TIP3   OH259860   4.548   5.657  15.821 -0.2784 -0.3403 -0.4206
12790TIP3    H159861   4.569   5.730  15.763 -1.0025 -0.0883 -0.3672
12790TIP3    H259862   4.455   5.640  15.806 -0.1407 -1.1875 -0.3567
12791TIP3   OH259863   4.764   2.194   4.799 -0.2279 -0.0866  0.4764
12791TIP3    H159864   4.729   2.119   4.750 -0.3142  0.2752 -0.0305
12791TIP3    H259865   4.847   2.214   4.755 -0.2723  0.1962  0.5175
12792TIP3   OH259866   2.487   4.768  12.307  0.3522 -0.3338 -0.4430
12792TIP3    H159867   2.460   4.678  12.326 -0.4053  0.5012  3.1068
12792TIP3    H259868   2.579   4.771  12.332  0.1584  0.0517  0.2509
12793TIP3   OH259869   2.331   1.973  12.904  0.3492 -0.0719 -0.8143
12793TIP3    H159870   2.339   2.068  12.907  0.3522 -0.0916  0.4026
12793TIP3    H259871   2.255   1.954  12.960  1.3094 -0.8771  0.2429
12794TIP3   OH259872   3.532   1.881  15.667 -0.0407 -0.2118 -0.0985
12794TIP3    H159873   3.569   1.969  15.673 -1.3991  0.3455  0.5002
12794TIP3    H259874   3.447   1.894  15.624 -0.3499 -1.2059  0.1894
12795TIP3   OH259875   4.690   3.082   1.740 -0.0564  0.0583  0.2027
12795TIP3    H159876   4.709   3.142   1.668 -1.2235  0.7340  0.4315
12795TIP3    H259877   4.763   3.094   1.801  0.5188  0.0862 -0.4676
12796TIP3   OH259878   6.746   1.979  11.842  0.1161 -0.2490  0.1727
12796TIP3    H159879   6.682   1.917  11.877  0.4291  0.0126  1.2465
12796TIP3    H259880   6.795   2.008  11.919  0.5206  0.7025 -0.4372
12797TIP3   OH259881   2.617   3.733   1.531 -0.0428  0.0368  0.2035
12797TIP3    H159882   2.528   3.701   1.513 -1.1028  2.1962  1.1638
12797TIP3    H259883   2.607   3.788   1.609  2.2756 -0.0821  0.6639
12798TIP3   OH259884   1.860   6.297  11.045 -0.1255  0.1023  0.4908
12798TIP3    H159885   1.818   6.217  11.014 -2.8440  2.3979 -2.4513
12798TIP3    H259886   1.919   6.323  10.974  0.9817  0.5379  1.5413
12799TIP3   OH259887   2.224   6.367  11.216  0.5751  0.1014 -0.1865
12799TIP3    H159888   2.265   6.424  11.282  0.7253  0.4224 -0.5527
12799TIP3    H259889   2.287   6.367  11.143 -0.0367  0.5341 -0.7238
12800TIP3   OH259890   5.662   0.954  12.735 -0.6070  0.0954  0.0308
12800TIP3    H159891   5.624   0.936  12.821 -0.9265  0.3858 -0.0502
12800TIP3    H259892   5.672   0.867  12.696  0.8751 -0.1714  0.9153
12801TIP3   OH259893   6.528   4.945  16.841  0.0157  0.0391  0.0871
12801TIP3    H159894   6.542   5.031  16.880 -1.0606 -0.2018  1.0380
12801TIP3    H259895   6.522   4.884  16.915 -4.3936 -0.0998 -0.1220
12802TIP3   OH259896   3.667   1.283  12.303  0.2752  0.2732  0.1992
12802TIP3    H159897   3.647   1.192  12.326 -0.8694  0.0432 -1.4733
12802TIP3    H259898   3.756   1.298  12.336 -0.2255 -0.8152  2.1846
12803TIP3   OH259899   6.039   0.801   3.752  0.1447 -0.0139 -0.3484
12803TIP3    H159900   6.078   0.715   3.769  0.1231  0.1762  0.7478
12803TIP3    H259901   5.973   0.811   3.821  0.8373  1.3033  0.1589
12804TIP3   OH259902   1.787   2.363  12.483 -0.7696  0.1884  0.6957
12804TIP3    H159903   1.872   2.323  12.461 -1.6135 -1.7521  0.7764
12804TIP3    H259904   1.772   2.427  12.413  0.3823 -0.0016  0.2465
12805TIP3   OH259905   4.200   4.174   0.282 -0.3158 -0.6202 -0.2517
12805TIP3    H159906   4.150   4.209   0.357  0.3605  1.1489 -0.5670
12805TIP3    H259907   4.161   4.088   0.266 -1.6032 -0.3442  1.0675
12806TIP3   OH259908   6.098   5.929  14.836  0.1465  0.2096  0.2816
12806TIP3    H159909   6.055   5.873  14.901  1.1257 -0.9161  0.0048
12806TIP3    H259910   6.102   5.875  14.757  1.0010  0.7075 -0.0322
12807TIP3   OH259911   5.236   1.024  15.527 -0.0146 -0.1700 -0.5123
12807TIP3    H159912   5.302   1.070  15.476 -0.3432 -0.1268 -0.8999
12807TIP3    H259913   5.153   1.064  15.502 -0.1065  0.4504  0.6931
12808TIP3   OH259914   3.860   3.506   4.180 -0.3493  0.0928  0.0677
12808TIP3    H159915   3.791   3.534   4.240  0.4022  0.1541  0.9277
12808TIP3    H259916   3.896   3.588   4.146 -0.7854  0.0576 -0.4931
12809TIP3   OH259917   6.708   3.199   2.981  0.1660  0.0058 -0.5305
12809TIP3    H159918   6.797   3.174   2.959 -0.0267 -0.8201 -0.4032
12809TIP3    H259919   6.677   3.129   3.039 -0.3828  0.5504 -0.1520
12810TIP3   OH259920   1.783   4.911   2.769 -0.3887 -0.8385 -0.0001
12810TIP3    H159921   1.833   4.946   2.695  0.1467 -0.7449  0.4062
12810TIP3    H259922   1.747   4.989   2.812  1.1264 -0.7208  1.1370
12811TIP3   OH259923   6.817   2.858   6.166  0.3125 -0.7298 -0.1757
12811TIP3    H159924   6.762   2.808   6.227  0.5935 -0.9919 -0.1353
12811TIP3    H259925   6.906   2.837   6.191  0.4435  0.3114  0.2616
12812TIP3   OH259926   6.219   1.823   4.192 -0.1120  0.0404  0.1078
12812TIP3    H159927   6.159   1.896   4.179  0.0979  0.3991  1.0768
12812TIP3    H259928   6.299   1.863   4.227  0.7528 -0.4073 -1.2759
12813TIP3   OH259929   3.878   6.325   0.168  0.4302  0.5287 -0.2800
12813TIP3    H159930   3.817   6.252   0.174 -0.3044  1.0070 -1.5114
12813TIP3    H259931   3.965   6.283   0.164 -0.0250 -0.3623 -1.9209
12814TIP3   OH259932   4.011   3.996  14.372  0.7160  0.0143 -0.5373
12814TIP3    H159933   3.928   4.032  14.403  0.8646 -0.0857 -0.0156
12814TIP3    H259934   4.040   3.939  14.443  0.7655 -0.6904 -1.1188
12815TIP3   OH259935   3.509   4.169  12.101  0.0089 -0.4750  0.3820
12815TIP3    H159936   3.511   4.109  12.026 -0.1141  0.8205 -0.6990
12815TIP3    H259937   3.422   4.156  12.140 -0.9543  0.5925 -1.2522
12816TIP3   OH259938   3.719   5.940  11.927 -0.0083  0.2933  0.0169
12816TIP3    H159939   3.749   5.850  11.911  1.5832  1.1490 -2.4636
12816TIP3    H259940   3.729   5.983  11.842 -2.0229  2.4907  0.8130
12817TIP3   OH259941   1.530   3.528   6.201  0.3704  0.4386  0.7958
12817TIP3    H159942   1.618   3.530   6.240  0.6643 -0.7710  0.2676
12817TIP3    H259943   1.471   3.513   6.274  0.3682  3.1146  1.4304
12818TIP3   OH259944   5.758   2.705   2.267  0.0635 -0.1070  0.2403
12818TIP3    H159945   5.790   2.632   2.214  3.2254  2.2734 -1.4870
12818TIP3    H259946   5.824   2.774   2.255 -1.6755  2.3685  3.3630
12819TIP3   OH259947   1.381   5.396  12.035 -0.4195 -0.8339  0.2256
12819TIP3    H159948   1.396   5.387  11.941 -0.2852  2.8501 -0.2752
12819TIP3    H259949   1.287   5.381  12.046 -1.1823  2.1205 -1.2187
12820TIP3   OH259950   4.904   2.866  14.544 -0.6425 -0.3033  0.0419
12820TIP3    H159951   4.947   2.883  14.628 -0.6978  0.2037 -0.0283
12820TIP3    H259952   4.975   2.867  14.480 -0.6909  0.0281 -0.0088
12821TIP3   OH259953   1.005   5.827  12.736  0.1469 -0.3824 -0.0421
12821TIP3    H159954   0.986   5.775  12.815 -1.5017 -1.1463 -0.8921
12821TIP3    H259955   0.991   5.917  12.763 -0.2351 -0.6219  0.5954
12822TIP3   OH259956   4.842   4.542  13.583 -0.0574 -0.4815  0.2741
12822TIP3    H159957   4.753   4.562  13.555  0.4089  1.0757 -0.1634
12822TIP3    H259958   4.875   4.483  13.515 -0.5780 -0.6784  0.1856
12823TIP3   OH259959   6.169   0.282   4.157  0.1715  0.3233 -0.7395
12823TIP3    H159960   6.105   0.352   4.144 -1.8369 -0.9134  1.6651
12823TIP3    H259961   6.212   0.304   4.240 -0.8872 -1.5028  0.3527
12824TIP3   OH259962   1.355   6.356   1.943  0.1589  0.0601  0.3778
12824TIP3    H159963   1.396   6.413   1.877  0.0891  0.8186  0.9716
12824TIP3    H259964   1.315   6.417   2.005 -0.4592 -0.6599  0.6903
12825TIP3   OH259965   0.611   5.335   3.185 -0.1300 -0.2544 -0.5251
12825TIP3    H159966   0.533   5.391   3.190  0.0967  0.1760 -1.4832
12825TIP3    H259967   0.580   5.253   3.147 -0.4552 -0.7849  0.8423
12826TIP3   OH259968   0.215   4.349  14.432 -0.5711  0.0670 -0.0273
12826TIP3    H159969   0.271   4.420  14.401  1.1801 -1.0809  0.3676
12826TIP3    H259970   0.143   4.392  14.478 -0.1608  1.5970 -0.7782
12827TIP3   OH259971   3.269   1.890   2.737 -0.0322  0.4748 -0.4777
12827TIP3    H159972   3.346   1.944   2.720  0.7801 -1.3244 -3.1886
12827TIP3    H259973   3.272   1.822   2.669 -2.2345 -1.6040  1.3199
12828TIP3   OH259974   6.267   6.254   4.377  0.4399  0.1164  0.3190
12828TIP3    H159975   6.284   6.212   4.461  0.5951  0.7773  0.6257
12828TIP3    H259976   6.267   6.182   4.313 -0.8452 -0.5451  1.0290
12829TIP3   OH259977   1.641   5.670  15.371  0.2590 -0.5260 -0.2972
12829TIP3    H159978   1.573   5.622  15.417 -0.8689  1.6759  0.5142
12829TIP3    H259979   1.614   5.669  15.279 -0.4633 -0.3400 -0.0921
12830TIP3   OH259980   3.797   4.128   0.297  0.0208  0.0414  0.0851
12830TIP3    H159981   3.738   4.191   0.255  1.2195  0.9583 -0.3099
12830TIP3    H259982   3.853   4.096   0.226 -0.4120 -1.3203  0.3290
12831TIP3   OH259983   3.309   0.363  13.990 -0.0364 -0.6421 -0.3569
12831TIP3    H159984   3.284   0.419  13.917  0.3862 -0.1843 -0.1550
12831TIP3    H259985   3.301   0.418  14.068  1.2240 -0.5753 -0.2440
12832TIP3   OH259986   2.180   0.385   2.299 -0.3592 -1.1149 -0.3604
12832TIP3    H159987   2.229   0.407   2.220  0.4601 -0.0583  0.4288
12832TIP3    H259988   2.163   0.291   2.291  2.8247 -1.8176 -0.1153
12833TIP3   OH259989   1.868   6.816  15.896  0.4129 -0.0923 -0.3502
12833TIP3    H159990   1.859   6.908  15.872 -0.0358  0.3996  1.5632
12833TIP3    H259991   1.806   6.803  15.968  1.1865 -1.6403  0.0886
12834TIP3   OH259992   5.702   2.412   4.399 -0.1477 -0.1563 -0.6829
12834TIP3    H159993   5.643   2.346   4.363 -1.1304  0.6497 -0.5988
12834TIP3    H259994   5.669   2.427   4.488  1.1385 -0.8102 -0.0664
12835TIP3   OH259995   1.017   4.614   3.888  0.1086 -0.2997  0.0805
12835TIP3    H159996   0.988   4.562   3.813 -1.4042 -0.7141  0.9086
12835TIP3    H259997   1.078   4.558   3.934  1.0776 -0.0314 -0.8233
12836TIP3   OH259998   5.241   4.917  12.275 -0.2774 -0.3245  0.2814
12836TIP3    H159999   5.304   4.850  12.301 -1.8634 -1.9594  0.1157
12836TIP3    H260000   5.235   4.909  12.180  2.2971  2.7077 -0.3149
12837TIP3   OH260001   6.375   3.845   4.064  0.0322 -0.2980  0.5567
12837TIP3    H160002   6.382   3.922   4.119 -0.4734 -0.4170  0.7910
12837TIP3    H260003   6.389   3.771   4.124  1.8459 -0.3610  0.1082
12838TIP3   OH260004   1.693   5.307  11.112  0.1913 -0.4097 -0.3194
12838TIP3    H160005   1.657   5.372  11.173  1.0833  0.5090 -0.7377
12838TIP3    H260006   1.633   5.233  11.118 -0.5631  0.2437  0.5667
12839TIP3   OH260007   0.251   2.725  17.140 -0.2328  0.0455  0.6174
12839TIP3    H160008   0.254   2.820  17.145  0.4831  0.1402 -0.9896
12839TIP3    H260009   0.246   2.696  17.231 -1.3424  1.6201  1.0965
12840TIP3   OH260010   5.730   2.948  16.966  0.0784  0.3202  0.3792
12840TIP3    H160011   5.708   2.903  16.885  0.0312  0.3406  0.3816
12840TIP3    H260012   5.686   3.032  16.960  1.6157  1.1225 -0.4431
12841TIP3   OH260013   3.386   0.240   1.183 -0.0435  0.3342 -0.2980
12841TIP3    H160014   3.463   0.262   1.235 -1.3495 -1.9516  2.9583
12841TIP3    H260015   3.351   0.325   1.155 -0.3996  2.1467  4.5970
12842TIP3   OH260016   2.548   1.934  11.193 -0.0379 -0.5224  0.3351
12842TIP3    H160017   2.508   1.918  11.107 -1.7924 -0.4542  1.0946
12842TIP3    H260018   2.584   1.850  11.219  1.3738 -0.3166 -0.8765
12843TIP3   OH260019   6.495   6.152  13.978 -0.1089  0.2937  0.2556
12843TIP3    H160020   6.540   6.194  13.904  0.6595  0.8644  1.0317
12843TIP3    H260021   6.492   6.059  13.954  0.1101  0.4765 -0.5041
12844TIP3   OH260022   3.785   0.554   5.624 -0.5304 -0.0741  0.0705
12844TIP3    H160023   3.848   0.619   5.656 -0.0253 -0.1060 -0.8357
12844TIP3    H260024   3.836   0.473   5.617 -0.4292  0.0999 -1.4969
12845TIP3   OH260025   4.598   2.125   5.028  0.8691  0.1767 -0.0146
12845TIP3    H160026   4.542   2.060   4.985  0.6399  0.1146  0.3712
12845TIP3    H260027   4.634   2.177   4.957 -0.3720  0.7797 -0.2253
12846TIP3   OH260028   4.046   6.044  16.969 -0.0110 -0.4784  0.3973
12846TIP3    H160029   3.962   6.048  16.924  0.4485  0.4238 -0.4370
12846TIP3    H260030   4.032   5.985  17.043 -2.4077  2.4152  2.4892
12847TIP3   OH260031   2.692   6.815   4.638  0.2250 -0.2295  0.4383
12847TIP3    H160032   2.650   6.751   4.695 -0.1038 -0.2687  0.1536
12847TIP3    H260033   2.673   6.900   4.680 -0.0405 -0.2561  0.3748
12848TIP3   OH260034   2.308   4.721   5.810 -0.0957  0.1765  0.2420
12848TIP3    H160035   2.290   4.739   5.718 -0.0035  1.0764  0.3826
12848TIP3    H260036   2.403   4.731   5.818 -0.0372 -0.4320  0.3283
12849TIP3   OH260037   1.693   0.424  15.191 -0.1843 -0.4436 -0.0145
12849TIP3    H160038   1.716   0.350  15.134  0.8273  0.1010 -0.3372
12849TIP3    H260039   1.624   0.390  15.247 -1.0808 -1.0657 -1.4202
12850TIP3   OH260040   0.356   4.926   0.845 -0.5957 -0.2964  0.4855
12850TIP3    H160041   0.362   4.862   0.774 -0.6424  0.0701  0.1438
12850TIP3    H260042   0.446   4.934   0.878 -0.3754  0.2876 -0.2209
12851TIP3   OH260043   3.082   1.777   0.093 -0.2497 -0.0203 -0.1842
12851TIP3    H160044   3.114   1.768   0.183 -0.0625  0.3035 -0.2171
12851TIP3    H260045   3.107   1.696   0.050  0.6015  0.2584 -0.2326
12852TIP3   OH260046   5.980   6.560   4.647  0.1291 -0.3616 -0.2293
12852TIP3    H160047   6.046   6.583   4.712 -0.8194  0.2833  0.5361
12852TIP3    H260048   6.008   6.475   4.614  1.0613 -0.3334  0.4401
12853TIP3   OH260049   6.730   2.961  12.550  0.7975  0.6391 -0.1650
12853TIP3    H160050   6.653   3.018  12.537 -0.0043 -0.3897 -0.0322
12853TIP3    H260051   6.770   2.994  12.630  1.5205  2.3011 -1.1554
12854TIP3   OH260052   4.655   0.135   0.155 -0.4647  0.4237  0.4377
12854TIP3    H160053   4.609   0.101   0.078 -2.8258  1.7599  1.1314
12854TIP3    H260054   4.730   0.077   0.167 -2.7520 -2.8893  0.0476
12855TIP3   OH260055   0.111   2.602   0.839 -0.2896  0.3510  0.7558
12855TIP3    H160056   0.055   2.658   0.785  2.5513  1.8594 -0.8540
12855TIP3    H260057   0.152   2.662   0.901  0.4576 -0.4977  1.1079
12856TIP3   OH260058   5.778   1.574  11.753 -0.1695 -0.3856  0.1104
12856TIP3    H160059   5.753   1.530  11.835  1.4836 -0.7133  0.4659
12856TIP3    H260060   5.773   1.667  11.773 -0.1421 -0.4602  0.4647
12857TIP3   OH260061   6.090   4.417  13.313  0.4077  0.5379 -0.0044
12857TIP3    H160062   6.132   4.457  13.238  0.1786 -1.1688 -1.1087
12857TIP3    H260063   5.997   4.441  13.305  0.2832 -0.1082 -0.6192
12858TIP3   OH260064   1.586   5.011  11.296  0.3481  0.1462 -0.0956
12858TIP3    H160065   1.541   5.006  11.381  0.5313  1.3611  0.0861
12858TIP3    H260066   1.679   5.011  11.318  0.3937  1.0131 -0.2490
12859TIP3   OH260067   0.473   0.343   3.036 -0.0734 -0.6963  0.7563
12859TIP3    H160068   0.466   0.359   3.130 -1.5308 -1.3854  0.7881
12859TIP3    H260069   0.567   0.344   3.018  0.1809  0.2900  2.0638
12860TIP3   OH260070   4.488   1.043   3.224 -0.1038 -0.2914 -0.7297
12860TIP3    H160071   4.542   1.117   3.196 -1.6272  0.9457 -0.5926
12860TIP3    H260072   4.488   0.984   3.149 -0.3779  0.7670 -1.6028
12861TIP3   OH260073   5.276   0.102   4.761 -0.1476  0.1802 -0.3409
12861TIP3    H160074   5.241   0.014   4.742 -3.4090  1.2110  0.1941
12861TIP3    H260075   5.351   0.111   4.703  0.1694 -2.8642 -0.5645
12862TIP3   OH260076   6.775   1.904  16.503 -0.2298  0.3400  0.0269
12862TIP3    H160077   6.723   1.981  16.479  0.9628  0.9583 -0.6794
12862TIP3    H260078   6.717   1.852  16.559 -1.8875  0.5790 -1.3951
12863TIP3   OH260079   5.275   5.031   4.736 -0.4388 -0.5320  0.7333
12863TIP3    H160080   5.366   5.054   4.753 -0.0573 -1.3514 -0.0955
12863TIP3    H260081   5.228   5.059   4.815  0.5667 -0.3193  1.2756
12864TIP3   OH260082   5.674   0.288  12.957 -0.0133 -0.5135  0.7223
12864TIP3    H160083   5.694   0.365  13.010  0.7312 -0.9029  1.0328
12864TIP3    H260084   5.633   0.227  13.019 -0.1323 -0.5598  0.5977
12865TIP3   OH260085   0.623   0.431  13.485 -0.4167 -0.4216  0.4343
12865TIP3    H160086   0.607   0.340  13.511 -1.3071 -0.5432 -0.4667
12865TIP3    H260087   0.639   0.426  13.391 -0.2978  0.3374  0.4121
12866TIP3   OH260088   4.038   5.328   2.490 -0.0174  0.1149 -0.5227
12866TIP3    H160089   3.985   5.363   2.418  0.4550 -1.6509 -1.7778
12866TIP3    H260090   4.076   5.247   2.455 -0.4251 -1.2457  1.9879
12867TIP3   OH260091   2.248   4.574  11.572  0.5005 -0.2985 -0.0635
12867TIP3    H160092   2.280   4.591  11.484  1.4948  1.9126  0.6481
12867TIP3    H260093   2.323   4.537  11.618 -0.2097 -2.0969 -0.2634
12868TIP3   OH260094   4.789   5.855   2.200 -0.4171 -0.2525  0.4401
12868TIP3    H160095   4.759   5.926   2.256 -0.7238 -0.1919  0.2013
12868TIP3    H260096   4.739   5.866   2.119  0.8244  0.3461 -0.2754
12869TIP3   OH260097   4.260   0.399   3.938 -0.7313 -0.5004 -0.5774
12869TIP3    H160098   4.297   0.368   4.021 -0.1654 -0.9354 -0.9798
12869TIP3    H260099   4.197   0.331   3.913 -0.7233 -0.4925 -0.6198
12870TIP3   OH260100   5.438   1.067  14.728  0.6276 -0.4821 -0.0297
12870TIP3    H160101   5.345   1.079  14.747  0.6273 -0.8232  0.1920
12870TIP3    H260102   5.477   1.154  14.738  0.4461 -0.4652  0.5095
12871TIP3   OH260103   0.582   5.280   3.963 -0.3176  0.3219 -0.0098
12871TIP3    H160104   0.514   5.344   3.944 -0.0794  0.7866  0.6826
12871TIP3    H260105   0.536   5.208   4.008 -0.2465  0.9739  1.1464
12872TIP3   OH260106   4.460   2.931   1.461  0.8302 -0.2444  0.7355
12872TIP3    H160107   4.528   2.941   1.527  1.7772  0.3991 -0.3017
12872TIP3    H260108   4.458   3.016   1.416 -0.7708 -0.1960  0.8336
12873TIP3   OH260109   5.458   2.966  12.327 -0.7741 -0.6921 -0.0221
12873TIP3    H160110   5.519   2.898  12.297 -0.8732 -0.4878 -0.6869
12873TIP3    H260111   5.514   3.041  12.346 -0.9583  0.1045 -2.3483
12874TIP3   OH260112   5.847   0.758   1.228  0.3032  0.2512 -0.0622
12874TIP3    H160113   5.920   0.708   1.192 -0.2798 -3.0384  2.7928
12874TIP3    H260114   5.871   0.772   1.319 -1.2687  2.0010  0.1245
12875TIP3   OH260115   3.096   6.744  17.005 -0.1260  0.8046  0.1770
12875TIP3    H160116   3.175   6.783  17.041  0.8520 -1.8674  1.1511
12875TIP3    H260117   3.127   6.681  16.940 -1.5803  1.2046 -0.9595
12876TIP3   OH260118   5.138   2.008   5.035 -0.2767 -0.4181 -0.1048
12876TIP3    H160119   5.157   2.066   4.961  0.1259 -1.9071 -1.2307
12876TIP3    H260120   5.045   2.021   5.053 -0.2158  0.4788 -0.4193
12877TIP3   OH260121   0.562   1.607  14.151 -0.0297 -0.3872 -0.4391
12877TIP3    H160122   0.591   1.521  14.180 -2.2330 -0.3606  2.1400
12877TIP3    H260123   0.562   1.601  14.055  3.4315 -1.9319 -0.4849
12878TIP3   OH260124   1.040   0.776  11.975  0.2828 -0.0816  0.1508
12878TIP3    H160125   1.135   0.778  11.972  0.2741  1.9419 -0.4146
12878TIP3    H260126   1.013   0.778  11.883 -0.3769 -3.0629  0.1733
12879TIP3   OH260127   4.393   3.032   3.775 -0.7154 -0.4837  0.7986
12879TIP3    H160128   4.322   3.065   3.719  0.9053 -0.7106 -1.5143
12879TIP3    H260129   4.436   3.111   3.808 -0.2131 -0.2783 -0.2858
12880TIP3   OH260130   0.468   0.992  13.047  0.4442  0.0879  0.3884
12880TIP3    H160131   0.552   1.031  13.024  0.5804 -0.4033  0.0477
12880TIP3    H260132   0.469   0.988  13.143  0.7626  0.1768  0.3880
12881TIP3   OH260133   4.735   2.210  11.434 -0.9218 -0.0505 -0.4209
12881TIP3    H160134   4.716   2.239  11.344 -2.5325  0.1262 -0.0525
12881TIP3    H260135   4.790   2.279  11.471  0.5182 -0.5492 -1.5296
12882TIP3   OH260136   4.756   0.883   2.170 -0.7665  0.7419 -0.2242
12882TIP3    H160137   4.717   0.878   2.083 -1.2792  1.8829 -0.0793
12882TIP3    H260138   4.850   0.892   2.154 -0.9500  1.9133 -0.6932
12883TIP3   OH260139   6.476   1.501  11.356 -0.0788  0.2537  0.1535
12883TIP3    H160140   6.508   1.492  11.266  1.8590  0.1353  0.8154
12883TIP3    H260141   6.537   1.562  11.397 -1.9762  1.7319  0.9358
12884TIP3   OH260142   5.347   5.571  12.811 -0.0354  0.1716 -0.5301
12884TIP3    H160143   5.310   5.579  12.899 -0.2232 -0.0750 -0.5846
12884TIP3    H260144   5.274   5.540  12.758  0.4027 -0.9406 -0.5103
12885TIP3   OH260145   2.334   6.450   4.642 -0.3262 -0.7401 -0.0415
12885TIP3    H160146   2.309   6.434   4.733 -0.2228 -1.5053 -0.1362
12885TIP3    H260147   2.252   6.440   4.593 -0.3985 -0.2393 -0.0244
12886TIP3   OH260148   1.288   4.979   2.264 -0.0288 -0.1277 -0.3443
12886TIP3    H160149   1.278   5.025   2.347 -0.6403  1.1306 -1.0821
12886TIP3    H260150   1.200   4.952   2.240  0.0558  0.0503 -0.8708
12887TIP3   OH260151   4.486   3.103  13.656 -0.3037  0.5877 -0.1626
12887TIP3    H160152   4.479   3.162  13.732  1.1630  0.6557 -0.0448
12887TIP3    H260153   4.406   3.052  13.658  0.5479 -0.8679  2.7091
12888TIP3   OH260154   0.655   4.598   4.681  0.4883  0.4341  0.3605
12888TIP3    H160155   0.644   4.622   4.773 -1.6188  0.4917  0.1448
12888TIP3    H260156   0.642   4.680   4.634  1.3934  0.3729 -0.0147
12889TIP3   OH260157   5.087   2.757  12.508  0.3726  0.4062  0.7069
12889TIP3    H160158   5.109   2.845  12.539  0.8025 -0.1730  2.1310
12889TIP3    H260159   4.995   2.762  12.483 -0.3850  0.6584  3.2349
12890TIP3   OH260160   4.798   2.622  14.134 -0.2062  0.1864 -0.5160
12890TIP3    H160161   4.755   2.648  14.052  0.4719  0.5864 -0.7510
12890TIP3    H260162   4.814   2.704  14.180  1.2861  0.1564 -0.9336
12891TIP3   OH260163   0.838   2.023   3.606  0.1058 -0.3829 -0.3525
12891TIP3    H160164   0.761   2.050   3.555 -0.7219 -1.9880 -0.0189
12891TIP3    H260165   0.912   2.065   3.561 -0.8196  0.1383 -1.4625
12892TIP3   OH260166   0.129   3.685   0.165 -0.7654 -0.0002  0.2461
12892TIP3    H160167   0.071   3.614   0.139 -0.2960  0.0325 -0.9658
12892TIP3    H260168   0.073   3.748   0.210 -1.7677  0.2282 -1.2631
12893TIP3   OH260169   2.454   0.036   2.646  0.6782 -0.3093  0.0616
12893TIP3    H160170   2.381   0.092   2.674 -0.3796 -0.7936 -1.5685
12893TIP3    H260171   2.437   0.020   2.553  2.0233 -1.7344  0.0266
12894TIP3   OH260172   5.831   4.625  15.027  0.2468  0.1795 -0.3429
12894TIP3    H160173   5.855   4.559  15.091  0.1222 -0.4023 -0.8790
12894TIP3    H260174   5.814   4.575  14.947  0.1278  0.8601 -0.7505
12895TIP3   OH260175   2.905   5.015  11.129  0.6776 -0.0150 -0.2832
12895TIP3    H160176   2.845   5.065  11.184  0.7644  0.1565 -0.3426
12895TIP3    H260177   2.961   5.081  11.089  1.2945 -0.2102  0.2325
12896TIP3   OH260178   6.106   6.385   3.165 -0.5158 -0.4469  0.1260
12896TIP3    H160179   6.112   6.415   3.074  0.7747 -0.8733  0.0572
12896TIP3    H260180   6.151   6.453   3.215 -2.3242  0.4522  0.6462
12897TIP3   OH260181   3.754   6.142  14.857  0.4429  0.3446  0.2635
12897TIP3    H160182   3.817   6.188  14.911  0.3881 -0.3242  0.9134
12897TIP3    H260183   3.802   6.065  14.825 -0.0098 -0.1261  0.6963
12898TIP3   OH260184   5.158   4.872   2.497  0.2907 -0.3028  0.0522
12898TIP3    H160185   5.244   4.875   2.454  0.0947 -0.9016 -0.4010
12898TIP3    H260186   5.138   4.778   2.503 -0.7015 -0.1506 -0.6040
12899TIP3   OH260187   0.799   0.659  11.221 -0.3742 -0.5397 -0.2821
12899TIP3    H160188   0.765   0.692  11.138 -0.8061  0.5993  0.3364
12899TIP3    H260189   0.890   0.636  11.203 -1.1967 -3.0228 -1.7985
12900TIP3   OH260190   4.243   2.637  15.148  0.1842  0.2759  0.5653
12900TIP3    H160191   4.232   2.557  15.096 -1.1549  0.6356  0.2550
12900TIP3    H260192   4.249   2.707  15.083  0.9595  0.4689  0.8453
12901TIP3   OH260193   6.733   4.661   0.620 -0.3605  0.2857  0.8163
12901TIP3    H160194   6.732   4.651   0.715  0.1583  0.4050  0.8382
12901TIP3    H260195   6.812   4.714   0.602 -0.0450 -0.3546  0.2634
12902TIP3   OH260196   4.306   4.678   0.027  0.1307  0.5345 -0.4080
12902TIP3    H160197   4.256   4.598   0.043 -0.4971  0.9981 -0.0542
12902TIP3    H260198   4.393   4.646   0.001  0.1327 -0.2645  0.5005
12903TIP3   OH260199   5.490   2.401  16.807  0.0661 -0.7328 -0.4006
12903TIP3    H160200   5.549   2.423  16.735  0.6505 -1.8272 -0.2758
12903TIP3    H260201   5.547   2.373  16.878 -0.2585  3.1196  1.6585
12904TIP3   OH260202   5.439   5.757  13.671 -0.1022 -0.1255 -0.2689
12904TIP3    H160203   5.385   5.738  13.594 -2.1749 -0.8292  1.2618
12904TIP3    H260204   5.416   5.689  13.734  1.7614  0.2504  0.8888
12905TIP3   OH260205   2.409   6.239  11.568 -0.0862 -0.1184 -0.0004
12905TIP3    H160206   2.461   6.254  11.489 -1.0611 -0.2298 -0.6700
12905TIP3    H260207   2.474   6.234  11.638  0.7175  1.1892 -0.6018
12906TIP3   OH260208   3.838   5.769   5.355  0.5236  0.6668  0.6958
12906TIP3    H160209   3.931   5.756   5.332  0.4481  2.7619 -1.0679
12906TIP3    H260210   3.790   5.737   5.278 -0.3503 -1.2795  1.9585
12907TIP3   OH260211   0.507   4.925  11.713  0.1256 -0.0734 -0.2916
12907TIP3    H160212   0.535   4.948  11.802 -0.6005  0.8509 -0.2874
12907TIP3    H260213   0.570   4.970  11.656 -0.4380  0.7669 -0.2619
12908TIP3   OH260214   0.422   6.705  15.666 -0.3303  0.1475  0.2473
12908TIP3    H160215   0.349   6.689  15.606 -0.1072  2.4518 -0.7366
12908TIP3    H260216   0.400   6.788  15.708  0.6131 -0.3173  1.7356
12909TIP3   OH260217   0.538   3.842  16.763  0.6199 -0.0657 -0.7880
12909TIP3    H160218   0.624   3.855  16.803 -0.1686 -0.1728  1.0335
12909TIP3    H260219   0.476   3.854  16.835 -0.8951 -0.1258 -2.0308
12910TIP3   OH260220   5.114   4.204   1.925  0.1880  0.2483  0.7899
12910TIP3    H160221   5.064   4.210   1.843  0.7723  1.4735  0.4842
12910TIP3    H260222   5.053   4.166   1.988  0.0177 -1.6202 -0.4287
12911TIP3   OH260223   1.980   1.739   3.370  0.1845  0.3173  0.2942
12911TIP3    H160224   1.948   1.829   3.373  1.0998  0.8190 -2.1231
12911TIP3    H260225   1.901   1.686   3.359 -0.2250  1.1201 -0.9954
12912TIP3   OH260226   2.938   6.097   3.222 -0.2246  0.1388  0.7680
12912TIP3    H160227   3.022   6.138   3.245  1.0492 -1.5827 -0.6250
12912TIP3    H260228   2.906   6.148   3.148  0.4245 -0.2167  0.2373
12913TIP3   OH260229   1.520   4.002   5.488  0.2183 -0.7673 -0.0552
12913TIP3    H160230   1.451   3.936   5.488  0.6958 -1.2798 -0.3324
12913TIP3    H260231   1.512   4.045   5.573 -1.0114 -0.1952 -0.4361
12914TIP3   OH260232   4.929   3.572  13.272 -0.1512 -0.1810 -0.2938
12914TIP3    H160233   4.996   3.569  13.204 -0.3227  2.3673 -0.6781
12914TIP3    H260234   4.869   3.501  13.251  1.1606 -1.0343 -1.2874
12915TIP3   OH260235   6.240   5.142   4.941 -0.3599 -0.0740 -0.3867
12915TIP3    H160236   6.250   5.053   4.906  1.7356 -0.3159  0.6547
12915TIP3    H260237   6.204   5.129   5.028 -0.7193  0.1661 -0.4977
12916TIP3   OH260238   6.783   5.205  16.280 -0.5723 -0.0504 -0.0313
12916TIP3    H160239   6.767   5.160  16.197 -0.1667  0.6408 -0.4937
12916TIP3    H260240   6.865   5.166  16.312  0.3859  1.1202 -0.9865
12917TIP3   OH260241   1.835   1.736   3.050 -0.0022 -0.2680 -0.6080
12917TIP3    H160242   1.802   1.647   3.063  1.1665 -0.7715 -1.0105
12917TIP3    H260243   1.895   1.729   2.976 -0.6591  1.0648 -1.3050
12918TIP3   OH260244   1.679   3.109  13.180  0.4077  0.0922  0.0555
12918TIP3    H160245   1.732   3.089  13.256  1.0106  0.3490 -0.2912
12918TIP3    H260246   1.641   3.195  13.199 -1.1595 -0.7490  0.9833
12919TIP3   OH260247   3.797   1.183   2.466 -0.7161 -0.3330  0.3566
12919TIP3    H160248   3.892   1.180   2.455 -0.9286  0.5614 -2.5657
12919TIP3    H260249   3.781   1.148   2.554  2.2284 -1.2764  0.5948
12920TIP3   OH260250   6.082   2.791  12.781  0.1286 -0.1625 -0.1703
12920TIP3    H160251   5.989   2.767  12.777  0.1761 -0.2755 -0.6831
12920TIP3    H260252   6.120   2.730  12.845 -0.0662 -0.4138 -0.2903
12921TIP3   OH260253   0.567   0.374   5.039 -0.7304  0.1229 -0.3087
12921TIP3    H160254   0.523   0.371   4.955  1.1996 -0.7620 -1.3496
12921TIP3    H260255   0.615   0.457   5.038 -1.9921  0.8936  0.6459
12922TIP3   OH260256   2.068   1.254  13.828 -0.3059  0.4710 -0.3385
12922TIP3    H160257   2.031   1.166  13.838 -0.1546  0.3457 -0.8429
12922TIP3    H260258   2.150   1.251  13.876  0.1173  0.0670 -1.0653
12923TIP3   OH260259   6.782   4.167   1.957 -0.2857 -0.2970 -0.1360
12923TIP3    H160260   6.768   4.201   2.045  1.3829 -0.5077  0.2407
12923TIP3    H260261   6.805   4.075   1.970 -0.1796 -0.3685 -0.8054
12924TIP3   OH260262   5.470   2.659   0.191  0.9448  0.3456 -0.1488
12924TIP3    H160263   5.402   2.716   0.155  0.4153  0.3777  0.8517
12924TIP3    H260264   5.509   2.616   0.115 -0.6128 -0.1343 -0.7161
12925TIP3   OH260265   5.867   2.515   4.113  0.4260  0.0636 -0.7090
12925TIP3    H160266   5.783   2.485   4.078 -1.0123  0.6867  1.9328
12925TIP3    H260267   5.923   2.438   4.108 -1.2390 -1.2831  0.1454
12926TIP3   OH260268   0.460   1.678   5.453  0.2138  0.2445  0.7259
12926TIP3    H160269   0.398   1.710   5.387  0.5559  1.2424  0.8713
12926TIP3    H260270   0.546   1.700   5.418  0.4594 -0.4719  0.8683
12927TIP3   OH260271   0.883   5.828  14.091  0.0391 -0.0290 -0.4129
12927TIP3    H160272   0.927   5.889  14.150 -0.9834  0.7101 -0.3762
12927TIP3    H260273   0.894   5.866  14.004 -0.0252 -0.1489 -0.4738
12928TIP3   OH260274   1.360   3.718  11.184  0.1740  0.2861 -0.0916
12928TIP3    H160275   1.313   3.772  11.121  1.2203  2.3289  0.7920
12928TIP3    H260276   1.420   3.666  11.131  1.3994  2.3324 -0.8210
12929TIP3   OH260277   4.061   5.453   4.907 -0.2311 -0.5368  0.5987
12929TIP3    H160278   3.985   5.412   4.947 -1.4459  0.0541 -0.9891
12929TIP3    H260279   4.059   5.425   4.815  1.4503 -0.4761  0.4999
12930TIP3   OH260280   1.046   0.425   0.837 -0.2618 -0.1858  0.0071
12930TIP3    H160281   0.976   0.424   0.772 -3.1590 -0.8949  2.9103
12930TIP3    H260282   1.076   0.334   0.841  1.0847  0.1413 -1.3333
12931TIP3   OH260283   6.147   6.261  10.108 -0.5691 -0.1611  0.0355
12931TIP3    H160284   6.087   6.237  10.179 -1.6232  0.0925 -0.7490
12931TIP3    H260285   6.134   6.355  10.097  0.0682 -0.0798 -0.0731
12932TIP3   OH260286   3.055   3.157  12.927  0.1927 -0.2857 -0.3778
12932TIP3    H160287   3.095   3.215  12.992  1.2379 -2.2522  0.8375
12932TIP3    H260288   3.043   3.212  12.850  1.6159  1.4081  0.5287
12933TIP3   OH260289   2.266   3.608  15.482  0.9349 -0.2690 -0.0061
12933TIP3    H160290   2.297   3.532  15.530  1.7879 -0.3024 -0.5745
12933TIP3    H260291   2.183   3.581  15.444 -1.1561  0.5863  3.5194
12934TIP3   OH260292   2.781   1.085   5.602  0.0917  0.4079 -0.8073
12934TIP3    H160293   2.714   1.148   5.576 -1.2122 -0.7194 -0.3356
12934TIP3    H260294   2.765   1.070   5.695  1.4954  0.6601 -0.4995
12935TIP3   OH260295   2.590   5.245  12.916 -0.2881 -0.6231 -0.1583
12935TIP3    H160296   2.567   5.172  12.972 -1.4280 -0.6153 -0.5908
12935TIP3    H260297   2.540   5.231  12.835 -1.8208  1.4454  0.3484
12936TIP3   OH260298   0.304   1.226   0.560  0.3463 -0.0702 -0.2928
12936TIP3    H160299   0.284   1.138   0.528 -2.2904 -0.3812  1.8774
12936TIP3    H260300   0.299   1.282   0.483 -0.0569 -1.5228 -1.3484
12937TIP3   OH260301   6.395   1.517   1.811  0.1064 -0.6181  0.2655
12937TIP3    H160302   6.412   1.578   1.883  0.0721 -0.5406  0.2078
12937TIP3    H260303   6.463   1.450   1.820  0.2724 -0.4599  0.2040
12938TIP3   OH260304   6.421   1.578  11.891 -0.1395 -0.2307 -0.3187
12938TIP3    H160305   6.334   1.583  11.853 -0.0010 -0.2468 -0.6393
12938TIP3    H260306   6.462   1.503  11.848  0.2939  0.2227 -0.7031
12939TIP3   OH260307   3.191   0.376  12.658  0.4458 -0.1096 -0.0361
12939TIP3    H160308   3.096   0.374  12.655  0.3774  0.9789  0.8059
12939TIP3    H260309   3.214   0.335  12.742  0.8338 -2.0605 -1.0360
12940TIP3   OH260310   5.420   2.753  15.418  0.0486 -0.5091 -0.0840
12940TIP3    H160311   5.342   2.764  15.365  0.8165  0.3013 -1.0978
12940TIP3    H260312   5.492   2.776  15.360  0.9025  0.8280  1.3985
12941TIP3   OH260313   1.841   1.699  15.439 -0.1813  0.1583  0.2230
12941TIP3    H160314   1.915   1.644  15.463 -1.7752 -1.5410  1.5545
12941TIP3    H260315   1.782   1.696  15.514 -0.7723  3.0631  0.0233
12942TIP3   OH260316   1.209   0.744  15.529 -0.2122 -0.0311  0.0139
12942TIP3    H160317   1.130   0.690  15.526 -0.3903  0.1348  1.2953
12942TIP3    H260318   1.257   0.713  15.606  0.8235  0.0966 -0.5563
12943TIP3   OH260319   4.546   5.778   5.258 -0.4414  0.0904 -0.3008
12943TIP3    H160320   4.506   5.725   5.326 -0.3397 -0.7405 -0.8745
12943TIP3    H260321   4.474   5.800   5.199 -0.5945  1.0917  0.2341
12944TIP3   OH260322   6.129   4.521   6.465  0.2173  0.0083  0.2479
12944TIP3    H160323   6.130   4.545   6.373  0.4714 -0.6130  0.0893
12944TIP3    H260324   6.208   4.561   6.501  0.4026 -0.2089  0.0818
12945TIP3   OH260325   2.989   4.886   4.048  0.1968  0.3647 -0.1175
12945TIP3    H160326   3.009   4.889   3.954  1.5796 -0.8292  0.1184
12945TIP3    H260327   2.995   4.977   4.076 -1.0904  0.8735 -1.3335
12946TIP3   OH260328   2.267   0.417   3.846  0.1765  0.1169  0.6568
12946TIP3    H160329   2.228   0.333   3.820  1.4321  0.2288 -1.9431
12946TIP3    H260330   2.290   0.405   3.938 -2.1570 -1.3799  1.1402
12947TIP3   OH260331   4.430   3.009  15.022  0.3080 -0.1011  0.0124
12947TIP3    H160332   4.495   3.074  14.995  0.7928 -0.6305 -0.1231
12947TIP3    H260333   4.482   2.933  15.047  0.0116  0.5914  3.3106
12948TIP3   OH260334   6.112   0.127  15.819 -0.0842  0.0569 -0.1172
12948TIP3    H160335   6.077   0.040  15.837  0.1561 -0.1252 -0.5278
12948TIP3    H260336   6.053   0.164  15.754  0.9293 -0.5798 -1.4661
12949TIP3   OH260337   3.212   3.277   4.696  0.3643  0.1716  0.3255
12949TIP3    H160338   3.266   3.341   4.649 -0.0500  1.3305  1.3513
12949TIP3    H260339   3.273   3.207   4.719  1.4001  1.2633  1.1183
12950TIP3   OH260340   5.730   3.684   1.129  0.1766  0.2709 -0.4871
12950TIP3    H160341   5.721   3.607   1.185  2.0245  0.5698  0.2718
12950TIP3    H260342   5.746   3.756   1.189 -1.5539  1.3130 -1.1846
12951TIP3   OH260343   4.144   4.441  13.619 -0.0671  0.0762  0.2699
12951TIP3    H160344   4.103   4.523  13.644  1.0340  0.2427  1.6335
12951TIP3    H260345   4.072   4.388  13.584 -0.7661  1.6394 -0.7969
12952TIP3   OH260346   0.270   3.170  11.534  0.0341 -0.7782 -0.0830
12952TIP3    H160347   0.270   3.237  11.466  0.6662 -0.7590 -0.0685
12952TIP3    H260348   0.302   3.215  11.612  1.3327 -1.3035 -0.2906
12953TIP3   OH260349   5.883   0.402   5.841 -0.3467  0.2241 -0.0124
12953TIP3    H160350   5.894   0.435   5.930  0.2176 -0.6359  0.2511
12953TIP3    H260351   5.937   0.460   5.787 -2.7810  2.4724 -0.2486
12954TIP3   OH260352   0.183   2.641   5.936 -1.0655 -0.0143  0.4182
12954TIP3    H160353   0.165   2.568   5.996 -0.8865 -1.1705 -0.8703
12954TIP3    H260354   0.273   2.668   5.958  0.0202 -2.1852 -0.9933
12955TIP3   OH260355   0.030   4.428   4.583 -0.5133  0.0917  0.3880
12955TIP3    H160356  -0.010   4.469   4.506 -3.4731  1.6960  2.5729
12955TIP3    H260357   0.005   4.336   4.576 -0.3090  0.0978 -0.7606
12956TIP3   OH260358   4.440   1.566   4.211 -0.5415  0.4073 -0.4750
12956TIP3    H160359   4.356   1.597   4.245  0.3292  3.1553 -0.5626
12956TIP3    H260360   4.497   1.564   4.288 -0.2772  0.1141 -0.6784
12957TIP3   OH260361   1.799   2.364  16.038  0.4995  0.8765  0.1553
12957TIP3    H160362   1.811   2.271  16.054 -1.1456  0.0195 -2.8892
12957TIP3    H260363   1.888   2.397  16.024  0.9742 -0.7417 -0.9291
12958TIP3   OH260364   6.670   5.725   3.195 -0.4761  0.1780  0.1187
12958TIP3    H160365   6.604   5.655   3.203  0.0765 -0.6138 -1.7722
12958TIP3    H260366   6.747   5.682   3.161  0.6924  1.3221  1.2042
12959TIP3   OH260367   4.929   2.748   4.616  0.1473  0.2474 -0.3577
12959TIP3    H160368   4.977   2.665   4.616 -2.7206 -1.5584 -0.3186
12959TIP3    H260369   4.908   2.763   4.523  0.7725  1.0340 -0.3803
12960TIP3   OH260370   6.223   0.346   3.674  0.2556  0.3617 -0.4459
12960TIP3    H160371   6.145   0.344   3.731 -0.2262 -0.8782 -1.1023
12960TIP3    H260372   6.269   0.425   3.700 -2.0500  2.0241 -1.1260
12961TIP3   OH260373   0.557   5.445  14.717 -0.0057  0.0742 -0.0416
12961TIP3    H160374   0.563   5.450  14.621 -0.0550  0.4067 -0.0292
12961TIP3    H260375   0.465   5.425  14.734  0.4140 -2.1097 -0.1294
12962TIP3   OH260376   2.114   1.867  16.390  0.2487 -0.5531  0.3367
12962TIP3    H160377   2.115   1.961  16.372  1.2227 -0.2858  1.6441
12962TIP3    H260378   2.078   1.828  16.311  1.6057  0.7689 -1.0116
12963TIP3   OH260379   4.909   4.596   4.952 -0.0536 -0.6923  0.0480
12963TIP3    H160380   4.869   4.515   4.982  1.3624 -1.5009 -0.1439
12963TIP3    H260381   4.928   4.581   4.860 -1.2607  0.4944 -0.4202
12964TIP3   OH260382   3.230   3.358  13.013 -0.1264  0.3987 -0.1505
12964TIP3    H160383   3.291   3.286  13.027 -0.6342  0.1157  0.6626
12964TIP3    H260384   3.285   3.435  12.999  0.4124 -0.0429 -0.4650
12965TIP3   OH260385   4.410   3.433  10.854  0.1631  0.3401  0.1726
12965TIP3    H160386   4.406   3.508  10.795  0.2726 -0.6244 -1.1154
12965TIP3    H260387   4.493   3.443  10.900 -0.7013  2.0266  1.5058
12966TIP3   OH260388   3.571   1.528  14.430  0.1988 -0.2699 -0.1011
12966TIP3    H160389   3.597   1.445  14.470 -0.5247 -0.3365  0.2342
12966TIP3    H260390   3.537   1.580  14.502 -0.3208 -0.0740 -0.4851
12967TIP3   OH260391   4.397   2.729   4.647 -0.2842  0.5122 -0.3622
12967TIP3    H160392   4.331   2.793   4.623  0.2289  0.6765 -1.4059
12967TIP3    H260393   4.479   2.779   4.647 -0.1902  0.3884  1.2383
12968TIP3   OH260394   2.459   0.657  12.782  0.2041 -0.7406  1.0486
12968TIP3    H160395   2.443   0.618  12.868 -0.7825 -0.9720  0.7760
12968TIP3    H260396   2.478   0.749  12.800  2.6233 -1.2986  1.7108
12969TIP3   OH260397   0.894   4.214   2.161 -0.3654  0.4069 -0.2584
12969TIP3    H160398   0.810   4.252   2.135  0.0794  1.7776  0.2306
12969TIP3    H260399   0.908   4.143   2.098 -0.9422  1.4383 -1.6057
12970TIP3   OH260400   6.035   4.087  16.160 -0.0637  0.8345  0.0368
12970TIP3    H160401   6.028   4.012  16.219 -0.6705  0.7325 -0.1534
12970TIP3    H260402   5.966   4.072  16.095  0.6366  0.9037 -0.7431
12971TIP3   OH260403   5.613   2.304  12.052 -0.5949 -0.1706 -0.4140
12971TIP3    H160404   5.566   2.323  11.971 -0.4060 -0.3041 -0.5555
12971TIP3    H260405   5.704   2.293  12.025 -0.3526  0.7909 -0.0486
12972TIP3   OH260406   4.145   1.849  11.741 -0.4822  0.2002 -0.1309
12972TIP3    H160407   4.235   1.873  11.718 -0.4199 -1.2878 -1.6036
12972TIP3    H260408   4.108   1.817  11.659 -2.0784 -0.0706  0.6711
12973TIP3   OH260409   1.943   3.670  16.850  0.4113 -0.0914 -0.0583
12973TIP3    H160410   1.932   3.758  16.815  1.0757 -0.1375 -0.3900
12973TIP3    H260411   1.972   3.617  16.776  0.5532 -0.4696  0.2615
12974TIP3   OH260412   2.961   2.896  14.969 -0.6617 -0.0524 -0.0298
12974TIP3    H160413   2.982   2.888  15.062  0.7664 -0.8615 -0.3929
12974TIP3    H260414   3.038   2.938  14.931 -0.5335 -1.2413 -1.1126
12975TIP3   OH260415   3.732   3.257  11.597 -0.3065 -0.2986  0.2443
12975TIP3    H160416   3.764   3.338  11.558 -0.1705  0.9061  2.6249
12975TIP3    H260417   3.782   3.187  11.554  1.0982  1.0475 -0.3912
12976TIP3   OH260418   0.517   2.366  17.164  0.2718  0.4448 -0.1937
12976TIP3    H160419   0.484   2.320  17.086 -1.8798  1.8436 -0.2083
12976TIP3    H260420   0.527   2.457  17.135  4.6808  0.1587 -0.2554
12977TIP3   OH260421   0.642   6.822   1.341  0.2161 -0.3709 -0.5619
12977TIP3    H160422   0.599   6.901   1.373  0.2526 -0.4546 -0.3032
12977TIP3    H260423   0.699   6.852   1.270  0.5412 -0.1058 -0.1920
12978TIP3   OH260424   2.825   6.563  15.035  0.5911  0.3655  0.4504
12978TIP3    H160425   2.826   6.473  15.004 -1.4488  0.1482  0.8518
12978TIP3    H260426   2.870   6.613  14.966 -0.9625 -0.5569 -1.3318
12979TIP3   OH260427   1.397   5.411  14.149 -0.2263  0.0980  0.2354
12979TIP3    H160428   1.461   5.450  14.090 -1.7031  2.2543 -0.0427
12979TIP3    H260429   1.368   5.331  14.105  1.7124 -0.5684  0.0676
12980TIP3   OH260430   3.461   5.234  14.000 -0.2449 -0.4884  0.0553
12980TIP3    H160431   3.481   5.142  14.020 -0.4393 -0.4084  0.6295
12980TIP3    H260432   3.495   5.282  14.075 -0.6608 -0.1436  0.0218
12981TIP3   OH260433   1.579   5.929  15.436  0.0448  0.0768  0.3483
12981TIP3    H160434   1.614   5.856  15.385  0.3926 -0.0717  0.7873
12981TIP3    H260435   1.602   5.908  15.527  0.7872  1.0679  0.4172
12982TIP3   OH260436   3.730   6.410  13.832 -0.0172  0.9417  0.1027
12982TIP3    H160437   3.699   6.470  13.764 -1.1379  1.5467  1.1231
12982TIP3    H260438   3.804   6.455  13.872  1.7811 -0.1347 -1.7588
12983TIP3   OH260439   0.321   2.051   3.697 -0.6707  0.1681  0.1202
12983TIP3    H160440   0.410   2.054   3.664 -0.3624  2.6184  0.9539
12983TIP3    H260441   0.294   1.960   3.686  1.7294 -0.5245 -0.6251
12984TIP3   OH260442   3.003   3.533  11.163 -0.0621 -0.1034 -0.5745
12984TIP3    H160443   3.085   3.576  11.189 -0.1408  0.6252 -1.4648
12984TIP3    H260444   2.972   3.585  11.089 -1.5782 -0.0766  0.0404
12985TIP3   OH260445   3.635   4.670   0.509  0.6426 -0.4485  0.1578
12985TIP3    H160446   3.709   4.659   0.450  0.9855 -1.3822  0.7225
12985TIP3    H260447   3.593   4.752   0.482  1.3534 -0.3693 -0.7377
12986TIP3   OH260448   5.461   4.954   0.429 -0.8948 -0.2295 -0.2258
12986TIP3    H160449   5.458   4.887   0.361  0.8274 -0.9104  0.3107
12986TIP3    H260450   5.464   4.905   0.511 -1.9573  0.5653  0.3087
12987TIP3   OH260451   5.358   3.507  12.790  0.6708 -0.1158 -0.3246
12987TIP3    H160452   5.420   3.527  12.861 -0.5813  0.9349  0.5110
12987TIP3    H260453   5.399   3.544  12.712  1.7420 -0.6633 -0.0527
12988TIP3   OH260454   6.232   2.611   4.866 -0.2024 -0.5736  0.4868
12988TIP3    H160455   6.191   2.543   4.920  2.5451 -0.4619  2.9595
12988TIP3    H260456   6.208   2.693   4.910  0.9895 -0.3823  0.8135
12989TIP3   OH260457   5.020   4.606  16.587  0.0345  0.2790  0.2425
12989TIP3    H160458   5.008   4.550  16.663 -1.7579 -1.9707 -1.5730
12989TIP3    H260459   5.000   4.694  16.619 -0.2064 -0.5194  2.4509
12990TIP3   OH260460   5.257   3.853   5.953 -0.0039 -0.0336 -0.0128
12990TIP3    H160461   5.285   3.931   6.001  0.5895 -0.8400  1.0121
12990TIP3    H260462   5.172   3.831   5.990  1.0457 -1.4556  1.7848
12991TIP3   OH260463   3.421   2.552  17.224  0.3778 -1.0105  0.0829
12991TIP3    H160464   3.420   2.458  17.238  0.6795 -0.8042  1.6185
12991TIP3    H260465   3.395   2.590  17.308  2.4047  0.3257  0.1835
12992TIP3   OH260466   5.852   4.469   1.344 -0.0218  0.3829  0.3999
12992TIP3    H160467   5.911   4.476   1.419  0.5414 -2.3256  0.3121
12992TIP3    H260468   5.904   4.498   1.269  0.9471 -1.0170  0.4787
12993TIP3   OH260469   5.126   1.322   0.541  0.6102  0.4671  0.3491
12993TIP3    H160470   5.093   1.377   0.612  1.1400  0.4924  0.5771
12993TIP3    H260471   5.131   1.234   0.578  0.2282  0.3485  0.1305
12994TIP3   OH260472   2.824   1.218  15.118 -0.3335  0.1646  0.7649
12994TIP3    H160473   2.788   1.245  15.202  0.0134  0.9177  0.6798
12994TIP3    H260474   2.893   1.156  15.140 -0.7863 -0.2598  0.9944
12995TIP3   OH260475   2.882   0.469   5.835  0.5495  0.2528 -0.3238
12995TIP3    H160476   2.857   0.499   5.747 -1.2218  2.4986  0.8255
12995TIP3    H260477   2.963   0.516   5.853 -0.3805  1.7620  0.1196
12996TIP3   OH260478   1.313   6.249  15.643 -0.6170  0.2782 -0.1365
12996TIP3    H160479   1.251   6.206  15.702 -0.7871  1.4783  0.5947
12996TIP3    H260480   1.264   6.323  15.607 -0.7712 -0.8417 -2.4270
12997TIP3   OH260481   2.371   3.748   4.009 -0.1830  0.0731  1.1154
12997TIP3    H160482   2.341   3.830   4.048 -0.0452  0.4156  0.5128
12997TIP3    H260483   2.369   3.685   4.081  1.0296  0.9203  1.9377
12998TIP3   OH260484   2.561   3.473  11.377  0.2124  0.2622 -0.6168
12998TIP3    H160485   2.541   3.465  11.284  2.5715 -0.5691 -1.1152
12998TIP3    H260486   2.622   3.546  11.382 -0.9468  1.2009  0.5040
12999TIP3   OH260487   6.470   4.000   4.866  0.6228 -0.5775 -0.2916
12999TIP3    H160488   6.521   4.052   4.927 -0.6148  0.2782  0.0487
12999TIP3    H260489   6.528   3.989   4.790  1.3011  0.3769  0.0639
13000TIP3   OH260490   5.406   6.264   4.313  0.2905 -0.0543 -0.0592
13000TIP3    H160491   5.386   6.331   4.248  0.7848  1.3881  1.2022
13000TIP3    H260492   5.326   6.256   4.365  0.9191  1.2814  1.2035
13001TIP3   OH260493   5.266   4.094  14.855 -0.0465 -0.3299  0.0247
13001TIP3    H160494   5.357   4.084  14.827 -0.5920 -1.2038 -1.5746
13001TIP3    H260495   5.220   4.125  14.777 -1.1010  0.3012  0.8642
13002TIP3   OH260496   2.794   4.368   5.603  0.1237 -0.2438  0.3879
13002TIP3    H160497   2.821   4.453   5.638  0.6268 -0.6532  1.0218
13002TIP3    H260498   2.726   4.389   5.538  3.3513  1.0635 -2.9321
13003TIP3   OH260499   6.399   2.607  14.635  0.3367 -0.2004 -0.3050
13003TIP3    H160500   6.363   2.562  14.559 -0.2778 -1.1837  0.5325
13003TIP3    H260501   6.493   2.591  14.630  0.3986  0.3721 -1.2376
13004TIP3   OH260502   4.949   1.867  16.713  0.3558 -0.0798 -0.6773
13004TIP3    H160503   4.887   1.880  16.642 -1.4339  2.1631  1.1213
13004TIP3    H260504   5.017   1.933  16.698  0.5637 -0.3388 -0.8817
13005TIP3   OH260505   5.452   1.514   3.799  0.1081 -0.3689  0.2065
13005TIP3    H160506   5.376   1.565   3.825  0.2007 -0.6130  0.9909
13005TIP3    H260507   5.446   1.433   3.851 -0.3371 -1.4242 -1.3998
13006TIP3   OH260508   2.084   6.028  15.732  0.4356  0.2492  0.3421
13006TIP3    H160509   2.075   6.018  15.637 -1.8069 -0.2953  0.5541
13006TIP3    H260510   2.132   5.951  15.760  0.0037 -0.2324 -0.2196
13007TIP3   OH260511   5.786   2.771   5.596 -0.2939  0.1178 -0.4363
13007TIP3    H160512   5.881   2.758   5.602 -0.4054 -0.3614  0.3162
13007TIP3    H260513   5.751   2.683   5.583 -0.7260  0.1477  0.4789
13008TIP3   OH260514   6.587   5.791   5.538 -0.4479  0.2110 -0.0887
13008TIP3    H160515   6.616   5.838   5.459 -0.4274 -0.9855 -0.8214
13008TIP3    H260516   6.632   5.835   5.610  1.1503  0.0633 -0.9505
13009TIP3   OH260517   1.579   5.235  16.050  0.2438  0.2885  0.7020
13009TIP3    H160518   1.490   5.256  16.075  0.2063  2.6476 -1.0873
13009TIP3    H260519   1.576   5.226  15.955  1.8407  0.0774  0.6335
13010TIP3   OH260520   2.382   5.799  12.708  0.7817  0.2698  0.4172
13010TIP3    H160521   2.316   5.811  12.777 -1.1253  0.4223 -1.3550
13010TIP3    H260522   2.350   5.725  12.656  2.8533 -0.6945  0.3760
13011TIP3   OH260523   4.352   0.894   5.550  0.4474  0.5192 -0.2033
13011TIP3    H160524   4.440   0.878   5.584  0.6902 -0.8432 -1.3712
13011TIP3    H260525   4.363   0.899   5.455 -0.9259 -1.4382 -0.5213
13012TIP3   OH260526   2.055   0.451  15.107  0.2346 -0.0578  0.0760
13012TIP3    H160527   2.115   0.421  15.038 -0.1963 -0.4216 -0.1471
13012TIP3    H260528   1.991   0.380  15.116 -1.4905  1.2204 -1.2624
13013TIP3   OH260529   2.689   3.450  14.244 -0.0268 -0.2339 -0.0473
13013TIP3    H160530   2.703   3.539  14.214 -1.4067  0.0213  0.0182
13013TIP3    H260531   2.728   3.448  14.332  0.7155  0.0612 -0.3633
13014TIP3   OH260532   1.595   1.700  16.387 -0.2841 -0.0544  0.3339
13014TIP3    H160533   1.521   1.689  16.327  0.6040 -0.0523 -0.7969
13014TIP3    H260534   1.657   1.632  16.361  0.2454  0.1360  1.0697
13015TIP3   OH260535   2.424   6.785   0.239  0.1319 -0.3197  0.1867
13015TIP3    H160536   2.431   6.877   0.214  2.0205 -0.1494  1.1958
13015TIP3    H260537   2.330   6.772   0.256  0.0501  1.9573  1.8976
13016TIP3   OH260538   2.645   5.255  14.431  0.2878  0.1114  0.4129
13016TIP3    H160539   2.655   5.171  14.475 -2.1877 -0.6141 -0.2017
13016TIP3    H260540   2.730   5.272  14.392  0.8302 -2.2286  0.3962
13017TIP3   OH260541   0.470   2.017  15.933  0.2144 -0.4533  0.6982
13017TIP3    H160542   0.509   1.968  15.861 -1.0619 -0.0654 -0.3110
13017TIP3    H260543   0.382   1.979  15.943 -0.9243  1.6922 -0.3088
13018TIP3   OH260544   4.256   5.613   5.988  0.1523 -0.1179 -0.3826
13018TIP3    H160545   4.293   5.699   5.967  0.2889  0.1269  0.8122
13018TIP3    H260546   4.301   5.553   5.929  2.6403  0.1460  1.1231
13019TIP3   OH260547   0.379   3.678   1.283 -0.1803  0.4106  0.6596
13019TIP3    H160548   0.375   3.591   1.243 -1.1799  0.7037  0.0917
13019TIP3    H260549   0.454   3.720   1.241 -0.2658  0.1573  0.2423
13020TIP3   OH260550   1.680   5.845  15.710 -0.6064  0.9463 -0.2958
13020TIP3    H160551   1.733   5.780  15.665 -1.4560  0.0235  0.0011
13020TIP3    H260552   1.734   5.925  15.709  0.6017  0.1530 -0.3483
13021TIP3   OH260553   6.667   4.604   3.957 -0.2346  0.2280  0.1286
13021TIP3    H160554   6.699   4.519   3.928  1.0693  0.4748  0.7349
13021TIP3    H260555   6.612   4.585   4.033 -0.0658 -0.1028  0.1705
13022TIP3   OH260556   4.111   6.768  15.250  0.3171  0.2461  0.0722
13022TIP3    H160557   4.055   6.797  15.178  0.2006 -0.5791 -0.1839
13022TIP3    H260558   4.189   6.734  15.207 -0.5949 -2.1486  0.1694
13023TIP3   OH260559   4.342   2.951  12.662 -0.0357 -0.2569 -0.1100
13023TIP3    H160560   4.253   2.987  12.656 -0.0319 -0.2570 -0.1762
13023TIP3    H260561   4.340   2.874  12.605  0.0224 -0.2232 -0.1582
13024TIP3   OH260562   5.947   4.154   1.680 -0.6009  0.4054  0.3497
13024TIP3    H160563   5.982   4.065   1.670  0.0254  0.7914 -1.0271
13024TIP3    H260564   5.874   4.143   1.742 -0.4128 -1.0271  0.3688
13025TIP3   OH260565   6.108   0.522  16.905 -0.1371  0.6223  0.2737
13025TIP3    H160566   6.029   0.544  16.855 -0.7629 -3.4015 -0.8766
13025TIP3    H260567   6.169   0.488  16.840  0.8298 -0.4257  1.6705
13026TIP3   OH260568   0.623   2.897  14.949  0.2463  0.4690  0.3633
13026TIP3    H160569   0.671   2.966  14.995 -0.7522  1.3630  0.1152
13026TIP3    H260570   0.549   2.877  15.006  0.4331 -0.2805  0.3482
13027TIP3   OH260571   6.744   2.779   0.743 -0.0040 -0.2147 -0.4030
13027TIP3    H160572   6.751   2.770   0.648  0.5248  2.1438 -0.6712
13027TIP3    H260573   6.666   2.730   0.767  0.0202 -1.0906 -2.0127
13028TIP3   OH260574   5.385   3.652  11.771 -0.4190 -0.2054  0.6058
13028TIP3    H160575   5.479   3.652  11.792 -0.6329 -1.4329  1.6912
13028TIP3    H260576   5.358   3.743  11.785  0.7035  0.3060 -0.3117
13029TIP3   OH260577   6.178   3.622   2.157 -0.0897  0.1641 -0.2727
13029TIP3    H160578   6.251   3.653   2.103 -0.6217  0.2042 -0.9814
13029TIP3    H260579   6.210   3.542   2.198  0.7734  0.8217  0.3768
13030TIP3   OH260580   2.209   3.928   4.136  0.4058  0.3385  0.3197
13030TIP3    H160581   2.249   3.905   4.219 -1.0162 -0.8934  0.7052
13030TIP3    H260582   2.129   3.975   4.159 -0.1625 -0.2787 -0.3150
13031TIP3   OH260583   2.003   0.984   3.748  0.2668 -0.6759 -0.1141
13031TIP3    H160584   2.040   0.905   3.707 -0.6725 -1.4448  0.4616
13031TIP3    H260585   2.041   0.985   3.836  1.1158  0.1310 -0.4798
13032TIP3   OH260586   6.108   0.816  14.514 -0.0050  0.8929  0.3467
13032TIP3    H160587   6.120   0.745  14.450  1.3239 -0.2825  1.7988
13032TIP3    H260588   6.192   0.820  14.560 -0.4750  2.6328  1.0994
13033TIP3   OH260589   3.401   3.444   4.954  0.8777 -0.7332  0.4732
13033TIP3    H160590   3.399   3.517   5.016  0.8937 -0.7974  0.5489
13033TIP3    H260591   3.429   3.484   4.871 -1.7272 -0.1041 -0.2084
13034TIP3   OH260592   0.577   0.965  17.310 -0.2053 -0.3951  0.4161
13034TIP3    H160593   0.581   0.980  17.405 -0.2380  0.3290  0.3078
13034TIP3    H260594   0.517   0.891  17.300  1.5220 -2.0081  1.1171
13035TIP3   OH260595   5.034   5.068   1.183  0.1024 -0.1238  0.3108
13035TIP3    H160596   5.120   5.092   1.149  0.4947  0.4940  1.6922
13035TIP3    H260597   5.011   5.140   1.242 -1.1399 -0.5378  0.3558
13036TIP3   OH260598   5.853   0.304  11.881 -0.1636 -0.2676  0.2365
13036TIP3    H160599   5.895   0.289  11.966  3.0782  0.0847 -1.1677
13036TIP3    H260600   5.761   0.286  11.897  0.2725 -0.0249  3.8648
13037TIP3   OH260601   3.461   2.256  14.358 -0.8188  0.2890 -0.3650
13037TIP3    H160602   3.401   2.186  14.333  0.7299 -1.4279  0.4138
13037TIP3    H260603   3.467   2.249  14.453 -1.6902  2.4612 -0.0878
13038TIP3   OH260604   5.828   4.048  11.858 -0.0783 -0.5013  0.5940
13038TIP3    H160605   5.753   3.997  11.887 -1.1268 -1.2819 -2.9361
13038TIP3    H260606   5.890   3.982  11.824 -0.8091  0.2824 -2.6439
13039TIP3   OH260607   5.837   0.913  14.626  0.0068 -0.0908 -0.3340
13039TIP3    H160608   5.911   0.888  14.570 -0.0159 -0.1489 -0.3386
13039TIP3    H260609   5.840   0.850  14.698 -1.4027 -1.5716 -1.4837
13040TIP3   OH260610   4.827   4.004  11.862 -0.0306 -0.3776 -0.0841
13040TIP3    H160611   4.864   4.051  11.787  2.2755 -1.3083  0.4074
13040TIP3    H260612   4.845   3.912  11.845  0.9377 -0.5836  1.7821
13041TIP3   OH260613   0.064   6.247   3.366  0.4529  0.2719  0.4305
13041TIP3    H160614   0.080   6.341   3.359  0.0954  0.2571 -0.9255
13041TIP3    H260615  -0.023   6.240   3.404 -1.2934  0.6374 -3.1605
13042TIP3   OH260616   4.432   4.800   2.026  0.3068 -0.0671  0.4097
13042TIP3    H160617   4.494   4.786   1.954  2.2788 -0.1418  2.0425
13042TIP3    H260618   4.440   4.721   2.080 -1.5261 -0.2509  0.4698
13043TIP3   OH260619   0.533   0.877   3.772  0.5512 -0.3467 -0.4160
13043TIP3    H160620   0.571   0.939   3.835  0.5626  0.3758 -1.1054
13043TIP3    H260621   0.562   0.791   3.802 -0.3356 -0.1264  1.1779
13044TIP3   OH260622   6.122   5.679   3.069 -0.6920 -0.0290  0.4571
13044TIP3    H160623   6.141   5.758   3.019 -0.0081 -0.9101 -0.7133
13044TIP3    H260624   6.188   5.679   3.139  1.2125 -0.9888 -1.2190
13045TIP3   OH260625   3.604   2.795  16.522  0.7396 -0.1742  0.3947
13045TIP3    H160626   3.606   2.701  16.502  0.5171 -0.1615  0.3078
13045TIP3    H260627   3.620   2.837  16.437  2.7657 -0.1520  0.7513
13046TIP3   OH260628   2.486   0.879  12.937 -0.4684 -0.0191  0.1534
13046TIP3    H160629   2.580   0.893  12.942 -0.3958 -0.2237 -0.5943
13046TIP3    H260630   2.453   0.949  12.881 -0.6004 -0.5969 -0.5119
13047TIP3   OH260631   3.375   2.644   4.447 -0.5600 -0.2604 -0.1193
13047TIP3    H160632   3.419   2.645   4.532 -0.6392 -1.5380 -0.0463
13047TIP3    H260633   3.284   2.665   4.467 -0.0715  2.4713 -0.2787
13048TIP3   OH260634   2.544   5.173   1.920  0.4519 -0.0657  0.2322
13048TIP3    H160635   2.523   5.260   1.889 -1.3333 -0.9515 -1.2398
13048TIP3    H260636   2.462   5.139   1.957  0.4302 -1.9323 -1.3544
13049TIP3   OH260637   6.353   4.410  16.152 -0.4115 -0.3250  0.2725
13049TIP3    H160638   6.357   4.320  16.120  1.5582  0.2285 -1.2401
13049TIP3    H260639   6.444   4.438  16.157 -0.9954  2.0409 -0.7252
13050TIP3   OH260640   3.333   5.840  15.532  0.0029 -0.1709 -0.0710
13050TIP3    H160641   3.364   5.781  15.601  0.3915  0.2167  0.0845
13050TIP3    H260642   3.408   5.853  15.475  0.3421  1.2998  0.6735
13051TIP3   OH260643   4.228   3.460   2.295 -0.6899  0.3026  0.1466
13051TIP3    H160644   4.152   3.415   2.330 -0.2536 -0.4798  0.1091
13051TIP3    H260645   4.250   3.413   2.215  0.2269  0.0925  0.5035
13052TIP3   OH260646   0.097   6.004  11.960  0.3861  0.6762 -0.1396
13052TIP3    H160647   0.066   5.919  11.990 -1.1790  0.6404 -1.6532
13052TIP3    H260648   0.042   6.068  12.007 -0.5530  0.6957 -1.2097
13053TIP3   OH260649   3.087   6.025   2.862 -0.2781 -0.1476 -0.6425
13053TIP3    H160650   3.069   6.119   2.865 -0.2049 -0.1614  0.4308
13053TIP3    H260651   3.129   6.012   2.776  0.5298  0.9528 -0.4417
13054TIP3   OH260652   4.641   0.404  15.139  0.0516  0.2159  0.2292
13054TIP3    H160653   4.585   0.472  15.176 -1.0169  0.1110 -1.1336
13054TIP3    H260654   4.697   0.450  15.077 -0.4308 -0.0840 -0.4354
13055TIP3   OH260655   4.472   0.445   3.756  0.4091  0.2297 -0.2781
13055TIP3    H160656   4.538   0.474   3.820  0.6250  0.2728 -0.5199
13055TIP3    H260657   4.401   0.410   3.810  1.2785 -1.2444 -0.0370
13056TIP3   OH260658   4.496   6.592  12.106 -0.4774 -0.0697 -0.8103
13056TIP3    H160659   4.495   6.668  12.049 -2.1642 -0.5744 -1.5209
13056TIP3    H260660   4.525   6.520  12.051  0.7461 -0.0417 -0.2377
13057TIP3   OH260661   0.289   4.100  11.876  0.0210 -0.3496 -0.5763
13057TIP3    H160662   0.294   4.072  11.784  1.9666  0.4980 -0.7788
13057TIP3    H260663   0.282   4.196  11.871  0.2845 -0.2907  0.1553
13058TIP3   OH260664   1.244   1.315  14.019 -0.4581  0.4712  0.2852
13058TIP3    H160665   1.290   1.389  14.059 -0.3544  0.5146  0.0875
13058TIP3    H260666   1.158   1.351  13.994  0.0658  0.8900 -1.0122
13059TIP3   OH260667   2.650   5.982  16.672  0.2400  0.1269 -0.1619
13059TIP3    H160668   2.615   6.060  16.714  0.2901 -0.4470  0.9981
13059TIP3    H260669   2.727   6.013  16.624  1.2758  0.5641  1.6653
13060TIP3   OH260670   5.227   2.653   1.242 -0.4039  0.3327  0.0404
13060TIP3    H160671   5.191   2.659   1.331 -0.1772  1.2894  0.0759
13060TIP3    H260672   5.320   2.635   1.255 -0.3737  0.4585 -0.0000
13061TIP3   OH260673   5.560   0.365   4.404  0.4687  0.0527 -0.5328
13061TIP3    H160674   5.520   0.450   4.426 -1.9010 -1.1763  0.3220
13061TIP3    H260675   5.542   0.353   4.311  1.1108  0.6250 -0.7351
13062TIP3   OH260676   5.328   5.553   5.287 -0.5524 -0.2262  0.4609
13062TIP3    H160677   5.308   5.595   5.203  0.2625  0.2195  0.4872
13062TIP3    H260678   5.360   5.466   5.263 -0.1334 -0.0286  0.2978
13063TIP3   OH260679   4.620   5.590   3.940 -0.1051  0.5146 -0.0042
13063TIP3    H160680   4.711   5.605   3.915 -0.4615  0.9439 -1.0999
13063TIP3    H260681   4.624   5.525   4.011  1.0370  0.4825 -0.0919
13064TIP3   OH260682   3.085   0.897   2.214  0.7044 -0.2990 -0.0833
13064TIP3    H160683   3.150   0.831   2.240  0.2173 -0.7474 -0.0030
13064TIP3    H260684   3.092   0.965   2.282  1.6274  0.0387 -0.4888
13065TIP3   OH260685   4.021   2.519   6.433  0.2694 -0.5449  0.4062
13065TIP3    H160686   3.980   2.433   6.420 -1.1976  0.4025 -1.8151
13065TIP3    H260687   3.964   2.563   6.495 -1.3388  0.2043 -1.5028
13066TIP3   OH260688   4.992   0.915   3.909 -0.0761  0.5453  0.3842
13066TIP3    H160689   4.908   0.870   3.919  0.3469 -0.5344 -0.5763
13066TIP3    H260690   4.975   1.005   3.937 -1.3260  0.1434  1.0116
13067TIP3   OH260691   2.349   3.992  14.952 -0.0537  0.5378  0.8489
13067TIP3    H160692   2.257   4.014  14.966  0.2501  1.8920  0.8452
13067TIP3    H260693   2.368   4.023  14.863  0.5251  0.7217  1.0340
13068TIP3   OH260694   6.577   5.172   2.517  0.2904 -0.0737 -0.1692
13068TIP3    H160695   6.604   5.261   2.540  0.1990 -0.2255  0.5521
13068TIP3    H260696   6.632   5.148   2.443 -0.0146  0.7630 -0.6913
13069TIP3   OH260697   1.329   5.015  14.622  0.5453  0.0878 -0.2693
13069TIP3    H160698   1.282   4.939  14.588 -1.2202  0.6946  0.7021
13069TIP3    H260699   1.418   4.984  14.635  0.1157 -1.5057 -0.8903
13070TIP3   OH260700   5.639   4.727   2.801 -0.1171 -0.3065  0.1740
13070TIP3    H160701   5.658   4.655   2.862 -0.0622 -2.1157 -1.8285
13070TIP3    H260702   5.707   4.719   2.734 -1.3923  0.2285 -1.2393
13071TIP3   OH260703   0.031   5.642  10.874 -0.0749  0.0565  0.6014
13071TIP3    H160704   0.125   5.626  10.874 -0.1863 -1.1326 -1.7976
13071TIP3    H260705   0.020   5.726  10.830 -0.1635 -0.9662 -1.4772
13072TIP3   OH260706   5.510   0.278   3.890 -0.4620 -0.2571  0.4445
13072TIP3    H160707   5.563   0.216   3.841  0.4411 -0.8639  2.1225
13072TIP3    H260708   5.420   0.255   3.867 -0.3197 -3.9151  2.8565
13073TIP3   OH260709   5.997   6.314  16.007  1.1393 -0.2139 -0.8251
13073TIP3    H160710   5.917   6.349  16.046  1.0318  0.1051 -1.3343
13073TIP3    H260711   5.976   6.224  15.985  0.8903 -0.1042 -1.0389
13074TIP3   OH260712   3.403   2.234  11.210 -0.2657 -0.3191  0.6227
13074TIP3    H160713   3.327   2.223  11.152  0.4579 -0.0759 -0.4086
13074TIP3    H260714   3.466   2.169  11.179  0.2729  0.0617  0.9044
13075TIP3   OH260715   1.340   2.607   3.901  0.8186  0.2815 -0.5667
13075TIP3    H160716   1.265   2.551   3.881  0.6164 -0.5616  2.2583
13075TIP3    H260717   1.315   2.692   3.864  0.1183 -0.8204 -2.8525
13076TIP3   OH260718   6.089   2.063  16.206 -0.6698 -0.1880  0.2679
13076TIP3    H160719   6.163   2.002  16.208 -1.5509 -1.3067 -0.0879
13076TIP3    H260720   6.069   2.074  16.113 -0.9407  0.1004  0.3580
13077TIP3   OH260721   6.021   5.763  12.667 -0.4096 -0.0626 -0.2079
13077TIP3    H160722   5.981   5.849  12.656 -0.8064 -0.3588 -1.1723
13077TIP3    H260723   6.112   5.781  12.692 -0.9038  0.6195  1.2229
13078TIP3   OH260724   5.589   4.237   4.337 -0.2149 -0.3515  0.1783
13078TIP3    H160725   5.647   4.287   4.395  1.6918 -1.0425 -1.0305
13078TIP3    H260726   5.615   4.146   4.350 -0.3051 -0.5827 -1.1204
13079TIP3   OH260727   5.576   3.057  12.922  0.7583  0.3740 -0.0107
13079TIP3    H160728   5.651   2.997  12.921  1.7434  1.5579 -1.6125
13079TIP3    H260729   5.516   3.022  12.856  0.4559  0.1127  0.3989
13080TIP3   OH260730   4.188   0.357  15.083 -0.5936  0.7242 -0.0654
13080TIP3    H160731   4.126   0.314  15.142  0.4827 -0.3796  0.3198
13080TIP3    H260732   4.268   0.305  15.092  0.5855  2.4778 -0.0594
13081TIP3   OH260733   0.930   2.124  17.134  0.3791 -0.0727  0.2723
13081TIP3    H160734   1.005   2.065  17.117  0.5371  0.4522 -0.9858
13081TIP3    H260735   0.900   2.100  17.221 -0.1765 -2.7336 -0.5437
13082TIP3   OH260736   2.174   1.846   2.228 -0.0273  0.3359 -0.2978
13082TIP3    H160737   2.155   1.936   2.252 -1.7694  0.1556 -0.8078
13082TIP3    H260738   2.115   1.794   2.283  1.0004 -0.5102  0.0395
13083TIP3   OH260739   4.257   6.039  11.097  0.6089  0.0922  0.0365
13083TIP3    H160740   4.299   6.055  11.013  0.7484  1.6955  0.3784
13083TIP3    H260741   4.322   6.063  11.162 -0.2196  0.9216  0.5822
13084TIP3   OH260742   0.523   4.986  12.031 -0.3823 -0.2370 -0.0620
13084TIP3    H160743   0.591   4.929  12.066  1.3959  2.5760  1.4579
13084TIP3    H260744   0.459   4.994  12.101 -0.1222  0.3433  0.1207
13085TIP3   OH260745   5.291   4.911   2.792 -0.0154 -0.0593 -0.0559
13085TIP3    H160746   5.308   4.987   2.735 -2.3133  0.5398 -0.0347
13085TIP3    H260747   5.310   4.835   2.737 -0.6417  0.5295 -1.1291
13086TIP3   OH260748   1.996   0.354  16.569  0.2723  0.6393 -0.2520
13086TIP3    H160749   1.974   0.434  16.616  1.7047  0.3185  1.0819
13086TIP3    H260750   2.080   0.326  16.608  0.5577 -0.6877 -1.7193
13087TIP3   OH260751   3.346   1.459  13.734 -0.0781 -0.0444 -0.6780
13087TIP3    H160752   3.255   1.454  13.762  0.5896 -1.6637  1.5311
13087TIP3    H260753   3.395   1.475  13.815  1.7621 -2.0097 -1.2936
13088TIP3   OH260754   4.295   0.289  16.373 -0.2829  0.3828 -0.0250
13088TIP3    H160755   4.336   0.203  16.368 -4.0407 -1.5856 -0.2550
13088TIP3    H260756   4.260   0.294  16.462 -0.2646  1.6291 -0.0681
13089TIP3   OH260757   1.485   5.670   3.646  0.2622  0.1909 -0.0503
13089TIP3    H160758   1.527   5.642   3.727 -1.1645  0.0613  0.6811
13089TIP3    H260759   1.522   5.614   3.579  0.0407 -1.0556  0.8325
13090TIP3   OH260760   1.218   4.726  15.422  0.0387 -0.3627 -0.2145
13090TIP3    H160761   1.166   4.648  15.440 -1.1193  0.4611  0.0749
13090TIP3    H260762   1.187   4.791  15.485  0.3698  0.6090 -1.0273
13091TIP3   OH260763   2.133   2.105   2.658 -0.0034 -0.4615 -0.1470
13091TIP3    H160764   2.082   2.166   2.712 -0.6384 -1.8341  0.8819
13091TIP3    H260765   2.069   2.064   2.601  0.4605 -0.0024 -1.0184
13092TIP3   OH260766   0.920   4.460  17.071 -0.4771  0.2412 -0.2819
13092TIP3    H160767   0.853   4.494  17.012 -0.2164  0.8753 -0.2122
13092TIP3    H260768   0.911   4.365  17.065  0.6426  0.2257 -2.5967
13093TIP3   OH260769   0.951   0.877  16.605 -0.4626  1.0453 -0.0474
13093TIP3    H160770   1.033   0.905  16.563 -0.9205  1.0493 -0.9611
13093TIP3    H260771   0.979   0.819  16.676  0.3032  0.5218 -0.7662
13094TIP3   OH260772   3.581   3.997  14.841 -0.1376  0.3583 -0.7360
13094TIP3    H160773   3.565   4.049  14.762  2.1331 -0.3841 -1.7887
13094TIP3    H260774   3.600   4.061  14.909  0.4050  0.9785 -1.4510
13095TIP3   OH260775   4.489   0.700  14.271  0.6192 -0.4324  0.1422
13095TIP3    H160776   4.484   0.745  14.186 -0.7783  1.7361  1.2911
13095TIP3    H260777   4.564   0.739  14.315 -0.6896  1.0352  1.2027
13096TIP3   OH260778   4.271   3.764  11.857  0.4027  0.0376 -0.1584
13096TIP3    H160779   4.206   3.739  11.791 -0.2537 -0.7059  0.7454
13096TIP3    H260780   4.229   3.833  11.908  0.1521 -0.7370  0.6927
13097TIP3   OH260781   0.123   3.862   4.681  0.5185  0.7053  0.1164
13097TIP3    H160782   0.149   3.794   4.744 -0.4101  1.4195  1.3241
13097TIP3    H260783   0.146   3.825   4.596  0.4564 -0.9354  0.7581
13098TIP3   OH260784   1.241   3.964   4.703 -0.9102  0.3528 -0.4275
13098TIP3    H160785   1.197   3.938   4.622 -2.0752  1.9762 -0.3826
13098TIP3    H260786   1.202   3.908   4.770 -1.3203  0.2674 -0.7321
13099TIP3   OH260787   6.487   0.541  15.776  0.3769 -0.3166  0.0593
13099TIP3    H160788   6.424   0.468  15.778  0.4326 -0.3505  0.8106
13099TIP3    H260789   6.493   0.569  15.867  0.1489  0.8160 -0.2643
13100TIP3   OH260790   0.168   6.603   4.479 -0.6079 -0.1080 -0.8188
13100TIP3    H160791   0.138   6.603   4.388 -0.5139 -0.2794 -0.8514
13100TIP3    H260792   0.240   6.540   4.480 -0.2111  0.3445 -0.7532
13101TIP3   OH260793   0.014   3.041  16.256 -0.2908  0.2890  0.4355
13101TIP3    H160794   0.095   3.046  16.306  0.7483  0.0937 -1.1738
13101TIP3    H260795   0.022   2.960  16.205 -0.6526  1.2147 -1.1486
13102TIP3   OH260796   4.607   5.557  13.993 -0.2194  0.2244 -0.2398
13102TIP3    H160797   4.659   5.637  14.005  0.5730 -0.3431  0.1325
13102TIP3    H260798   4.546   5.580  13.923  1.8464  0.2740 -2.1398
13103TIP3   OH260799   3.504   1.751  16.427  0.1339 -0.2937 -0.1478
13103TIP3    H160800   3.443   1.745  16.354 -1.1368 -0.2023  0.8852
13103TIP3    H260801   3.582   1.704  16.396 -0.7161 -1.0552 -1.2153
13104TIP3   OH260802   4.667   1.516  15.718 -0.4508 -0.2184  0.1011
13104TIP3    H160803   4.629   1.580  15.657 -1.3777 -0.2939  0.5815
13104TIP3    H260804   4.650   1.431  15.677 -2.3080 -0.3672  1.0709
13105TIP3   OH260805   3.605   2.394   2.543  0.1905 -0.1835 -0.2392
13105TIP3    H160806   3.511   2.375   2.549  0.2330 -0.0567  1.5448
13105TIP3    H260807   3.614   2.483   2.575  0.7018  0.7192 -2.6945
13106TIP3   OH260808   4.501   6.074   5.910 -0.1458  0.5070  0.1360
13106TIP3    H160809   4.489   6.158   5.956  2.0934  1.6218 -1.1158
13106TIP3    H260810   4.452   6.084   5.829  1.6199  1.4178 -0.8663
13107TIP3   OH260811   0.502   6.469   5.600 -0.1183  0.0299 -0.2493
13107TIP3    H160812   0.576   6.424   5.640 -0.1671 -1.2867 -1.5442
13107TIP3    H260813   0.441   6.484   5.672  1.0760  0.5127  0.7076
13108TIP3   OH260814   1.911   3.182  16.068  0.2615 -0.0936  0.1018
13108TIP3    H160815   1.974   3.136  16.012  0.3333  1.5586 -1.2210
13108TIP3    H260816   1.832   3.128  16.064  0.4822 -0.3592 -1.0535
13109TIP3   OH260817   4.076   1.807  12.268  0.6316  0.0295 -0.7115
13109TIP3    H160818   4.143   1.742  12.286  0.4384 -0.5044 -1.8006
13109TIP3    H260819   4.111   1.889  12.302  1.1242 -0.5388  0.1656
13110TIP3   OH260820   4.159   0.407   3.603  0.1926 -0.7978  0.1727
13110TIP3    H160821   4.203   0.325   3.579 -0.8005 -0.9140 -1.3595
13110TIP3    H260822   4.096   0.382   3.670  1.2544 -0.9133  1.1665
13111TIP3   OH260823   0.438   4.160   0.939  0.7578 -0.5358 -0.1321
13111TIP3    H160824   0.373   4.228   0.957  0.5089 -0.7199 -0.3334
13111TIP3    H260825   0.485   4.192   0.861  0.8315 -0.4611 -0.0580
13112TIP3   OH260826   2.458   2.781  10.745 -0.3916 -0.1222 -0.6519
13112TIP3    H160827   2.433   2.846  10.810 -0.1539 -1.1062  0.4502
13112TIP3    H260828   2.483   2.833  10.668 -0.6545  1.0602  0.0306
13113TIP3   OH260829   0.708   2.886  14.622 -0.2688 -0.0462  0.0275
13113TIP3    H160830   0.804   2.883  14.627 -0.1600 -1.8134 -1.9625
13113TIP3    H260831   0.680   2.803  14.662 -0.7649 -0.8968 -1.9879
13114TIP3   OH260832   6.379   2.698  11.391 -0.1768 -0.2913 -0.2155
13114TIP3    H160833   6.289   2.717  11.415 -0.0639 -0.1685  0.1249
13114TIP3    H260834   6.418   2.783  11.372 -0.5206 -0.4596 -1.8009
13115TIP3   OH260835   2.495   3.838  13.230  0.4239 -0.1159  0.1876
13115TIP3    H160836   2.474   3.812  13.140  0.7732  1.1887 -0.3023
13115TIP3    H260837   2.589   3.858  13.227  0.7516 -1.3686  1.1915
13116TIP3   OH260838   2.656   5.250  13.347 -0.0221 -0.2478 -0.1844
13116TIP3    H160839   2.748   5.232  13.325  0.1178  0.3336 -0.1099
13116TIP3    H260840   2.605   5.201  13.283  0.3353 -0.9594  0.0698
13117TIP3   OH260841   0.327   5.011   5.948  0.0822 -0.2962 -0.3956
13117TIP3    H160842   0.309   5.075   5.879  1.2314 -0.4559 -0.8707
13117TIP3    H260843   0.401   4.960   5.915 -0.9506 -2.0648 -0.1438
13118TIP3   OH260844   5.598   0.167  14.150 -0.0516  0.2200  0.8502
13118TIP3    H160845   5.551   0.233  14.201 -1.6506  0.1007 -0.4120
13118TIP3    H260846   5.531   0.128  14.093  0.3730 -3.6886  2.6731
13119TIP3   OH260847   4.700   1.018  15.917 -0.0585  0.4541  0.4190
13119TIP3    H160848   4.700   0.926  15.944 -2.2953  0.3241  0.1662
13119TIP3    H260849   4.791   1.045  15.924  0.9261 -2.1697 -0.8483
13120TIP3   OH260850   1.234   6.609   1.193 -0.1417  0.6223 -1.0265
13120TIP3    H160851   1.233   6.515   1.208  0.4470  0.6540 -0.7541
13120TIP3    H260852   1.142   6.634   1.187 -0.2932 -0.1518 -2.3332
13121TIP3   OH260853   4.464   4.046   2.254  0.2425  0.2552 -0.5451
13121TIP3    H160854   4.440   4.104   2.182  2.3329  0.9132 -0.7858
13121TIP3    H260855   4.478   3.960   2.213  2.9798  0.9591 -1.3335
13122TIP3   OH260856   0.481   3.204  14.571  0.0108 -0.0548  0.8112
13122TIP3    H160857   0.515   3.278  14.520  0.5292 -1.7393 -1.4416
13122TIP3    H260858   0.551   3.184  14.633  0.4932  0.4181  0.4338
13123TIP3   OH260859   5.322   1.381   4.800 -0.3743  0.5833 -0.3126
13123TIP3    H160860   5.413   1.409   4.811 -0.2170 -0.0338  0.0310
13123TIP3    H260861   5.317   1.300   4.850 -0.8670  0.1147 -1.1168
13124TIP3   OH260862   1.785   6.790  15.326 -0.1637  0.6175 -0.2742
13124TIP3    H160863   1.835   6.853  15.378 -0.6067  0.5730  0.2219
13124TIP3    H260864   1.829   6.706  15.341 -0.5775  0.5139  0.4510
13125TIP3   OH260865   6.039   3.278   1.223  0.0976 -0.2582  0.5639
13125TIP3    H160866   6.013   3.365   1.252 -2.6161 -0.8970  0.3742
13125TIP3    H260867   6.037   3.224   1.302  0.5597 -0.3895  0.4867
13126TIP3   OH260868   1.658   6.495  15.578  0.2764  0.0335  0.0458
13126TIP3    H160869   1.662   6.419  15.520 -0.8483  1.8444 -2.6226
13126TIP3    H260870   1.716   6.559  15.538  0.3843  0.9920  1.6298
13127TIP3   OH260871   0.008   0.744  16.798  0.3336 -0.5731 -0.4016
13127TIP3    H160872  -0.016   0.656  16.769 -1.7563 -0.3241  0.4175
13127TIP3    H260873  -0.053   0.764  16.869  0.5758  1.6325 -0.7247
13128TIP3   OH260874   3.981   6.700   5.064 -0.1043 -0.5062 -0.5809
13128TIP3    H160875   4.049   6.708   5.131 -0.6380  0.0042 -0.0940
13128TIP3    H260876   4.002   6.769   5.000 -0.1998 -0.3084 -0.3988
13129TIP3   OH260877   1.093   4.977  14.256 -0.0079  0.0241 -0.2717
13129TIP3    H160878   1.048   5.005  14.335  1.0401 -0.5760  0.5595
13129TIP3    H260879   1.023   4.947  14.198 -0.7123 -0.6169  0.8702
13130TIP3   OH260880   2.106   5.515   5.902  0.3392 -0.1329  0.6438
13130TIP3    H160881   2.185   5.464   5.889 -0.1344 -0.8912  0.6973
13130TIP3    H260882   2.101   5.529   5.996  0.5590  0.1565  0.6121
13131TIP3   OH260883   4.918   4.485  12.510  0.6264  0.0134  0.1041
13131TIP3    H160884   4.872   4.450  12.586  0.7701  0.5736  0.4579
13131TIP3    H260885   4.882   4.438  12.435  0.6379 -0.6947  0.5422
13132TIP3   OH260886   6.346   4.536   5.788 -0.0631  0.4673 -0.1129
13132TIP3    H160887   6.390   4.505   5.709  0.5669 -0.0460  0.4229
13132TIP3    H260888   6.254   4.510   5.776  0.0048  0.5151 -0.7353
13133TIP3   OH260889   0.870   4.480  15.229  0.0402 -0.7283  0.0853
13133TIP3    H160890   0.898   4.531  15.154 -0.5162 -1.6923 -0.8141
13133TIP3    H260891   0.814   4.539  15.279 -1.5891 -0.7614 -1.5726
13134TIP3   OH260892   0.098   3.716   4.412  0.1925 -0.2494  0.1372
13134TIP3    H160893   0.104   3.747   4.322 -0.5401 -0.4929 -0.0011
13134TIP3    H260894   0.028   3.651   4.411  1.6531 -1.9302  0.4011
13135TIP3   OH260895   5.661   0.118  13.476  0.3047 -0.2443  0.4510
13135TIP3    H160896   5.663   0.120  13.571  1.6718 -2.2726  0.5352
13135TIP3    H260897   5.579   0.073  13.454  0.3701 -0.4961  0.7154
13136TIP3   OH260898   6.372   0.651  11.808  0.3906 -0.0725  0.0728
13136TIP3    H160899   6.391   0.571  11.759 -0.7350 -1.6377  2.0375
13136TIP3    H260900   6.432   0.649  11.882 -0.1921  0.4766  0.5730
13137TIP3   OH260901   2.629   0.693  13.431  0.0920 -0.4260  0.4701
13137TIP3    H160902   2.704   0.726  13.380  0.2017 -1.9863 -0.4306
13137TIP3    H260903   2.659   0.610  13.467  0.4811  1.1829  4.2959
13138TIP3   OH260904   0.596   4.565  11.337  0.3706  0.3825 -0.2051
13138TIP3    H160905   0.614   4.594  11.247 -0.5263  1.0766 -0.1673
13138TIP3    H260906   0.511   4.602  11.358 -0.3300 -1.3658  0.2499
13139TIP3   OH260907   2.375   0.521   5.399 -0.4927  0.3936 -0.2207
13139TIP3    H160908   2.334   0.442   5.433 -0.4519  0.5520  0.2057
13139TIP3    H260909   2.311   0.590   5.417 -0.7884  0.3616 -1.1390
13140TIP3   OH260910   6.727   5.356  12.009 -0.9311 -0.8077  0.1739
13140TIP3    H160911   6.750   5.448  12.026 -0.3116 -1.2042  1.6244
13140TIP3    H260912   6.633   5.357  11.996 -1.0328 -0.0613  0.9233
13141TIP3   OH260913   1.716   6.279   0.233 -0.0777  0.1988 -0.0995
13141TIP3    H160914   1.811   6.275   0.224  0.2171  2.3802  1.3201
13141TIP3    H260915   1.687   6.189   0.219  2.1721 -0.5239 -0.5872
13142TIP3   OH260916   3.085   6.568  11.829  0.0063 -0.0074 -0.0081
13142TIP3    H160917   3.029   6.568  11.751 -0.0909  0.6167  0.0565
13142TIP3    H260918   3.096   6.660  11.850  0.3504 -0.1620  0.4946
13143TIP3   OH260919   3.371   6.772  17.112 -0.0977 -0.2553  0.0629
13143TIP3    H160920   3.356   6.708  17.181 -0.4676 -0.1654  0.0707
13143TIP3    H260921   3.460   6.803  17.127 -0.7135  0.9543  1.5146
13144TIP3   OH260922   6.317   0.315  15.769 -0.4667 -0.0255  0.2359
13144TIP3    H160923   6.263   0.255  15.820 -0.4818 -0.5415 -0.3797
13144TIP3    H260924   6.290   0.301  15.679  0.4141 -0.0003 -0.0381
13145TIP3   OH260925   1.453   4.770  13.901 -0.0501 -0.4693  0.1083
13145TIP3    H160926   1.383   4.833  13.923  0.7347  0.7167 -0.6958
13145TIP3    H260927   1.442   4.754  13.808  2.1881  1.6580 -0.6292
13146TIP3   OH260928   0.658   5.132  13.315  0.4643  0.3569 -0.1202
13146TIP3    H160929   0.746   5.100  13.294  1.2373  1.1355  1.7262
13146TIP3    H260930   0.618   5.150  13.230  1.5293 -1.4060 -1.0655
13147TIP3   OH260931   0.068   6.069  15.720 -0.4717  0.1353 -0.2822
13147TIP3    H160932   0.017   6.022  15.653  0.3983 -0.8333 -0.2996
13147TIP3    H260933   0.151   6.090  15.676  0.0394 -0.3570  0.4167
13148TIP3   OH260934   6.164   6.734  13.349  0.6969  0.2131  0.0783
13148TIP3    H160935   6.205   6.776  13.425  1.3411  2.1413 -1.2803
13148TIP3    H260936   6.070   6.745  13.365  0.8330  1.1296  0.3393
13149TIP3   OH260937   1.432   3.104   3.978 -0.4143  0.1278  0.3284
13149TIP3    H160938   1.363   3.162   3.946 -0.3112  0.0397 -0.0567
13149TIP3    H260939   1.486   3.086   3.901 -0.0412  0.0837  0.5989
13150TIP3   OH260940   5.661   3.086   2.102 -0.0339 -0.1442  0.5900
13150TIP3    H160941   5.673   3.130   2.018  1.3024 -0.1094  0.7796
13150TIP3    H260942   5.567   3.074   2.109 -0.1207 -0.9172 -1.3107
13151TIP3   OH260943   4.533   4.132   0.270  0.4480  0.1878  0.6356
13151TIP3    H160944   4.470   4.081   0.321 -0.1084 -0.1340 -0.3474
13151TIP3    H260945   4.489   4.216   0.253  0.3197  0.0059  0.0440
13152TIP3   OH260946   0.096   3.049   3.985  0.6713  0.2736 -0.3030
13152TIP3    H160947   0.111   3.136   4.022  1.4057  0.2333 -0.4857
13152TIP3    H260948   0.122   3.057   3.893 -0.9519  0.3192 -0.7820
13153TIP3   OH260949   0.855   2.829  12.433 -0.5809  0.3171 -0.2443
13153TIP3    H160950   0.793   2.877  12.488  0.6255  0.7530  0.7863
13153TIP3    H260951   0.880   2.753  12.485  1.8126  1.5787  0.5759
13154TIP3   OH260952   2.272   4.506   3.593  0.1189 -0.3039 -0.2620
13154TIP3    H160953   2.345   4.564   3.615 -0.8800  0.3385  1.5329
13154TIP3    H260954   2.215   4.509   3.670 -1.5487 -1.1997 -1.4144
13155TIP3   OH260955   2.450   2.784   4.055 -0.4142 -0.5654  0.3502
13155TIP3    H160956   2.504   2.792   3.976  0.1858 -0.1763  0.7898
13155TIP3    H260957   2.442   2.690   4.069 -1.2515 -0.6694 -0.6501
13156TIP3   OH260958   0.382   5.845  15.946 -0.2833 -0.2274  0.1250
13156TIP3    H160959   0.394   5.879  15.857 -0.5821  1.1986  0.5932
13156TIP3    H260960   0.453   5.782  15.957  0.3674  0.3037 -0.7889
13157TIP3   OH260961   0.048   0.253  15.862  0.1981  0.4061 -0.1681
13157TIP3    H160962   0.040   0.191  15.934  0.0238  1.6049  0.8835
13157TIP3    H260963  -0.043   0.273  15.837  0.2246  1.0501  0.2315
13158TIP3   OH260964   3.847   4.502  15.062  0.1616 -0.3017  0.0042
13158TIP3    H160965   3.807   4.450  15.131  0.0881 -1.2032 -0.6885
13158TIP3    H260966   3.921   4.546  15.104 -1.4031  1.2190  1.2468
13159TIP3   OH260967   2.609   5.508  14.350 -0.4295  0.9569  0.1536
13159TIP3    H160968   2.679   5.511  14.416 -0.0685 -0.0501 -0.1513
13159TIP3    H260969   2.582   5.416  14.349 -0.8051  1.0689 -0.7144
13160TIP3   OH260970   3.068   3.350  15.850 -0.3080  0.1944 -0.3583
13160TIP3    H160971   2.997   3.409  15.877 -0.0373  0.6099 -0.5477
13160TIP3    H260972   3.032   3.304  15.774 -0.6627 -0.1672  0.0257
13161TIP3   OH260973   0.403   3.095  12.220 -0.1779 -0.1965 -0.3093
13161TIP3    H160974   0.472   3.103  12.286 -0.9081 -2.3670  0.8106
13161TIP3    H260975   0.345   3.169  12.237  0.4758  0.1493  0.4819
13162TIP3   OH260976   0.163   2.299  16.758 -0.2775  0.1494 -0.5059
13162TIP3    H160977   0.100   2.230  16.737  0.2166 -0.6506  0.5709
13162TIP3    H260978   0.111   2.380  16.757 -1.7998 -0.6733  2.1794
13163TIP3   OH260979   3.397   3.651  10.982  0.3268  0.1264 -0.2139
13163TIP3    H160980   3.436   3.673  10.897 -0.3872 -0.5913 -0.7486
13163TIP3    H260981   3.340   3.725  11.002  0.5404  0.3244 -0.3408
13164TIP3   OH260982   3.034   0.487   0.305 -0.0497  0.2022 -0.1432
13164TIP3    H160983   3.028   0.560   0.366 -0.6436 -0.3272  0.4490
13164TIP3    H260984   2.961   0.501   0.244 -1.4419 -0.9294  1.1612
13165TIP3   OH260985   3.254   5.628  15.128 -0.1987  0.2075 -0.0785
13165TIP3    H160986   3.208   5.674  15.199  0.1182 -0.8671  0.8537
13165TIP3    H260987   3.320   5.575  15.173 -0.1477 -0.6846 -1.1655
13166TIP3   OH260988   6.153   0.947   3.223 -0.1815 -0.2605  0.6916
13166TIP3    H160989   6.164   0.861   3.263  0.6409 -0.0664  0.8955
13166TIP3    H260990   6.156   0.931   3.129  0.8739 -0.3478  0.7336
13167TIP3   OH260991   2.580   5.757   2.841 -0.5146 -1.1120 -0.1039
13167TIP3    H160992   2.634   5.806   2.780 -1.3502  1.3422  0.9676
13167TIP3    H260993   2.641   5.728   2.909 -0.1462 -0.5640 -0.1933
13168TIP3   OH260994   6.075   3.808  13.474  0.2700  0.1554 -0.2670
13168TIP3    H160995   6.067   3.892  13.519  2.4200  0.5949 -0.6004
13168TIP3    H260996   6.103   3.747  13.542  0.6882  0.1699 -0.4234
13169TIP3   OH260997   6.658   4.290   2.792 -0.2728 -0.4904  0.7228
13169TIP3    H160998   6.645   4.375   2.750 -3.8341 -0.1573  2.1703
13169TIP3    H260999   6.695   4.310   2.878  1.8334 -0.7566 -0.0528
13170TIP3   OH261000   5.436   5.561   2.996 -0.0852  0.3843  0.0865
13170TIP3    H161001   5.412   5.494   2.932 -0.0424  0.2980  0.1595
13170TIP3    H261002   5.403   5.643   2.960 -0.9298  0.1991  0.4190
13171TIP3   OH261003   2.164   1.304  16.787  0.5368 -0.8763 -1.0513
13171TIP3    H161004   2.113   1.223  16.791 -1.3404  0.2246 -1.3899
13171TIP3    H261005   2.161   1.330  16.695 -1.2989  0.9768 -0.5400
13172TIP3   OH261006   5.719   4.729  16.026 -0.0907  0.2746  0.4788
13172TIP3    H161007   5.758   4.704  15.942 -2.2801 -0.7006 -0.3468
13172TIP3    H261008   5.699   4.646  16.069 -0.1343  0.7479  1.3904
13173TIP3   OH261009   4.548   0.180   2.973  0.5720 -0.3693 -0.1870
13173TIP3    H161010   4.467   0.228   2.991  0.4487 -0.2917 -0.9405
13173TIP3    H261011   4.599   0.189   3.054  0.7988  1.5289 -0.4762
13174TIP3   OH261012   3.419   0.947  14.670 -0.3265  0.0563 -0.7480
13174TIP3    H161013   3.412   0.954  14.765 -0.7791  0.7791 -0.8217
13174TIP3    H261014   3.334   0.975  14.638 -0.0047  0.3344 -1.3841
13175TIP3   OH261015   3.413   3.574  16.653  0.1111  0.7884  0.0146
13175TIP3    H161016   3.398   3.647  16.712 -0.9033  1.7667 -1.3978
13175TIP3    H261017   3.441   3.614  16.571 -1.6070 -0.2799 -1.1683
13176TIP3   OH261018   3.815   1.927  13.036 -0.4382 -0.3893  0.1498
13176TIP3    H161019   3.818   1.835  13.010 -1.5850 -0.7292  1.1697
13176TIP3    H261020   3.839   1.926  13.129 -2.7628  0.0464  0.7930
13177TIP3   OH261021   5.804   3.372  15.917  0.2254 -0.1033 -0.0293
13177TIP3    H161022   5.774   3.304  15.858 -0.4138  0.4358 -0.3345
13177TIP3    H261023   5.736   3.378  15.984 -0.0493  0.6858 -0.3698
13178TIP3   OH261024   3.269   6.556  15.823  0.7386 -0.6591 -0.4956
13178TIP3    H161025   3.251   6.485  15.761  0.3581 -0.6787 -0.3678
13178TIP3    H261026   3.362   6.575  15.812  1.0551 -1.7771  0.1007
13179TIP3   OH261027   0.240   1.726  14.480  0.6441 -0.4140  0.2613
13179TIP3    H161028   0.276   1.791  14.540 -0.3962  1.7783 -1.3379
13179TIP3    H261029   0.195   1.663  14.536  0.2846  1.1710  1.8177
13180TIP3   OH261030   1.676   2.091   2.350  0.5029  0.1334  0.0031
13180TIP3    H161031   1.645   2.179   2.373  0.1008 -0.8537  4.0218
13180TIP3    H261032   1.598   2.046   2.318  0.4582  0.8654 -0.9641
13181TIP3   OH261033   3.607   1.071  13.821 -0.0414 -0.0382  0.1582
13181TIP3    H161034   3.641   1.044  13.906  1.3415  0.1699 -0.3160
13181TIP3    H261035   3.682   1.067  13.762 -0.6702  1.1083 -0.7616
13182TIP3   OH261036   3.501   6.602  16.006 -0.0149 -0.2139  0.2848
13182TIP3    H161037   3.491   6.579  16.098 -1.3914 -1.3526 -0.1049
13182TIP3    H261038   3.498   6.517  15.960  0.5425  0.3387 -0.8070
13183TIP3   OH261039   5.440   3.622   3.702  0.4741 -0.3823  0.1420
13183TIP3    H161040   5.526   3.663   3.689 -0.6410  1.9919 -0.3917
13183TIP3    H261041   5.425   3.573   3.622 -0.3394  2.6071 -1.6867
13184TIP3   OH261042   1.022   6.438   2.397 -0.5037 -0.2781 -0.1028
13184TIP3    H161043   1.013   6.345   2.419 -1.2230 -0.0931  0.4335
13184TIP3    H261044   1.035   6.481   2.482 -0.5546  0.1480 -0.3099
13185TIP3   OH261045   3.903   3.341   1.978  0.0794 -0.1734 -0.4195
13185TIP3    H161046   3.848   3.303   1.910  0.9279 -2.1342 -0.0988
13185TIP3    H261047   3.965   3.271   2.000  2.2286  1.6827 -0.2527
13186TIP3   OH261048   3.809   1.580   2.157 -0.0190  0.2759 -0.1109
13186TIP3    H161049   3.762   1.648   2.109 -1.0398 -1.2353 -1.3583
13186TIP3    H261050   3.757   1.501   2.143  1.2083 -0.8013  1.1627
13187TIP3   OH261051   3.059   2.581  13.429 -0.2547  0.1851 -0.0245
13187TIP3    H161052   3.128   2.551  13.488  0.4855  2.5324  0.4022
13187TIP3    H261053   3.013   2.649  13.477 -2.7507 -1.1084 -0.4186
13188TIP3   OH261054   2.921   2.262   6.029  0.4480  0.3308 -0.6988
13188TIP3    H161055   2.853   2.248   6.094  2.2604  0.1549  1.2601
13188TIP3    H261056   2.889   2.218   5.950 -0.7777 -1.5274  0.7710
13189TIP3   OH261057   2.651   0.780   1.543  0.0189 -0.6474  0.0908
13189TIP3    H161058   2.719   0.780   1.611  3.2972  1.3544 -2.8231
13189TIP3    H261059   2.599   0.858   1.562  0.9514 -0.0614  0.3361
13190TIP3   OH261060   4.828   0.305  11.962  0.0966 -0.0057  0.6594
13190TIP3    H161061   4.869   0.233  11.912  1.1263  0.6283  0.5544
13190TIP3    H261062   4.887   0.318  12.036  0.9842  1.9885 -0.3392
13191TIP3   OH261063   0.196   6.790   3.399 -0.3380 -0.0327 -0.5561
13191TIP3    H161064   0.162   6.810   3.486  1.6212  1.3738 -0.0441
13191TIP3    H261065   0.133   6.830   3.339 -0.9073  0.3171  0.2550
13192TIP3   OH261066   4.021   1.816   0.167  0.0658  0.0461 -0.0411
13192TIP3    H161067   4.025   1.722   0.188  0.9755 -0.4823 -2.2561
13192TIP3    H261068   3.994   1.819   0.075 -1.2340  2.0461  0.3516
13193TIP3   OH261069   0.201   1.782   3.650 -0.1484  0.0785 -0.2342
13193TIP3    H161070   0.218   1.704   3.702 -0.4135 -0.4128 -0.8677
13193TIP3    H261071   0.106   1.781   3.635 -0.0346  0.0034 -1.0304
13194TIP3   OH261072   5.901   4.721   2.762  0.1303  0.0958  0.0042
13194TIP3    H161073   5.989   4.683   2.754  0.0179  0.1636 -2.0712
13194TIP3    H261074   5.913   4.795   2.821  1.1631 -0.7100  0.8664
13195TIP3   OH261075   3.412   4.674   2.976  0.2485  0.0286 -0.2316
13195TIP3    H161076   3.318   4.660   2.993  0.0457  1.8355  0.2966
13195TIP3    H261077   3.441   4.592   2.937 -1.5441 -0.5950 -0.3538
13196TIP3   OH261078   1.533   5.119   0.858 -0.4119 -0.4835 -0.3057
13196TIP3    H161079   1.492   5.035   0.878  0.2920 -1.1759 -1.6040
13196TIP3    H261080   1.608   5.096   0.803  1.8877  0.6865  2.1112
13197TIP3   OH261081   4.199   3.766  12.537  0.6106  0.4375 -0.4107
13197TIP3    H161082   4.238   3.853  12.528  2.2353 -0.1271  0.7206
13197TIP3    H261083   4.237   3.715  12.466  0.3411  0.4217 -0.5431
13198TIP3   OH261084   6.634   1.245  13.817  0.8157  0.7041  0.3318
13198TIP3    H161085   6.547   1.282  13.807 -1.2271 -3.5569  0.1774
13198TIP3    H261086   6.661   1.223  13.728 -0.8584 -3.4275  0.6073
13199TIP3   OH261087   4.137   6.189   0.185  0.2421 -0.6067  0.9635
13199TIP3    H161088   4.198   6.251   0.225 -0.2060  0.1670  0.5014
13199TIP3    H261089   4.164   6.103   0.216  2.2028 -0.3965 -0.0264
13200TIP3   OH261090   2.848   2.108  12.147 -0.2483 -0.3389  0.4922
13200TIP3    H161091   2.894   2.027  12.122  0.0783  0.2766 -0.9623
13200TIP3    H261092   2.876   2.124  12.237 -0.1042 -1.7006  0.7119
13201TIP3   OH261093   1.688   3.831   4.404  0.2126 -0.4974  0.6357
13201TIP3    H161094   1.782   3.811   4.404  0.7115  1.5496  0.0018
13201TIP3    H261095   1.678   3.897   4.335 -1.7598 -0.8688  0.5016
13202TIP3   OH261096   0.936   5.047   3.556  0.0243 -0.5342 -0.0115
13202TIP3    H161097   0.996   4.974   3.546  0.0071 -0.6170  0.4388
13202TIP3    H261098   0.916   5.075   3.467  0.3928 -0.7806 -0.1723
13203TIP3   OH261099   1.274   6.217   0.704 -0.2208  0.2700 -0.2705
13203TIP3    H161100   1.252   6.302   0.741 -1.4522 -0.0563 -0.1941
13203TIP3    H261101   1.282   6.159   0.780 -1.9856 -0.2307 -0.4184
13204TIP3   OH261102   2.890   0.587   6.437  0.8394 -0.6812  0.5583
13204TIP3    H161103   2.816   0.646   6.453  1.5505  0.5590 -0.5108
13204TIP3    H261104   2.925   0.569   6.524  1.2348  1.3560  0.8880
13205TIP3   OH261105   5.320   0.248  16.364  0.3308  0.6191  0.4089
13205TIP3    H161106   5.336   0.282  16.276  0.5770  1.5457  0.7975
13205TIP3    H261107   5.406   0.215  16.393  0.2668  0.3860  0.3353
13206TIP3   OH261108   3.204   4.157   6.389  0.3476 -0.7265 -0.1902
13206TIP3    H161109   3.123   4.123   6.426  0.3924  1.7299  2.5691
13206TIP3    H261110   3.177   4.212   6.316 -0.7587  1.3214  1.6536
13207TIP3   OH261111   4.785   4.428  16.479  0.4312 -0.1026  0.0808
13207TIP3    H161112   4.759   4.420  16.570  0.1233 -1.0253 -0.0803
13207TIP3    H261113   4.718   4.483  16.439 -0.3656 -1.0718  0.0487
13208TIP3   OH261114   0.433   0.628  16.876 -0.3277  0.4424  0.4378
13208TIP3    H161115   0.494   0.628  16.802  2.7874  1.1965  2.7980
13208TIP3    H261116   0.373   0.700  16.857  1.3212  1.6037 -0.6975
13209TIP3   OH261117   2.145   2.899   1.336  0.6067 -0.4460 -0.6627
13209TIP3    H161118   2.218   2.864   1.286  1.6902  1.2763 -0.3658
13209TIP3    H261119   2.166   2.992   1.347 -1.2038 -0.0951  0.1852
13210TIP3   OH261120   1.095   6.735  14.366  0.3995 -0.0418  0.1900
13210TIP3    H161121   1.020   6.726  14.307  0.0756 -0.7768  0.6953
13210TIP3    H261122   1.143   6.810  14.332  0.0404 -0.2444 -0.8122
13211TIP3   OH261123   1.438   1.053   1.251  0.2251 -0.7268  0.7745
13211TIP3    H161124   1.416   1.134   1.297 -1.3339  0.0601 -1.2066
13211TIP3    H261125   1.393   1.060   1.167  0.7335 -3.2999  0.1994
13212TIP3   OH261126   2.590   3.543  16.853 -0.5544 -0.0516 -0.0036
13212TIP3    H161127   2.647   3.466  16.845  0.4505  0.6206  0.4465
13212TIP3    H261128   2.619   3.602  16.784 -1.6198 -0.2451 -0.6313
13213TIP3   OH261129   6.700   4.791   4.563  0.0170 -0.3852  0.4048
13213TIP3    H161130   6.682   4.721   4.626 -0.7325 -1.2306 -0.7158
13213TIP3    H261131   6.630   4.855   4.578 -0.4790 -0.8445  0.0659
13214TIP3   OH261132   0.887   2.657   5.572 -0.0371  0.3224 -0.1313
13214TIP3    H161133   0.883   2.596   5.645  2.7771  0.5371  0.3163
13214TIP3    H261134   0.860   2.606   5.496  1.6718 -1.3756  0.3258
13215TIP3   OH261135   2.946   1.228  14.107  0.4791  0.3227  0.4472
13215TIP3    H161136   2.867   1.257  14.063  1.5864 -1.1096 -2.8748
13215TIP3    H261137   2.984   1.307  14.145 -0.3372  1.8465 -1.7263
13216TIP3   OH261138   3.809   3.055   0.688 -0.1512  0.3719 -0.3307
13216TIP3    H161139   3.805   3.139   0.642 -0.2066 -0.2119 -1.4191
13216TIP3    H261140   3.816   3.079   0.780 -0.0046  1.5734 -0.6352
13217TIP3   OH261141   2.330   5.600  16.001 -0.1651  0.2905  0.1715
13217TIP3    H161142   2.422   5.625  15.992  0.1155 -0.6892  0.1227
13217TIP3    H261143   2.289   5.630  15.920 -0.2345  2.0574  0.8134
13218TIP3   OH261144   5.775   6.461  11.067 -0.1729 -0.3614 -0.0203
13218TIP3    H161145   5.812   6.508  10.992  1.3770 -1.0528  0.2772
13218TIP3    H261146   5.762   6.530  11.133 -0.5557  0.0828 -0.5497
13219TIP3   OH261147   4.250   0.225  14.332  0.3485 -0.2818 -0.4545
13219TIP3    H161148   4.270   0.207  14.240 -1.5771  1.8042 -1.3655
13219TIP3    H261149   4.249   0.320  14.338 -3.3762 -0.2637  0.7257
13220TIP3   OH261150   0.391   6.446   1.699 -0.9727 -0.5134  0.1209
13220TIP3    H161151   0.394   6.541   1.711  0.1436 -0.5945  0.7438
13220TIP3    H261152   0.453   6.428   1.628 -0.3680 -0.8470  0.7139
13221TIP3   OH261153   5.694   3.410   2.663 -0.3005  0.1683  0.4555
13221TIP3    H161154   5.736   3.337   2.708  2.4130 -0.7157 -3.0217
13221TIP3    H261155   5.601   3.402   2.684  0.3037 -2.4327  2.5862
13222TIP3   OH261156   2.060   0.946   4.503 -0.1514 -0.1407  0.1414
13222TIP3    H161157   2.155   0.942   4.507  0.0589  0.7185 -2.1432
13222TIP3    H261158   2.036   1.013   4.568  1.2019  2.3759 -1.7565
13223TIP3   OH261159   2.108   6.726  15.968 -0.5741 -0.1823  0.1388
13223TIP3    H161160   2.151   6.718  15.883  0.3032  2.1833  0.3073
13223TIP3    H261161   2.018   6.751  15.946 -0.3595  0.3938 -0.0943
13224TIP3   OH261162   0.564   6.289  11.759  0.2193  0.6285  0.2045
13224TIP3    H161163   0.541   6.378  11.786  0.0579  0.5824  0.2203
13224TIP3    H261164   0.515   6.232  11.819 -1.0175  0.5163 -0.8645
13225TIP3   OH261165   3.278   2.945   1.340 -0.5744 -0.0935  0.6773
13225TIP3    H161166   3.279   2.850   1.332 -2.7928 -0.1832  0.7099
13225TIP3    H261167   3.369   2.969   1.357  0.1249 -2.1411  0.1183
13226TIP3   OH261168   4.715   4.601   5.480  0.0004  0.2037 -0.5221
13226TIP3    H161169   4.712   4.507   5.459  1.3072  0.4295 -1.8342
13226TIP3    H261170   4.769   4.639   5.411 -0.8377  2.0033 -0.2313
13227TIP3   OH261171   3.658   6.689   3.337  0.1369  0.2114  0.2698
13227TIP3    H161172   3.581   6.708   3.284  1.1959 -0.2921 -1.5452
13227TIP3    H261173   3.664   6.763   3.398 -0.9507  0.9851 -0.5145
13228TIP3   OH261174   2.507   2.157   0.772 -0.7420  0.0998  0.1798
13228TIP3    H161175   2.554   2.226   0.818 -1.1143 -0.4650  1.4748
13228TIP3    H261176   2.559   2.140   0.694  0.5066  0.3786  0.9147
13229TIP3   OH261177   6.162   1.348   5.244 -0.0802 -0.0609  0.7539
13229TIP3    H161178   6.210   1.284   5.191  0.5363 -0.5467  1.8596
13229TIP3    H261179   6.222   1.421   5.254  0.4997 -0.6940  2.1878
13230TIP3   OH261180   2.927   0.910   2.001  0.2689  0.6171  0.9883
13230TIP3    H161181   2.985   0.938   2.071  1.0477 -0.3598  0.7451
13230TIP3    H261182   2.944   0.817   1.990  0.5105  0.8285 -0.8145
13231TIP3   OH261183   1.373   0.579  15.357  0.2748 -0.0234  0.9173
13231TIP3    H161184   1.456   0.573  15.405 -0.0144  0.3427  1.4779
13231TIP3    H261185   1.316   0.628  15.415 -0.4815 -0.6639  0.7323
13232TIP3   OH261186   3.043   5.542  14.135  0.1451  0.2237 -0.2387
13232TIP3    H161187   3.043   5.615  14.197  2.4441 -0.2593  0.4180
13232TIP3    H261188   3.135   5.532  14.109 -0.4786 -0.8201 -2.2797
13233TIP3   OH261189   0.386   2.951   2.758 -0.2046 -0.0109  0.5253
13233TIP3    H161190   0.471   2.910   2.772 -0.2613 -0.9564 -1.4935
13233TIP3    H261191   0.338   2.888   2.704 -2.1534  0.5736  1.4757
13234TIP3   OH261192   4.342   4.614   0.429  0.5223  0.2973  0.0002
13234TIP3    H161193   4.340   4.559   0.350  0.4225  1.0281 -0.5132
13234TIP3    H261194   4.307   4.698   0.401 -2.8433 -0.3880  1.5991
13235TIP3   OH261195   3.471   2.784  13.122 -0.1776  0.0001  0.6422
13235TIP3    H161196   3.530   2.850  13.159  0.2294  1.2907 -2.0564
13235TIP3    H261197   3.392   2.790  13.175  1.1465  0.0683  2.7148
13236TIP3   OH261198   1.833   1.044   4.373 -0.1891  0.0224  0.4604
13236TIP3    H161199   1.763   0.983   4.351  0.8420 -0.8574 -0.5429
13236TIP3    H261200   1.897   0.991   4.421 -0.4922  0.9683  1.9757
13237TIP3   OH261201   4.159   0.831   0.155 -0.0019 -0.2574  0.7506
13237TIP3    H161202   4.086   0.893   0.153 -0.3413 -0.6482  0.8459
13237TIP3    H261203   4.136   0.769   0.224 -0.5984 -1.5973 -0.5753
13238TIP3   OH261204   3.676   5.619   3.974  0.3531 -0.3334 -0.4107
13238TIP3    H161205   3.726   5.590   4.050 -0.5124 -1.2891 -0.1669
13238TIP3    H261206   3.668   5.713   3.984  1.0290 -0.3331  0.1940
13239TIP3   OH261207   2.679   5.231   2.854  0.3060  0.1217  0.0085
13239TIP3    H161208   2.768   5.266   2.848  0.0778  0.4211 -4.2610
13239TIP3    H261209   2.622   5.309   2.852 -0.1052 -0.1583  0.4717
13240TIP3   OH261210   3.846   3.783   0.016 -0.4337 -0.1195 -0.4318
13240TIP3    H161211   3.797   3.848  -0.033  2.2963  1.8072 -0.8399
13240TIP3    H261212   3.827   3.700  -0.028 -2.9199  0.5688 -0.7676
13241TIP3   OH261213   4.167   3.738   2.112 -0.1062 -0.8357  0.2615
13241TIP3    H161214   4.149   3.788   2.191  0.9239  0.4657 -0.2841
13241TIP3    H261215   4.115   3.781   2.044 -0.0673 -1.1894  0.0078
13242TIP3   OH261216   6.027   5.039   3.130 -0.0216 -0.4060  0.3263
13242TIP3    H161217   6.039   4.955   3.087 -0.6210 -0.8375  0.9700
13242TIP3    H261218   5.933   5.043   3.149  0.5123 -1.5187  4.0410
13243TIP3   OH261219   1.626   3.091  13.625 -0.1742 -0.2490  0.5602
13243TIP3    H161220   1.689   3.062  13.691 -0.9020 -1.2717  0.8197
13243TIP3    H261221   1.670   3.074  13.542  0.8824  1.3387  0.7357
13244TIP3   OH261222   3.826   2.799  13.444  0.2443 -0.2388 -0.5648
13244TIP3    H161223   3.878   2.732  13.490 -0.7557 -0.2677  0.5933
13244TIP3    H261224   3.768   2.833  13.512 -1.9093 -0.8750 -1.9922
13245TIP3   OH261225   1.878   3.896  15.737  0.0320 -0.0210 -0.1469
13245TIP3    H161226   1.847   3.861  15.820 -1.5258  0.7885 -0.3563
13245TIP3    H261227   1.915   3.821  15.692 -0.5083 -0.7808  0.6420
13246TIP3   OH261228   2.429   5.095  15.565  0.0067  0.1598  0.3203
13246TIP3    H161229   2.471   5.125  15.646  0.2037 -1.2640  0.7777
13246TIP3    H261230   2.353   5.046  15.595 -0.6227  0.6671 -0.4241
13247TIP3   OH261231   1.312   4.323   4.728 -0.4343 -0.0747  0.2367
13247TIP3    H161232   1.301   4.272   4.648  0.2371  2.2333 -1.4468
13247TIP3    H261233   1.407   4.329   4.741 -0.4425  1.5612 -0.2293
13248TIP3   OH261234   0.152   0.295   6.057 -0.3172  0.3010  0.0304
13248TIP3    H161235   0.082   0.338   6.107 -1.8756 -1.1765 -0.7543
13248TIP3    H261236   0.228   0.297   6.115 -0.8967  2.2109  0.8173
13249TIP3   OH261237   5.071   3.002   0.845 -0.0858  0.0106 -0.0463
13249TIP3    H161238   5.046   3.010   0.937 -0.6461 -0.7928 -0.1230
13249TIP3    H261239   4.997   2.958   0.804 -0.1458  0.9793 -1.0311
13250TIP3   OH261240   1.232   4.704  16.681 -0.1336  0.2497 -0.0746
13250TIP3    H161241   1.280   4.745  16.753 -0.7645  2.6437 -0.9004
13250TIP3    H261242   1.250   4.611  16.690  2.7220  0.8074  1.0227
13251TIP3   OH261243   4.493   0.517  16.593  0.0033 -0.2017 -0.2116
13251TIP3    H161244   4.494   0.505  16.688  0.4755  0.1602 -0.1606
13251TIP3    H261245   4.569   0.467  16.562  1.5972  1.9672 -0.0639
13252TIP3   OH261246   3.333   0.503  14.220 -0.2116 -0.2331 -0.4861
13252TIP3    H161247   3.420   0.542  14.218 -0.3089  0.0077 -0.0972
13252TIP3    H261248   3.295   0.533  14.303 -0.9372  0.2544 -0.9913
13253TIP3   OH261249   6.173   5.421  17.291  0.1704 -0.2222 -0.1112
13253TIP3    H161250   6.088   5.455  17.318  0.1213 -1.1226  0.9437
13253TIP3    H261251   6.187   5.344  17.346  1.0113 -0.9498 -1.2927
13254TIP3   OH261252   0.363   5.162  10.906 -0.2406 -0.5496 -0.2589
13254TIP3    H161253   0.346   5.132  10.817  0.0699 -0.4015 -0.3695
13254TIP3    H261254   0.307   5.107  10.961 -0.6357 -0.4553 -0.5662
13255TIP3   OH261255   4.403   5.351   1.395  0.4950 -0.5001 -0.1349
13255TIP3    H161256   4.322   5.331   1.443 -0.1711  3.7854  0.9245
13255TIP3    H261257   4.378   5.349   1.303 -0.0879 -1.8173  0.0334
13256TIP3   OH261258   3.652   6.545  12.087 -0.4007  0.0037  0.8063
13256TIP3    H161259   3.726   6.605  12.078  1.4253 -2.3786 -1.8326
13256TIP3    H261260   3.578   6.593  12.051  0.6009  1.2766  0.3576
13257TIP3   OH261261   1.107   3.344   4.964 -0.2062  0.1788 -0.1246
13257TIP3    H161262   1.031   3.297   4.930  0.1579 -0.7953  0.3869
13257TIP3    H261263   1.114   3.317   5.056 -1.6359  3.3411  1.0539
13258TIP3   OH261264   2.093   0.044  16.930  0.1828 -0.4438 -0.3342
13258TIP3    H161265   2.036   0.019  16.857 -0.0427 -1.4853  0.1674
13258TIP3    H261266   2.127  -0.040  16.963  0.8068  0.0589  0.3302
13259TIP3   OH261267   0.551   3.027  16.426  0.1164  0.3112  0.1004
13259TIP3    H161268   0.647   3.020  16.434  0.0993 -1.4658 -0.7882
13259TIP3    H261269   0.536   3.119  16.405  1.5919  0.7080  0.6031
13260TIP3   OH261270   2.243   2.456   6.053  0.0672 -0.0862 -0.1656
13260TIP3    H161271   2.163   2.418   6.088 -0.0385  1.2741  1.1365
13260TIP3    H261272   2.289   2.491   6.129  1.2631  0.3487 -1.0496
13261TIP3   OH261273   1.266   6.075   4.202  0.0892  0.5873  0.3270
13261TIP3    H161274   1.202   6.065   4.132  1.7885 -0.5745 -1.1695
13261TIP3    H261275   1.318   6.151   4.175  2.0133 -1.0315 -0.8543
13262TIP3   OH261276   3.974   6.161  14.993 -0.3680  0.6346  0.1636
13262TIP3    H161277   3.994   6.084  15.047 -0.5771  0.1512 -0.4341
13262TIP3    H261278   4.013   6.234  15.041  1.4006 -0.0660 -0.1395
13263TIP3   OH261279   0.588   3.380   0.911 -0.0812 -0.1607 -0.1083
13263TIP3    H161280   0.580   3.463   0.865 -0.0797  0.8356  1.5952
13263TIP3    H261281   0.521   3.324   0.871  0.2673  0.4602 -1.6293
13264TIP3   OH261282   5.175   0.873  11.866 -0.4187  0.0228 -0.5796
13264TIP3    H161283   5.186   0.840  11.777  1.0349 -1.4390  0.0879
13264TIP3    H261284   5.082   0.894  11.873 -0.8166 -1.1115 -2.0149
13265TIP3   OH261285   6.716   2.810  13.746  0.3932  0.2770  0.9742
13265TIP3    H161286   6.650   2.813  13.815  1.5247  0.3957  2.0811
13265TIP3    H261287   6.725   2.717  13.727  0.1570  0.2361  1.0507
13266TIP3   OH261288   5.599   1.755  13.486 -0.3372  0.2686  0.0157
13266TIP3    H161289   5.564   1.683  13.539 -0.6246  1.5973  1.7083
13266TIP3    H261290   5.594   1.723  13.396  0.3116 -2.1308  0.7706
13267TIP3   OH261291   2.392   3.530   5.627  0.4989 -0.2062 -0.1638
13267TIP3    H161292   2.419   3.479   5.703 -1.2465 -2.1569 -0.7586
13267TIP3    H261293   2.402   3.470   5.553  0.0500  0.9025 -1.1518
13268TIP3   OH261294   3.532   5.829  16.345 -0.2389 -0.1827 -0.3132
13268TIP3    H161295   3.468   5.768  16.381 -1.3628  1.6081  0.9119
13268TIP3    H261296   3.497   5.853  16.259 -0.1406 -0.7425 -0.5132
13269TIP3   OH261297   0.802   6.729  11.466  0.3483 -0.5700 -0.0351
13269TIP3    H161298   0.854   6.804  11.437 -1.3985  0.2184 -1.2928
13269TIP3    H261299   0.825   6.658  11.406 -2.1075  0.6200 -2.5909
13270TIP3   OH261300   4.274   2.078   6.014  0.8406 -0.4921  0.1625
13270TIP3    H161301   4.306   2.158   5.974 -0.2176 -0.2993 -0.3280
13270TIP3    H261302   4.280   2.094   6.108  0.0330  0.4369  0.0769
13271TIP3   OH261303   6.381   3.743  11.251 -0.1445 -0.6191  0.2354
13271TIP3    H161304   6.328   3.686  11.307  0.3839 -0.7712  0.5962
13271TIP3    H261305   6.471   3.711  11.264 -0.0062 -0.6004 -0.6459
13272TIP3   OH261306   6.666   0.447  14.508  0.4468  0.0877 -0.0302
13272TIP3    H161307   6.747   0.412  14.546 -0.0370 -1.2244 -0.1760
13272TIP3    H261308   6.597   0.418  14.568  0.2044  2.7076  1.1028
13273TIP3   OH261309   1.771   0.552   2.017  0.0568  0.0967  0.3785
13273TIP3    H161310   1.758   0.525   1.926 -0.2680 -0.4787  0.5856
13273TIP3    H261311   1.709   0.623   2.030  0.0172  0.1005  0.1811
13274TIP3   OH261312   3.470   4.128  14.245  0.0544 -0.4936  0.5252
13274TIP3    H161313   3.563   4.124  14.220  0.1221 -0.7599  0.8182
13274TIP3    H261314   3.434   4.045  14.214 -0.2661 -0.0711 -0.2816
13275TIP3   OH261315   0.127   2.201   2.015  0.4761 -0.3884  0.4045
13275TIP3    H161316   0.137   2.250   1.933 -0.6587 -0.1458  0.3813
13275TIP3    H261317   0.216   2.185   2.045  0.8975  0.1917 -0.4847
13276TIP3   OH261318   6.569   0.395   1.429 -0.1785 -0.2449  0.1663
13276TIP3    H161319   6.525   0.388   1.514  2.4585 -0.8441  1.5848
13276TIP3    H261320   6.616   0.313   1.419  1.6131  0.8162 -0.6480
13277TIP3   OH261321   2.303   1.199  14.016 -0.7812 -0.0454  0.1457
13277TIP3    H161322   2.296   1.110  14.051  1.6759 -0.4931 -0.2950
13277TIP3    H261323   2.306   1.255  14.093 -0.9132 -0.4914  0.4757
13278TIP3   OH261324   2.638   5.715  12.692  0.5211 -0.3495  0.1964
13278TIP3    H161325   2.563   5.760  12.730  1.8339  2.1505  0.0526
13278TIP3    H261326   2.664   5.650  12.757  2.0501  3.0507  3.3111
13279TIP3   OH261327   0.722   5.402  13.425  0.4305  0.0113 -0.1372
13279TIP3    H161328   0.692   5.311  13.419 -0.4702  0.1775  1.3064
13279TIP3    H261329   0.787   5.402  13.495  0.6298  0.4374 -0.3162
13280TIP3   OH261330   5.992   3.850  11.764 -0.1449 -0.0703  0.5197
13280TIP3    H161331   6.044   3.788  11.815 -0.3806  0.1589  1.0486
13280TIP3    H261332   6.055   3.896  11.709 -0.0774 -1.4518 -0.6134
13281TIP3   OH261333   1.574   0.466  16.510  0.2579 -0.0604 -0.4375
13281TIP3    H161334   1.530   0.401  16.565  2.2469 -1.6630 -0.6058
13281TIP3    H261335   1.528   0.462  16.426 -0.6832 -0.0534  0.0748
13282TIP3   OH261336   6.459   1.524   2.547 -0.2945 -0.1492 -0.2951
13282TIP3    H161337   6.421   1.448   2.502 -1.2573  0.8136 -1.1497
13282TIP3    H261338   6.485   1.583   2.477 -0.2258  0.6450  0.3853
13283TIP3   OH261339   5.653   0.310  12.505 -0.8836 -0.2693  0.5219
13283TIP3    H161340   5.690   0.397  12.513 -0.7269 -0.4068  1.3413
13283TIP3    H261341   5.659   0.290  12.411  1.9608 -0.6565  0.6899
13284TIP3   OH261342   2.018   2.284  17.318  0.0536  0.0230 -0.6620
13284TIP3    H161343   2.102   2.243  17.300  0.4674  1.1606 -1.3949
13284TIP3    H261344   1.993   2.249  17.404  1.4534 -0.0397 -0.2481
13285TIP3   OH261345   4.465   4.470   0.682  0.1905  0.2810  0.2404
13285TIP3    H161346   4.554   4.435   0.672 -0.5640 -1.1535 -2.3212
13285TIP3    H261347   4.410   4.412   0.630 -2.0825  1.8726  0.7160
13286TIP3   OH261348   1.626   6.531  14.365 -0.1106 -0.2628 -0.2195
13286TIP3    H161349   1.658   6.520  14.276 -1.4084 -1.6245 -0.5724
13286TIP3    H261350   1.531   6.545  14.355 -0.3226 -0.7110  0.9441
13287TIP3   OH261351   3.248   4.212  12.522  0.3974 -0.3897 -0.0117
13287TIP3    H161352   3.186   4.230  12.451 -2.0147 -2.4920  1.3789
13287TIP3    H261353   3.203   4.241  12.601  1.3135 -1.6927  1.0220
13288TIP3   OH261354   6.409   1.027   3.327  0.5857 -0.6083 -0.6593
13288TIP3    H161355   6.333   0.988   3.283  0.2611 -0.9855  0.2210
13288TIP3    H261356   6.461   1.064   3.255  0.2966 -1.6034 -1.4100
13289TIP3   OH261357   4.619   5.436  16.705 -0.0693 -0.0962  0.7338
13289TIP3    H161358   4.601   5.365  16.766 -0.2315 -0.7177 -0.0232
13289TIP3    H261359   4.705   5.415  16.668 -1.4352 -1.7036 -1.8805
13290TIP3   OH261360   0.978   3.478   5.413  0.3603  0.0810 -0.2675
13290TIP3    H161361   0.899   3.443   5.373  0.0593 -0.0407  0.4122
13290TIP3    H261362   1.024   3.523   5.342 -1.8961  2.9741 -0.1043
13291TIP3   OH261363   3.372   0.082   3.592  0.1374 -0.4632 -0.6945
13291TIP3    H161364   3.388   0.051   3.682 -1.0253 -0.7086 -0.5580
13291TIP3    H261365   3.314   0.157   3.603 -0.5726 -0.9122 -1.2660
13292TIP3   OH261366   1.156   0.180  12.580 -0.1008 -0.3840  0.4527
13292TIP3    H161367   1.245   0.155  12.554  0.2482  0.5257  0.7492
13292TIP3    H261368   1.121   0.226  12.504  0.4417  1.1002  1.0784
13293TIP3   OH261369   2.860   2.095  14.662 -0.0642  0.3945 -0.2353
13293TIP3    H161370   2.937   2.141  14.628 -0.0166 -0.0928 -0.8040
13293TIP3    H261371   2.852   2.126  14.752 -0.0265  1.5091 -0.5915
13294TIP3   OH261372   6.643   5.379  13.419 -0.2226 -0.0246 -0.2312
13294TIP3    H161373   6.737   5.384  13.399  0.4323 -2.4385  1.7146
13294TIP3    H261374   6.605   5.330  13.346  0.1305  0.4393 -0.7329
13295TIP3   OH261375   2.148   5.707  17.075 -0.0527  0.4124  0.7226
13295TIP3    H161376   2.088   5.632  17.079 -0.9060  1.0805  0.7712
13295TIP3    H261377   2.192   5.706  17.160  0.0303 -0.1074  0.6770
13296TIP3   OH261378   6.220   3.162  12.611  0.1681  0.0983  0.1961
13296TIP3    H161379   6.264   3.102  12.670  0.7123 -0.0322 -0.3362
13296TIP3    H261380   6.135   3.177  12.652  0.5069 -0.0492  0.9657
13297TIP3   OH261381   2.031   6.326   4.766 -0.3409 -0.2871  0.0123
13297TIP3    H161382   1.976   6.257   4.728  2.0246 -1.9359 -0.7124
13297TIP3    H261383   2.054   6.382   4.692  0.4043 -0.7016 -0.0853
13298TIP3   OH261384   1.753   5.788   4.408 -0.0231 -0.1917  0.3625
13298TIP3    H161385   1.752   5.771   4.503  2.0006 -2.2966  0.0956
13298TIP3    H261386   1.684   5.733   4.373  0.4763 -0.9068  0.4637
13299TIP3   OH261387   0.287   3.385   6.383 -0.0391  0.3039 -0.0446
13299TIP3    H161388   0.287   3.399   6.288 -0.5196  0.8264  0.0239
13299TIP3    H261389   0.370   3.340   6.401 -1.2602 -2.5528 -1.0862
13300TIP3   OH261390   6.653   4.478  16.648 -0.0443 -0.1423 -0.3746
13300TIP3    H161391   6.562   4.480  16.678 -1.0489 -0.2708 -3.1215
13300TIP3    H261392   6.668   4.387  16.623  0.5413  0.0531 -0.7496
13301TIP3   OH261393   2.374   3.138  16.179  0.0241  0.3608  0.0481
13301TIP3    H161394   2.466   3.130  16.207  0.0401  0.4596  0.0228
13301TIP3    H261395   2.361   3.232  16.167  0.0689  0.3008 -0.4624
13302TIP3   OH261396   0.701   0.971  16.679 -0.6413  0.2462  0.7560
13302TIP3    H161397   0.794   0.949  16.679 -0.9067 -0.9531  0.8484
13302TIP3    H261398   0.697   1.062  16.708  0.6416  1.0458 -1.3710
13303TIP3   OH261399   0.062   1.995  12.419 -0.0832  0.6439 -0.4587
13303TIP3    H161400   0.089   2.047  12.343  1.7003  0.6512  0.1265
13303TIP3    H261401   0.093   2.045  12.494  1.3538 -1.0372  0.1405
13304TIP3   OH261402   1.763   2.596  15.293  0.0485  0.4270 -0.4839
13304TIP3    H161403   1.762   2.567  15.385 -1.8140 -0.9630 -0.8832
13304TIP3    H261404   1.756   2.691  15.298  2.1910  0.5682  0.8263
13305TIP3   OH261405   0.673   3.036  12.113  0.3457 -0.2812 -0.2028
13305TIP3    H161406   0.588   3.055  12.073  0.9382  0.8318 -0.9946
13305TIP3    H261407   0.693   3.114  12.164  1.0350 -0.4088 -0.2769
13306TIP3   OH261408   3.082   1.951   1.460  0.2211  0.7199 -0.2847
13306TIP3    H161409   3.168   1.991   1.476  1.2544 -1.7633  0.9663
13306TIP3    H261410   3.024   2.025   1.442  2.1482  2.6636  0.9960
13307TIP3   OH261411   0.502   3.098   1.341 -0.6648 -0.5424 -0.1107
13307TIP3    H161412   0.512   3.052   1.258 -0.9982  0.9660 -1.0307
13307TIP3    H261413   0.407   3.099   1.357 -0.7264  0.3728 -0.4542
13308TIP3   OH261414   3.544   2.255  15.379  0.2249  0.2139 -0.0156
13308TIP3    H161415   3.494   2.240  15.298  0.5635 -0.1795 -0.1578
13308TIP3    H261416   3.632   2.280  15.348  0.0767  1.0629  0.2322
13309TIP3   OH261417   1.497   1.232  16.405  0.5068  0.0552  0.7007
13309TIP3    H161418   1.453   1.190  16.331 -0.7614 -0.2834  1.6120
13309TIP3    H261419   1.432   1.231  16.475  2.2394 -1.1955  2.3936
13310TIP3   OH261420   3.433   4.465   5.979  0.5180  0.4795 -0.1064
13310TIP3    H161421   3.460   4.374   5.981  0.8971  0.6094  1.4220
13310TIP3    H261422   3.483   4.503   5.906  1.1285 -0.3027 -0.1022
13311TIP3   OH261423   0.043   5.196  12.193 -0.7869 -0.4067  0.1368
13311TIP3    H161424   0.023   5.253  12.118 -0.5691 -0.2098  0.2294
13311TIP3    H261425  -0.043   5.166  12.223 -0.8419 -1.0277 -0.6119
13312TIP3   OH261426   6.647   5.699   3.980  0.5047 -0.0995 -0.5917
13312TIP3    H161427   6.737   5.677   3.956 -0.1021 -1.3201 -1.9089
13312TIP3    H261428   6.649   5.793   3.998  2.0002 -0.0763 -0.7874
13313TIP3   OH261429   3.792   1.003  12.600  0.1006 -0.4110  0.3855
13313TIP3    H161430   3.838   1.054  12.533  0.1428 -1.3155 -0.2845
13313TIP3    H261431   3.852   1.002  12.674  0.2534  0.2023  0.2804
13314TIP3   OH261432   2.137   3.573  13.356  0.2831 -0.0760 -0.4366
13314TIP3    H161433   2.216   3.519  13.359 -0.6674 -1.6184 -1.7842
13314TIP3    H261434   2.116   3.580  13.263 -1.9152 -0.8957 -0.0659
13315TIP3   OH261435   2.376   5.133  10.906 -0.4012  0.3628 -0.8565
13315TIP3    H161436   2.397   5.103  10.817 -1.9338 -1.6865 -0.6076
13315TIP3    H261437   2.321   5.210  10.893 -0.2307  0.3608 -1.6553
13316TIP3   OH261438   1.527   2.328  10.695 -0.2801  0.4701 -1.1007
13316TIP3    H161439   1.589   2.299  10.628  0.2864  0.5301 -0.6146
13316TIP3    H261440   1.582   2.354  10.769 -0.8905  0.4939 -0.6436
13317TIP3   OH261441   4.372   0.511   3.022 -0.2668  0.2575  0.2472
13317TIP3    H161442   4.348   0.537   3.111  0.8308  0.2556  0.5583
13317TIP3    H261443   4.468   0.513   3.022 -0.2555 -0.0036 -0.8590
13318TIP3   OH261444   3.096   3.634   3.824  0.6030 -0.6291 -0.5625
13318TIP3    H161445   3.099   3.638   3.729  1.2912  0.3691 -0.5178
13318TIP3    H261446   3.062   3.720   3.850  1.9214 -0.2887  0.1297
13319TIP3   OH261447   3.135   2.482  14.884 -0.2155  0.2374 -0.2356
13319TIP3    H161448   3.112   2.555  14.942  0.9397  0.4293  0.0047
13319TIP3    H261449   3.088   2.500  14.803 -1.4119  0.2656  0.4380
13320TIP3   OH261450   1.333   6.487   2.879  0.2168 -0.2163  0.1455
13320TIP3    H161451   1.378   6.490   2.964 -1.4021  0.4734  1.0174
13320TIP3    H261452   1.401   6.461   2.817  2.0405  1.6829  1.2304
13321TIP3   OH261453   5.351   5.061   1.173  0.5904 -0.1797  0.1735
13321TIP3    H161454   5.443   5.039   1.155  0.5104 -0.7916  0.4842
13321TIP3    H261455   5.302   4.983   1.148  0.1732  0.0767  0.1811
13322TIP3   OH261456   5.864   2.918   2.148  0.4948 -0.2283 -0.1692
13322TIP3    H161457   5.787   2.971   2.126  0.0901 -0.3721  0.8517
13322TIP3    H261458   5.923   2.928   2.073  0.3719  1.5615 -0.0627
13323TIP3   OH261459   4.012   2.687   1.928 -0.1343  0.3744  0.1454
13323TIP3    H161460   3.946   2.750   1.900 -0.8972 -0.4462  0.0744
13323TIP3    H261461   3.965   2.627   1.987  0.4054 -0.5507 -0.3460
13324TIP3   OH261462   6.113   1.060   4.610  0.4485  0.3754 -0.1341
13324TIP3    H161463   6.177   1.094   4.548  1.8409  0.1035  1.1132
13324TIP3    H261464   6.162   1.002   4.668 -1.1067 -0.5941  0.2917
13325TIP3   OH261465   0.379   5.188   1.853  0.3224  0.2895  0.3072
13325TIP3    H161466   0.394   5.167   1.945  1.8015  2.2023  0.5613
13325TIP3    H261467   0.454   5.151   1.807  0.9020  1.4827  0.2481
13326TIP3   OH261468   4.951   1.811  15.072 -0.0668 -0.1690 -0.6864
13326TIP3    H161469   4.935   1.891  15.022 -2.4420  1.5959  2.5510
13326TIP3    H261470   4.997   1.840  15.150  0.7793 -2.3314 -0.2959
13327TIP3   OH261471   5.954   2.065  13.106 -0.0300  0.0102 -0.3350
13327TIP3    H161472   6.027   2.100  13.055 -0.2177 -0.5819 -1.0170
13327TIP3    H261473   5.991   2.052  13.194  0.4792  0.4105 -0.4846
13328TIP3   OH261474   3.288   0.456   1.985  0.3103  0.4107  0.1163
13328TIP3    H161475   3.253   0.367   1.988  0.6189  0.2572 -0.4882
13328TIP3    H261476   3.258   0.491   1.900  1.2468  0.4238 -0.2220
13329TIP3   OH261477   6.496   1.197   6.224  0.3603  0.4535 -0.3933
13329TIP3    H161478   6.557   1.263   6.257 -0.0706  0.1012  1.1886
13329TIP3    H261479   6.433   1.184   6.295 -0.2760 -0.7835 -1.1381
13330TIP3   OH261480   2.088   0.526  13.954  0.2634 -0.4474 -0.0202
13330TIP3    H161481   2.162   0.472  13.924 -0.9985 -1.0293 -2.3001
13330TIP3    H261482   2.113   0.615  13.931 -0.0204 -0.7229 -1.4933
13331TIP3   OH261483   6.185   2.386  16.508 -0.1108  0.4454 -0.2055
13331TIP3    H161484   6.106   2.371  16.559  0.5671  0.0985  0.7719
13331TIP3    H261485   6.199   2.480  16.512  0.4571  0.3325  1.0898
13332TIP3   OH261486   2.323   1.723   1.775 -0.5119 -0.0648  0.5345
13332TIP3    H161487   2.280   1.784   1.715 -0.9793 -0.7128  0.1995
13332TIP3    H261488   2.416   1.747   1.771 -0.9756  2.5668  2.6490
13333TIP3   OH261489   6.159   2.440   0.224  0.0708  0.5149  0.1049
13333TIP3    H161490   6.196   2.526   0.202  0.7922  0.5592  1.4147
13333TIP3    H261491   6.084   2.460   0.281  1.6489  0.2664  2.4149
13334TIP3   OH261492   0.968   3.474   2.627  0.1315  0.0453 -0.3187
13334TIP3    H161493   1.000   3.559   2.656  2.5284 -0.3673 -1.4954
13334TIP3    H261494   0.878   3.469   2.660  0.9895  1.6514  2.6197
13335TIP3   OH261495   0.302   5.423  14.811  0.5356  0.0588  0.1577
13335TIP3    H161496   0.219   5.454  14.775  0.2646 -2.0510 -1.2155
13335TIP3    H261497   0.302   5.454  14.902 -1.5194  0.5231  0.0457
13336TIP3   OH261498   2.580   2.974  14.796  0.3935 -0.0254 -0.0538
13336TIP3    H161499   2.551   3.064  14.784  2.6971  0.6484 -1.3281
13336TIP3    H261500   2.513   2.920  14.755 -0.1021  1.2475 -0.9556
13337TIP3   OH261501   2.684   5.533   5.662 -0.2574  0.0409 -0.1304
13337TIP3    H161502   2.683   5.438   5.653 -1.6940 -0.1265  1.3543
13337TIP3    H261503   2.714   5.549   5.751  1.1944  1.0645 -0.7573
13338TIP3   OH261504   3.817   2.741   2.377  0.6836 -0.3119 -0.0338
13338TIP3    H161505   3.816   2.817   2.436 -2.0399  0.3790 -0.8007
13338TIP3    H261506   3.727   2.708   2.381  1.4701 -2.6780 -0.8061
13339TIP3   OH261507   4.814   0.829   2.914  0.1498  0.0218 -0.0653
13339TIP3    H161508   4.856   0.841   2.829 -1.0971  0.5220 -0.6282
13339TIP3    H261509   4.837   0.908   2.963 -1.0278  0.8150 -0.7634
13340TIP3   OH261510   1.416   3.416   4.739  0.1065  0.0498 -0.6439
13340TIP3    H161511   1.491   3.476   4.744 -0.5374  0.8403 -0.2317
13340TIP3    H261512   1.423   3.376   4.653  1.0311  0.0795 -0.5908
13341TIP3   OH261513   1.777   4.163  11.724  0.3872  0.5476  0.0313
13341TIP3    H161514   1.731   4.079  11.720  0.1515  0.7179 -1.5878
13341TIP3    H261515   1.722   4.223  11.675 -0.5767  2.2875  2.9797
13342TIP3   OH261516   1.966   4.057   4.202  0.0366 -0.3812  0.4460
13342TIP3    H161517   1.989   4.149   4.196  1.6109 -0.8330 -1.6829
13342TIP3    H261518   1.871   4.056   4.213 -0.2694  1.4866 -1.4037
13343TIP3   OH261519   1.993   4.981   2.159  0.0336 -0.8883  0.0683
13343TIP3    H161520   2.011   4.994   2.066 -1.1417 -0.3751 -0.0999
13343TIP3    H261521   1.898   4.987   2.167  0.2177  1.0971  1.5872
13344TIP3   OH261522   6.782   3.127  11.617  0.2285 -0.0957  0.1854
13344TIP3    H161523   6.822   3.124  11.704  0.0852 -0.7387  0.2308
13344TIP3    H261524   6.791   3.038  11.583  2.3654  0.6332 -1.4108
13345TIP3   OH261525   0.852   0.649   3.923  0.3222  0.4681 -0.0137
13345TIP3    H161526   0.932   0.689   3.956  1.0278  0.7297 -1.8956
13345TIP3    H261527   0.870   0.555   3.922  0.2503  0.4491  0.4432
13346TIP3   OH261528   0.807   6.410   1.943  0.3994 -0.2243  0.1747
13346TIP3    H161529   0.716   6.440   1.954  0.0842 -1.0798 -0.0107
13346TIP3    H261530   0.799   6.316   1.929  1.3125 -0.2775 -0.0177
13347TIP3   OH261531   2.077   3.299   0.169 -0.3266  0.0722 -0.2552
13347TIP3    H161532   2.098   3.306   0.076 -1.3286 -1.4036 -0.6371
13347TIP3    H261533   2.159   3.271   0.209 -0.4152 -1.4888 -1.0716
13348TIP3   OH261534   1.569   3.142  12.452 -0.1096  0.2458 -0.1034
13348TIP3    H161535   1.620   3.063  12.471  1.2571  0.5775 -2.1207
13348TIP3    H261536   1.492   3.110  12.404  0.4003  0.0980 -0.8417
13349TIP3   OH261537   2.394   2.701   0.176 -0.1242  0.7509  0.1417
13349TIP3    H161538   2.473   2.751   0.196  0.4567 -0.1533  0.1527
13349TIP3    H261539   2.396   2.627   0.237 -1.2028  0.9446  0.4302
13350TIP3   OH261540   5.160   2.269   2.227 -0.8376 -0.4968 -0.0039
13350TIP3    H161541   5.170   2.361   2.204  0.8236 -0.6311  0.0622
13350TIP3    H261542   5.143   2.269   2.321 -0.2958 -0.2774  0.0963
13351TIP3   OH261543   0.017   3.990   2.403  0.2952  0.5732 -0.2115
13351TIP3    H161544   0.019   3.939   2.483 -1.0268 -0.8280 -1.0245
13351TIP3    H261545   0.102   3.974   2.362  0.6715  0.6740  0.5209
13352TIP3   OH261546   4.273   5.603  11.607 -0.8906 -0.2769  0.0460
13352TIP3    H161547   4.269   5.512  11.636 -2.8398 -0.3116 -0.1704
13352TIP3    H261548   4.339   5.604  11.538 -0.3434 -1.3697  0.5334
13353TIP3   OH261549   5.767   0.798   5.324  0.1709  0.2781 -0.0711
13353TIP3    H161550   5.774   0.817   5.417 -1.0618  1.1161 -0.1299
13353TIP3    H261551   5.822   0.863   5.282  1.2511 -0.5017  0.0765
13354TIP3   OH261552   6.770   4.894   1.638  0.6265  0.3572  0.3457
13354TIP3    H161553   6.766   4.855   1.725  0.2094 -3.0681 -1.0391
13354TIP3    H261554   6.681   4.884   1.604  1.4640 -1.3387 -1.5451
13355TIP3   OH261555   6.294   0.526   3.121  0.0909  0.3063 -0.0518
13355TIP3    H161556   6.359   0.472   3.075 -0.5812  0.4222 -1.1656
13355TIP3    H261557   6.210   0.494   3.090 -0.3315  2.2465 -1.0995
13356TIP3   OH261558   3.118   6.036  13.750 -0.5446 -0.0804  0.3046
13356TIP3    H161559   3.112   5.980  13.673 -0.3538 -1.2690  1.1271
13356TIP3    H261560   3.211   6.054  13.759 -0.4639 -0.7179  0.7869
13357TIP3   OH261561   6.263   2.656  16.492 -0.2429  0.4026  0.2471
13357TIP3    H161562   6.285   2.669  16.584  0.1844 -0.2935  0.2558
13357TIP3    H261563   6.314   2.722  16.445  0.1664  0.2378  0.4520
13358TIP3   OH261564   6.101   3.138  17.273 -0.0532  0.1228 -0.5068
13358TIP3    H161565   6.173   3.196  17.297  0.1277  0.5000 -1.8723
13358TIP3    H261566   6.049   3.129  17.353  0.5319  1.2732  0.0185
13359TIP3   OH261567   4.480   2.409   2.488  0.0669 -0.2610  0.6669
13359TIP3    H161568   4.570   2.438   2.501  0.3438 -1.0172  0.5280
13359TIP3    H261569   4.476   2.385   2.396 -0.3686  0.0727  0.5993
13360TIP3   OH261570   4.233   3.168  14.191  0.1673  0.1432  0.1210
13360TIP3    H161571   4.156   3.185  14.246  1.2541 -1.0981  2.1213
13360TIP3    H261572   4.296   3.235  14.215 -0.4031  1.5253 -1.9414
13361TIP3   OH261573   3.372   2.258   4.241 -0.0696 -0.7010  0.3847
13361TIP3    H161574   3.443   2.204   4.204 -0.0592  0.7213 -1.8647
13361TIP3    H261575   3.297   2.242   4.183 -0.5498  0.4280  0.6667
13362TIP3   OH261576   2.882   3.728  14.342  0.5789  0.3696 -0.1790
13362TIP3    H161577   2.905   3.670  14.270 -0.0005 -0.1804  0.0729
13362TIP3    H261578   2.924   3.811  14.320 -0.1598  0.4277 -1.5068
13363TIP3   OH261579   5.222   0.701  11.322  0.3139 -0.7127 -0.0947
13363TIP3    H161580   5.290   0.682  11.257  0.7476 -0.0928  0.1614
13363TIP3    H261581   5.271   0.731  11.399 -0.2714  1.5775 -0.5274
13364TIP3   OH261582   2.346   6.471   3.339 -1.0395  0.2546 -0.4782
13364TIP3    H161583   2.411   6.528   3.298  0.0057 -0.8126 -0.3548
13364TIP3    H261584   2.325   6.407   3.271  2.0718 -2.6757  1.0122
13365TIP3   OH261585   1.982   2.272   1.892 -0.1248 -0.4955 -0.1948
13365TIP3    H161586   1.940   2.204   1.945  0.5980 -0.2180  0.7535
13365TIP3    H261587   2.074   2.247   1.889  0.4029  1.1220  1.2834
13366TIP3   OH261588   5.915   1.938   0.909 -0.0336  0.4544  0.4579
13366TIP3    H161589   5.886   1.994   0.838  3.4495  0.2205 -1.3427
13366TIP3    H261590   5.920   1.996   0.985 -1.8764  1.1680  0.0820
13367TIP3   OH261591   6.786   1.908   6.210 -0.0291 -0.3137  0.1676
13367TIP3    H161592   6.879   1.919   6.233 -0.0586  0.3871 -0.0492
13367TIP3    H261593   6.747   1.870   6.289  0.4410 -0.6360  0.2535
13368TIP3   OH261594   1.315   3.081  12.838 -0.3579  0.0238 -0.2497
13368TIP3    H161595   1.230   3.073  12.880 -0.6409  0.2017 -0.7687
13368TIP3    H261596   1.358   3.153  12.884 -0.8413  0.5148 -0.5413
13369TIP3   OH261597   6.650   5.637  16.234  0.1445  0.2907  0.4508
13369TIP3    H161598   6.729   5.584  16.241  1.3968  2.2442  1.8345
13369TIP3    H261599   6.597   5.611  16.309  0.0973  0.0021  0.3212
13370TIP3   OH261600   5.022   6.798   5.975  0.1482 -0.2020 -0.1961
13370TIP3    H161601   5.058   6.768   6.058 -1.7499  1.1508  1.2147
13370TIP3    H261602   5.007   6.717   5.925  2.7646 -0.9320  0.0820
13371TIP3   OH261603   6.453   3.294   4.747  0.2507  0.9579 -0.1558
13371TIP3    H161604   6.476   3.339   4.666  2.1711 -1.6235 -1.2001
13371TIP3    H261605   6.532   3.299   4.801  1.6131 -3.0401 -1.3692
13372TIP3   OH261606   0.776   5.846   2.404 -0.0906  0.3616  0.0762
13372TIP3    H161607   0.684   5.845   2.430 -0.6908  1.7034 -1.8004
13372TIP3    H261608   0.824   5.875   2.482 -1.2024 -0.5505  1.1302
13373TIP3   OH261609   1.577   3.516  14.283  0.2961 -0.0453  0.5883
13373TIP3    H161610   1.514   3.447  14.303  0.4104 -0.2911  0.1256
13373TIP3    H261611   1.662   3.473  14.287  0.3198 -0.1172 -0.4250
13374TIP3   OH261612   3.761   5.406  13.512 -0.0576  0.0560 -0.1903
13374TIP3    H161613   3.828   5.474  13.522  0.9482 -0.9123 -0.0324
13374TIP3    H261614   3.764   5.358  13.595 -0.2990 -0.5537 -0.5240
13375TIP3   OH261615   1.893   3.426  15.167 -0.8963  0.2241 -0.0420
13375TIP3    H161616   1.918   3.334  15.175 -2.3881 -0.4229 -2.0741
13375TIP3    H261617   1.977   3.473  15.163 -0.1046 -1.0978  0.3654
13376TIP3   OH261618   2.401   4.560   0.496 -0.3410  0.1141  0.4417
13376TIP3    H161619   2.400   4.598   0.584 -1.2211 -0.4230  0.6762
13376TIP3    H261620   2.364   4.472   0.507  0.6872 -0.4305 -0.2672
13377TIP3   OH261621   3.446   1.852   0.839  0.1785 -0.2773 -0.3789
13377TIP3    H161622   3.370   1.894   0.878  0.8912  0.0231  0.7560
13377TIP3    H261623   3.515   1.863   0.904  1.7190  1.1244 -2.1239
13378TIP3   OH261624   5.992   4.268  14.194  0.3881  0.2957  0.5319
13378TIP3    H161625   6.061   4.284  14.130  1.7961  0.8339  2.1087
13378TIP3    H261626   5.993   4.346  14.250 -0.5146 -0.3231  1.4451
13379TIP3   OH261627   3.719   0.635  11.438 -0.0885  0.3239 -0.4591
13379TIP3    H161628   3.772   0.562  11.469  0.2758  0.5281 -0.5989
13379TIP3    H261629   3.643   0.593  11.397 -0.0729  0.0338 -0.2001
13380TIP3   OH261630   3.546   0.135   2.203 -0.4712 -0.3741  0.0136
13380TIP3    H161631   3.616   0.074   2.225 -0.3586 -0.3062 -0.1575
13380TIP3    H261632   3.465   0.084   2.214 -0.3690 -0.5983 -0.2833
13381TIP3   OH261633   1.715   4.627   3.840 -0.2256  0.5363  0.1137
13381TIP3    H161634   1.655   4.677   3.785  0.5745  1.7994  0.3474
13381TIP3    H261635   1.730   4.546   3.792 -0.2823  1.2076 -1.0646
13382TIP3   OH261636   0.297   3.884  10.704  0.5841 -0.4517 -0.3760
13382TIP3    H161637   0.231   3.900  10.771  0.3347 -1.6873 -0.2859
13382TIP3    H261638   0.260   3.921  10.624 -0.0341 -0.7333 -0.2289
13383TIP3   OH261639   3.075   0.228   0.285  0.9994 -0.0345  0.4915
13383TIP3    H161640   3.170   0.231   0.275  0.8815  0.6254 -0.5068
13383TIP3    H261641   3.053   0.306   0.335  0.7311  1.4139 -1.7299
13384TIP3   OH261642   3.693   4.645  13.427 -0.1891  0.1207 -0.3570
13384TIP3    H161643   3.723   4.564  13.385 -1.2444 -0.5627  0.1414
13384TIP3    H261644   3.606   4.623  13.460  0.2089  0.9390  1.3318
13385TIP3   OH261645   2.008   5.011   0.630  0.5584 -0.5408 -0.5499
13385TIP3    H161646   1.978   4.947   0.565  0.6222 -0.4074 -0.7101
13385TIP3    H261647   1.985   5.096   0.592 -1.1451 -0.4988  0.4267
13386TIP3   OH261648   2.396   0.783  11.528 -0.0419  0.3718  0.4438
13386TIP3    H161649   2.482   0.740  11.527 -0.3706 -0.4735 -2.8685
13386TIP3    H261650   2.414   0.874  11.508  0.2157  0.8143  2.4259
13387TIP3   OH261651   1.970   0.059  14.620  0.1368 -0.0557 -0.2102
13387TIP3    H161652   1.956   0.030  14.529 -2.1928  0.7895 -0.1919
13387TIP3    H261653   1.982  -0.022  14.669 -0.3884 -0.6516 -1.0200
13388TIP3   OH261654   2.622   1.224   0.856  0.4952 -0.3922  0.1165
13388TIP3    H161655   2.642   1.307   0.813  1.4116 -0.7530 -0.1803
13388TIP3    H261656   2.530   1.207   0.835  0.7868 -0.3057 -1.2801
13389TIP3   OH261657   5.072   1.989   3.375  0.4092  0.0293  0.0094
13389TIP3    H161658   5.009   1.984   3.447  0.2820 -1.4919 -0.1745
13389TIP3    H261659   5.020   1.969   3.297  1.0514 -1.0318 -0.1643
13390TIP3   OH261660   6.252   6.080   5.701 -0.2654 -0.1613  0.8555
13390TIP3    H161661   6.306   6.158   5.692 -0.8914  0.2533  0.6325
13390TIP3    H261662   6.191   6.101   5.772  0.1066 -0.7724  1.3662
13391TIP3   OH261663   4.351   1.429  12.061 -0.2004 -0.1535 -0.2848
13391TIP3    H161664   4.411   1.404  12.131 -0.5141 -0.9265 -0.2831
13391TIP3    H261665   4.383   1.380  11.984 -1.0999 -0.9485 -0.1682
13392TIP3   OH261666   2.435   3.910   0.955 -0.5222  0.2803  0.4273
13392TIP3    H161667   2.488   3.911   0.876 -0.0463 -0.2871  0.7275
13392TIP3    H261668   2.443   3.998   0.991 -1.9578  1.0131 -0.9238
13393TIP3   OH261669   3.646   0.769   5.088  0.0314  0.3432 -0.3706
13393TIP3    H161670   3.718   0.709   5.065  0.3768  0.3183  0.7482
13393TIP3    H261671   3.660   0.789   5.180 -0.8515  1.1120 -0.3957
13394TIP3   OH261672   5.739   3.084  14.953 -0.3367 -0.4862  0.0600
13394TIP3    H161673   5.796   3.083  14.876 -1.9998  1.4688 -1.2855
13394TIP3    H261674   5.745   3.173  14.986  0.5539 -1.3407  2.4444
13395TIP3   OH261675   4.114   5.127  12.497  0.0605 -0.4748 -0.2836
13395TIP3    H161676   4.189   5.129  12.555  0.8528  0.7252 -1.2996
13395TIP3    H261677   4.056   5.197  12.529  1.7637  2.1578 -2.4291
13396TIP3   OH261678   1.948   4.578   6.617 -0.0905 -0.5606  0.3761
13396TIP3    H161679   1.875   4.567   6.556  2.1568  1.1443 -2.8762
13396TIP3    H261680   2.007   4.505   6.599 -0.1240 -0.9857  1.8041
13397TIP3   OH261681   5.688   2.507   5.496  0.3459  0.0915  0.5396
13397TIP3    H161682   5.619   2.512   5.430  0.2593 -0.5951  0.5707
13397TIP3    H261683   5.732   2.424   5.478  0.8565  0.2963  0.8253
13398TIP3   OH261684   4.641   0.282  12.176 -0.4124  0.0789  0.0302
13398TIP3    H161685   4.700   0.292  12.102 -2.9588  1.3105 -1.9787
13398TIP3    H261686   4.670   0.201  12.218  0.5797 -1.2025 -2.8663
13399TIP3   OH261687   0.836   5.597   4.103 -0.0518  0.0520  1.0381
13399TIP3    H161688   0.821   5.519   4.156  0.0626 -0.7323 -0.0590
13399TIP3    H261689   0.930   5.612   4.108  0.0088 -0.2374  0.7560
13400TIP3   OH261690   3.535   0.679  12.120 -0.3979 -0.4644 -0.2146
13400TIP3    H161691   3.546   0.737  12.196 -0.8677 -0.7101  0.0418
13400TIP3    H261692   3.503   0.737  12.051 -0.7272 -0.3854  0.0006
13401TIP3   OH261693   2.908   4.792   3.099 -0.0082 -0.1195  0.2929
13401TIP3    H161694   2.877   4.770   3.011  1.8699  0.5722 -0.5818
13401TIP3    H261695   2.869   4.877   3.118 -0.7111 -0.4356  0.2968
13402TIP3   OH261696   3.089   2.305   3.355  0.4037  0.1435 -0.1664
13402TIP3    H161697   3.131   2.252   3.424 -0.3246  0.7270  0.7535
13402TIP3    H261698   3.154   2.370   3.332  1.2568 -1.0327 -1.2008
13403TIP3   OH261699   5.903   1.137   2.306 -0.4961  0.2707 -0.1610
13403TIP3    H161700   5.831   1.083   2.275  0.0296 -0.1098 -0.7718
13403TIP3    H261701   5.981   1.085   2.287  0.0641  1.4244 -1.2089
13404TIP3   OH261702   0.988   5.505   0.861 -0.4636 -0.7578 -0.1110
13404TIP3    H161703   1.042   5.485   0.785  0.1519 -0.2182  0.1803
13404TIP3    H261704   1.019   5.447   0.930 -0.5790 -0.7842 -0.0796
13405TIP3   OH261705   2.080   2.783  16.090  0.1848  0.1167 -0.2567
13405TIP3    H161706   2.089   2.838  16.168 -0.2428  0.2201 -0.2751
13405TIP3    H261707   2.166   2.743  16.078  0.2329  0.0444  0.3119
13406TIP3   OH261708   2.274   0.181  12.193  0.0260 -0.2891 -0.7469
13406TIP3    H161709   2.254   0.087  12.194 -0.6187 -0.1496  0.3196
13406TIP3    H261710   2.351   0.190  12.249 -0.6678 -0.0331  0.1863
13407TIP3   OH261711   1.717   3.754  12.752 -0.4298  0.0881  0.0654
13407TIP3    H161712   1.687   3.845  12.761 -1.2436 -0.2128  0.5165
13407TIP3    H261713   1.739   3.745  12.660 -3.4517 -0.1453 -0.7356
13408TIP3   OH261714   3.567   6.636  12.991 -0.4116  0.3692  0.2847
13408TIP3    H161715   3.505   6.703  12.964 -0.4217  0.2615  0.0375
13408TIP3    H261716   3.640   6.645  12.929 -0.7743 -0.3862 -0.2622
13409TIP3   OH261717   3.945   3.987   2.490  0.0115 -0.3822 -0.0387
13409TIP3    H161718   3.953   4.079   2.467 -0.1599 -0.0848  1.0519
13409TIP3    H261719   4.005   3.942   2.430 -0.3161  0.3620 -0.9529
13410TIP3   OH261720   1.071   5.109   1.471  0.0782  0.3312  0.2596
13410TIP3    H161721   1.046   5.181   1.412  0.6190 -0.4124 -0.9142
13410TIP3    H261722   0.995   5.097   1.528  0.2620  2.3248  1.0007
13411TIP3   OH261723   1.194   0.303  13.619  0.3732 -0.4973 -0.4090
13411TIP3    H161724   1.146   0.384  13.638 -0.8250 -1.2339 -0.1977
13411TIP3    H261725   1.283   0.321  13.648 -0.1730  0.3085  0.8618
13412TIP3   OH261726   5.537   3.256  15.994  0.6723 -0.2180 -0.4571
13412TIP3    H161727   5.590   3.176  15.988  0.2590 -0.4750 -0.7850
13412TIP3    H261728   5.447   3.223  16.002  0.4659  0.2176 -0.9550
13413TIP3   OH261729   0.901   4.283   1.840 -0.2966  0.6239  0.1439
13413TIP3    H161730   0.850   4.217   1.792 -0.0801  0.3630  0.2700
13413TIP3    H261731   0.967   4.312   1.777  0.3839 -0.1673  0.4638
13414TIP3   OH261732   3.886   0.288  14.345  0.2119 -0.2425 -0.1150
13414TIP3    H161733   3.933   0.205  14.356  1.0832  0.4718  1.9931
13414TIP3    H261734   3.804   0.274  14.393  0.6411  0.2868  0.8086
13415TIP3   OH261735   3.783   5.450   3.179 -0.9515  0.2286  0.0014
13415TIP3    H161736   3.814   5.378   3.234 -1.2296  0.0173 -0.1139
13415TIP3    H261737   3.862   5.494   3.150 -0.7892  2.0739  2.8210
13416TIP3   OH261738   2.877   4.918  14.338  0.1317  0.3366 -0.4577
13416TIP3    H161739   2.812   4.881  14.279  1.2030 -1.1200 -0.7918
13416TIP3    H261740   2.914   4.992  14.290  0.1690 -0.1152 -1.1382
13417TIP3   OH261741   0.636   4.965  12.873  0.1705 -0.2574  0.1020
13417TIP3    H161742   0.712   4.944  12.819  0.7696 -0.3606  0.9717
13417TIP3    H261743   0.614   4.883  12.917  0.2504  0.0426  0.7053
13418TIP3   OH261744   4.570   5.859   4.646 -0.0531 -0.4703  0.7334
13418TIP3    H161745   4.489   5.830   4.606 -0.6096  0.0108  1.4839
13418TIP3    H261746   4.564   5.955   4.646  1.5007 -0.2990 -1.2122
13419TIP3   OH261747   0.406   3.497   2.919  0.3904  0.1472 -0.7870
13419TIP3    H161748   0.476   3.532   2.975 -1.8952  0.2513  2.3056
13419TIP3    H261749   0.436   3.409   2.895  0.9094 -0.5278  1.9894
13420TIP3   OH261750   1.992   1.963  11.604  0.1382  0.0596  0.2623
13420TIP3    H161751   2.066   2.017  11.576 -0.6150  0.9633  0.0045
13420TIP3    H261752   1.938   1.954  11.526 -0.3803 -0.0274  0.6304
13421TIP3   OH261753   5.910   6.212  14.522  0.0078 -0.2450  0.1060
13421TIP3    H161754   5.939   6.155  14.451 -1.3643  0.8153 -1.3605
13421TIP3    H261755   5.990   6.234  14.569  0.5680 -3.6493  1.0157
13422TIP3   OH261756   1.965   0.832  12.664 -0.5427 -0.3664  0.1235
13422TIP3    H161757   1.947   0.828  12.570 -1.0177  0.2985  0.1751
13422TIP3    H261758   2.059   0.846  12.670 -0.5479 -0.1534 -0.2589
13423TIP3   OH261759   3.827   3.563   4.993  0.1783 -0.4911  0.1489
13423TIP3    H161760   3.806   3.604   5.077 -0.5376  1.2614 -0.8273
13423TIP3    H261761   3.814   3.469   5.009 -3.2197 -0.0077  1.1832
13424TIP3   OH261762   6.017   1.249  13.501  0.0698  1.1120 -0.1563
13424TIP3    H161763   6.077   1.175  13.502 -0.2389  0.8638  0.0721
13424TIP3    H261764   6.003   1.270  13.593 -1.9810 -0.2974 -0.0778
13425TIP3   OH261765   5.459   0.265  16.783  0.1462  0.2577 -0.0609
13425TIP3    H161766   5.457   0.317  16.703 -1.0012  1.4839  0.7241
13425TIP3    H261767   5.456   0.174  16.753  0.3992  0.6695 -1.4086
13426TIP3   OH261768   6.026   2.272   4.897  0.7609  0.8567 -0.1551
13426TIP3    H161769   6.011   2.192   4.946 -1.3358  0.9152 -0.6094
13426TIP3    H261770   6.062   2.333   4.962  2.1969 -0.3426  0.2394
13427TIP3   OH261771   1.371   4.416   0.918 -0.4120 -0.2749  0.0982
13427TIP3    H161772   1.301   4.420   0.983 -0.2033  0.4584  0.2835
13427TIP3    H261773   1.401   4.325   0.921  0.5419  0.0629  2.0510
13428TIP3   OH261774   4.022   1.928   4.063  0.1057 -0.1740 -0.2446
13428TIP3    H161775   3.927   1.930   4.049  0.0991  0.3053 -0.1347
13428TIP3    H261776   4.056   1.877   3.990 -0.0734  1.0559 -1.2265
13429TIP3   OH261777   3.452   4.591   5.068  0.5081  0.3494 -0.6722
13429TIP3    H161778   3.470   4.522   5.133 -1.1009  0.5709  0.0549
13429TIP3    H261779   3.359   4.611   5.080  0.1226  0.2996 -3.1712
13430TIP3   OH261780   0.787   0.568  14.790 -0.4372  0.7392  0.1240
13430TIP3    H161781   0.792   0.655  14.751  0.2712  0.4242 -0.5140
13430TIP3    H261782   0.878   0.546  14.809 -0.5897  0.0300  0.0464
13431TIP3   OH261783   2.996   1.862   5.664  0.0724 -0.3349  0.3538
13431TIP3    H161784   2.926   1.855   5.600  0.4976 -0.6494 -0.0888
13431TIP3    H261785   2.972   1.801   5.733 -0.4461  0.0884  0.5497
13432TIP3   OH261786   5.641   0.304   5.456  0.0621  0.5075  0.7099
13432TIP3    H161787   5.705   0.373   5.472  0.9431  0.2130 -1.3002
13432TIP3    H261788   5.686   0.223   5.482 -1.3096  0.6480  4.0138
13433TIP3   OH261789   1.550   5.083  13.669  0.2317 -0.2531 -0.9108
13433TIP3    H161790   1.597   5.019  13.722  0.6750  0.9415  0.1876
13433TIP3    H261791   1.618   5.128  13.619  0.1314  0.4841 -0.4107
13434TIP3   OH261792   1.350   6.048  15.142  0.1604  0.6011  0.3325
13434TIP3    H161793   1.280   5.996  15.102  0.5187  1.3026 -1.2795
13434TIP3    H261794   1.344   6.028  15.236 -2.8513  1.4133  0.4292
13435TIP3   OH261795   0.413   1.272   1.596  0.0993  0.0715  0.1998
13435TIP3    H161796   0.363   1.192   1.582  1.3085 -0.6423 -0.2279
13435TIP3    H261797   0.349   1.343   1.590 -1.1947 -0.9137  1.6698
13436TIP3   OH261798   5.350   1.904  13.726  0.0061  0.3478  0.7808
13436TIP3    H161799   5.302   1.945  13.654  0.6641 -1.5216 -0.8235
13436TIP3    H261800   5.370   1.976  13.786 -2.4190  1.6169  0.1819
13437TIP3   OH261801   5.402   1.737   1.615  0.1267 -0.2733 -0.6453
13437TIP3    H161802   5.334   1.806   1.616  0.5665  0.1685  0.3011
13437TIP3    H261803   5.392   1.694   1.700  0.4687 -0.7744 -0.8613
13438TIP3   OH261804   0.166   6.536  13.556 -0.1274 -0.0914 -0.0785
13438TIP3    H161805   0.187   6.615  13.506 -0.1166  0.4966  0.8106
13438TIP3    H261806   0.241   6.526  13.615 -0.4170 -0.4108  0.2366
13439TIP3   OH261807   6.201   3.401   0.164 -0.4925  0.0162  0.3077
13439TIP3    H161808   6.280   3.455   0.161  0.1526 -0.6466  2.8839
13439TIP3    H261809   6.229   3.317   0.128 -0.3837  0.1561  0.0611
13440TIP3   OH261810   6.229   4.932   1.673  0.3085 -0.0962  0.3361
13440TIP3    H161811   6.192   4.846   1.655  0.7279 -0.5143  1.3882
13440TIP3    H261812   6.153   4.989   1.685  0.0283 -0.1545 -1.0469
13441TIP3   OH261813   5.532   0.262  14.621 -0.2950  0.3834 -0.2124
13441TIP3    H161814   5.605   0.253  14.683 -0.7034  3.1145  0.8083
13441TIP3    H261815   5.487   0.342  14.648 -1.3740  0.9234 -3.1875
13442TIP3   OH261816   4.482   3.923   3.401  0.9553  0.6184 -0.1847
13442TIP3    H161817   4.484   3.827   3.406  0.4069  0.6076 -0.1265
13442TIP3    H261818   4.557   3.945   3.344  1.2259  0.1745 -0.0071
13443TIP3   OH261819   5.343   6.198   4.009 -0.2418 -0.1493 -0.0582
13443TIP3    H161820   5.425   6.206   4.058 -0.7849  2.7554  0.5793
13443TIP3    H261821   5.370   6.188   3.918  0.8002 -0.7510  0.2969
13444TIP3   OH261822   1.845   0.600  11.308 -0.4394  0.1329  0.0419
13444TIP3    H161823   1.765   0.551  11.326 -0.1591  0.1089  1.3559
13444TIP3    H261824   1.841   0.674  11.369  0.6888 -0.0658  0.3752
13445TIP3   OH261825   4.682   2.578  11.423  0.0096 -0.4734 -0.1491
13445TIP3    H161826   4.644   2.580  11.510  0.9418  1.0495  0.2831
13445TIP3    H261827   4.756   2.640  11.428 -0.5137  0.4312 -2.2693
13446TIP3   OH261828   5.562   6.594   2.782  0.2387 -0.5404 -0.0817
13446TIP3    H161829   5.562   6.512   2.832  1.0544  0.6587  2.0250
13446TIP3    H261830   5.649   6.598   2.743 -0.1703 -1.1547 -1.1052
13447TIP3   OH261831   3.252   0.426   0.080 -0.0873 -0.3212 -0.0398
13447TIP3    H161832   3.211   0.500   0.124  2.6074  0.4675  1.3231
13447TIP3    H261833   3.244   0.353   0.142 -1.5420 -0.8677 -0.8205
13448TIP3   OH261834   0.071   5.864   0.516 -0.6115  0.1650 -0.2362
13448TIP3    H161835   0.071   5.899   0.605 -1.1228 -0.1921 -0.0869
13448TIP3    H261836  -0.022   5.845   0.498 -0.5095  0.2227 -0.8388
13449TIP3   OH261837   5.958   3.468   5.926  0.2441  0.5855 -0.0533
13449TIP3    H161838   6.000   3.469   6.012  1.9579  0.5429 -0.8407
13449TIP3    H261839   5.959   3.560   5.898  1.7851  0.3192 -0.9590
13450TIP3   OH261840   2.274   5.371  14.617  0.5718  0.3500 -0.9160
13450TIP3    H161841   2.311   5.442  14.670  0.7432 -0.3766 -0.0403
13450TIP3    H261842   2.349   5.315  14.597  0.4937  0.5703 -1.8788
13451TIP3   OH261843   0.803   1.192   2.765  0.3776  0.0274  0.1558
13451TIP3    H161844   0.718   1.182   2.808  0.7303  0.0638  0.8783
13451TIP3    H261845   0.834   1.278   2.793  1.1774 -0.4727  0.8662
13452TIP3   OH261846   1.032   2.547  12.625  0.1255  0.1189 -0.3378
13452TIP3    H161847   1.113   2.513  12.588 -0.5754 -0.3273 -1.5007
13452TIP3    H261848   1.055   2.572  12.715  2.6913  4.1928 -1.8702
13453TIP3   OH261849   4.172   1.305  15.624  0.3925  0.4557 -0.4861
13453TIP3    H161850   4.086   1.311  15.583  1.3220  1.3169 -2.3823
13453TIP3    H261851   4.200   1.215  15.606 -0.7846 -0.4507  1.7036
13454TIP3   OH261852   1.962   0.344  10.826 -0.5212 -0.2430  0.1523
13454TIP3    H161853   1.903   0.295  10.884 -1.3749 -0.3766 -0.7778
13454TIP3    H261854   1.947   0.436  10.849 -0.7793 -0.2996  0.2210
13455TIP3   OH261855   2.788   4.349   5.084  0.6251 -0.7503 -0.1937
13455TIP3    H161856   2.789   4.286   5.156 -1.5765 -1.2793 -0.5587
13455TIP3    H261857   2.842   4.308   5.016  0.2843 -1.6728  0.0655
13456TIP3   OH261858   2.358   0.709   0.382  0.3760  0.3448 -0.0939
13456TIP3    H161859   2.371   0.672   0.470  0.1707 -0.8115 -0.5381
13456TIP3    H261860   2.366   0.634   0.323  1.1520  1.2241 -1.1267
13457TIP3   OH261861   4.043   2.244   1.956 -1.0180  0.8825  0.1610
13457TIP3    H161862   4.081   2.307   2.017 -2.6137  2.5761 -0.5112
13457TIP3    H261863   4.106   2.238   1.884 -0.5008  1.1233  0.5953
13458TIP3   OH261864   3.945   3.088   0.195  0.4436  0.1440 -0.0748
13458TIP3    H161865   3.967   3.181   0.192  0.3122  0.1712 -0.2793
13458TIP3    H261866   4.007   3.050   0.257  0.6928  0.3165 -0.2139
13459TIP3   OH261867   2.028   5.809  16.828 -0.1500 -0.7902 -0.0800
13459TIP3    H161868   2.104   5.794  16.772  0.1075 -0.3301  0.1396
13459TIP3    H261869   2.051   5.767  16.912 -0.3042 -0.9953 -0.1378
13460TIP3   OH261870   3.205   0.531   4.442  0.5092 -0.4128  0.0803
13460TIP3    H161871   3.222   0.443   4.407  1.3598 -0.4079  0.4541
13460TIP3    H261872   3.176   0.515   4.531  0.6179 -0.3205  0.1322
13461TIP3   OH261873   2.715   1.544  14.284  0.2471 -0.1042  0.2452
13461TIP3    H161874   2.696   1.624  14.332 -1.2235 -0.6201  0.5714
13461TIP3    H261875   2.633   1.495  14.285  1.3175 -2.0044  0.8007
13462TIP3   OH261876   0.205   4.419   1.338  0.3338 -0.4438  0.3512
13462TIP3    H161877   0.196   4.365   1.260 -2.3158 -0.2363  0.4309
13462TIP3    H261878   0.165   4.368   1.408 -0.6802  0.8697  0.7798
13463TIP3   OH261879   1.830   4.784   3.171  0.2586 -0.2645 -0.2664
13463TIP3    H161880   1.816   4.872   3.134  0.6571 -0.6550 -1.3876
13463TIP3    H261881   1.747   4.761   3.211 -0.0471  0.3679 -0.5277
13464TIP3   OH261882   4.100   2.915   5.193 -0.3247  0.3925  0.1238
13464TIP3    H161883   4.119   2.996   5.146  1.1709 -0.5122 -0.9108
13464TIP3    H261884   4.180   2.897   5.243 -0.5024 -0.6061  0.0742
13465TIP3   OH261885   1.397   3.725  14.504 -0.3442 -0.7242  0.5228
13465TIP3    H161886   1.328   3.787  14.529  0.5050 -0.7135  3.1460
13465TIP3    H261887   1.352   3.641  14.497 -0.8074 -0.5620  1.3467
13466TIP3   OH261888   1.808   2.596   1.499 -0.6096 -0.3087  0.1773
13466TIP3    H161889   1.893   2.632   1.524 -0.4658 -0.8080  0.4281
13466TIP3    H261890   1.750   2.672   1.495  0.1338  0.2260 -1.2689
13467TIP3   OH261891   5.431   0.606   0.427  0.4383 -0.4788 -0.2959
13467TIP3    H161892   5.494   0.593   0.356  0.4629 -1.9113 -0.0303
13467TIP3    H261893   5.482   0.597   0.507  0.2688  0.4188 -0.0705
13468TIP3   OH261894   5.279   0.532  11.707 -0.0303 -0.0400  1.0055
13468TIP3    H161895   5.346   0.586  11.749  0.9170 -2.5486  2.9712
13468TIP3    H261896   5.326   0.483  11.639 -0.5095  0.3493  0.3877
13469TIP3   OH261897   2.103   0.571  12.806  0.1515  0.2380  0.4452
13469TIP3    H161898   2.178   0.559  12.748 -0.4025  0.4064 -0.3187
13469TIP3    H261899   2.027   0.545  12.753 -0.4877  1.5729  0.6562
13470TIP3   OH261900   1.051   5.569  15.866 -0.4366  0.7451 -0.0670
13470TIP3    H161901   1.105   5.504  15.821 -0.1460 -0.9118  2.4897
13470TIP3    H261902   1.113   5.623  15.915 -0.9426 -0.8162  2.4375
13471TIP3   OH261903   2.866   4.507  14.905 -0.2602 -0.3190 -0.2773
13471TIP3    H161904   2.834   4.426  14.946 -0.7495  0.1608  0.3168
13471TIP3    H261905   2.875   4.568  14.978 -0.5402  0.3629 -0.8075
13472TIP3   OH261906   3.050   6.334  11.957  0.3669  0.7680  0.1834
13472TIP3    H161907   3.135   6.290  11.957 -1.3255 -2.9530 -1.9410
13472TIP3    H261908   3.060   6.406  11.894  1.9255  0.4719  0.0396
13473TIP3   OH261909   4.865   5.679   3.855 -0.3653 -0.3304 -0.2073
13473TIP3    H161910   4.921   5.627   3.913 -0.0892 -0.3192 -0.4603
13473TIP3    H261911   4.920   5.698   3.778 -0.3517  0.5939  0.0114
13474TIP3   OH261912   6.051   3.830  15.415 -0.2916 -0.1719 -0.5692
13474TIP3    H161913   6.059   3.802  15.506  1.1003 -0.8566 -0.8607
13474TIP3    H261914   6.048   3.748  15.365  0.6806  0.1646 -1.2235
13475TIP3   OH261915   3.446   2.856   1.933  0.5644  0.0067  0.3497
13475TIP3    H161916   3.507   2.844   1.860 -0.6133 -3.0553 -0.2996
13475TIP3    H261917   3.420   2.767   1.957 -3.0416  1.0983  1.1316
13476TIP3   OH261918   0.969   2.382  13.805  0.1293  0.3000 -0.1196
13476TIP3    H161919   1.037   2.450  13.799  0.2238  0.4489  1.8234
13476TIP3    H261920   0.890   2.430  13.829  0.2065 -0.2316  1.3173
13477TIP3   OH261921   2.114   3.396  17.247 -0.3507  0.3097 -0.0770
13477TIP3    H161922   2.070   3.445  17.178 -0.5132  0.4370  0.1151
13477TIP3    H261923   2.078   3.307  17.240 -1.3268  0.6393  0.6737
13478TIP3   OH261924   3.171   2.661  14.306 -0.2719 -0.0902 -0.2339
13478TIP3    H161925   3.223   2.741  14.303  0.8996 -0.7503  1.2476
13478TIP3    H261926   3.086   2.690  14.339 -0.2368  0.7016 -0.8054
13479TIP3   OH261927   1.952   4.364   0.638  0.7472 -0.2539  0.4912
13479TIP3    H161928   1.995   4.438   0.681 -1.6483  0.6279  1.5949
13479TIP3    H261929   1.943   4.392   0.547 -0.8199  1.2575  1.0432
13480TIP3   OH261930   3.175   0.349  14.505 -0.4399 -0.2878 -0.4117
13480TIP3    H161931   3.188   0.260  14.537  1.3425 -0.4332 -1.3897
13480TIP3    H261932   3.082   0.366  14.518 -0.3761 -1.3869  2.0052
13481TIP3   OH261933   0.174   4.971   1.273  0.2250  0.8004  0.0515
13481TIP3    H161934   0.195   4.881   1.298  1.2492  1.5093  1.9028
13481TIP3    H261935   0.182   4.972   1.177 -1.1864 -1.3858 -0.1593
13482TIP3   OH261936   2.999   0.078  16.510 -0.4058 -0.2951  0.1791
13482TIP3    H161937   3.027  -0.007  16.544 -0.7579  0.2323  1.9084
13482TIP3    H261938   3.036   0.142  16.570 -0.3580  0.7786 -0.9408
13483TIP3   OH261939   5.561   2.214  11.477  0.2003 -0.0634 -0.2060
13483TIP3    H161940   5.524   2.300  11.459 -0.7294 -0.8340 -2.2772
13483TIP3    H261941   5.599   2.186  11.394 -2.2869 -2.9109 -0.5661
13484TIP3   OH261942   6.411   3.619   2.473  0.6557  0.0032  0.1028
13484TIP3    H161943   6.382   3.687   2.413  0.5088  1.3991  1.6855
13484TIP3    H261944   6.506   3.623   2.472  0.6381  0.6196  0.6014
13485TIP3   OH261945   5.403   6.572  15.539 -0.5998  0.0930 -0.0112
13485TIP3    H161946   5.317   6.552  15.502 -0.3463 -0.2647 -0.4224
13485TIP3    H261947   5.385   6.630  15.613 -1.1095  0.9559 -0.7978
13486TIP3   OH261948   0.598   1.863  14.684 -0.0345  0.0855 -0.1957
13486TIP3    H161949   0.614   1.900  14.771  1.4396 -0.6402 -0.1239
13486TIP3    H261950   0.575   1.771  14.701 -1.7715  0.4306 -0.4829
13487TIP3   OH261951   2.615   5.957   2.571 -0.1848  0.4088 -0.0551
13487TIP3    H161952   2.519   5.954   2.569 -0.2086 -0.3485  1.2335
13487TIP3    H261953   2.636   6.044   2.605 -0.3608  1.0258 -1.4349
13488TIP3   OH261954   0.131   3.775  13.391 -0.1242  0.5014 -0.0188
13488TIP3    H161955   0.208   3.771  13.447 -0.7200 -1.1156  0.7779
13488TIP3    H261956   0.103   3.866  13.393  0.3609  0.6364  1.6836
13489TIP3   OH261957   1.598   3.651  13.570  0.6190 -0.0045  0.0628
13489TIP3    H161958   1.668   3.648  13.504  0.9889  0.3412  0.4373
13489TIP3    H261959   1.584   3.560  13.593 -0.5940 -0.2939 -1.6200
13490TIP3   OH261960   1.435   1.980   4.419  0.2699  0.4055 -0.2903
13490TIP3    H161961   1.432   2.053   4.357 -0.9659 -0.0760 -0.8288
13490TIP3    H261962   1.394   1.907   4.373 -1.2857  0.2043  1.2868
13491TIP3   OH261963   0.006   1.144  13.012 -0.4375 -0.3364 -0.2195
13491TIP3    H161964   0.063   1.207  13.057 -0.5177 -0.8109  0.5705
13491TIP3    H261965   0.065   1.081  12.972 -0.3888 -0.5611  0.2001
13492TIP3   OH261966   5.252   5.984  13.256  0.1936  0.0606 -0.3109
13492TIP3    H161967   5.178   5.971  13.314 -0.6708  1.2784 -1.0861
13492TIP3    H261968   5.242   5.917  13.189  0.2873 -0.3230  0.0543
13493TIP3   OH261969   3.437   5.667   4.110 -0.6613 -0.3770  0.5205
13493TIP3    H161970   3.462   5.651   4.201 -1.8392 -3.6242  0.3922
13493TIP3    H261971   3.516   5.647   4.060 -0.9852 -2.2079  0.6639
13494TIP3   OH261972   4.993   3.310   5.509  0.1443  0.2042 -0.0735
13494TIP3    H161973   5.043   3.297   5.590 -1.6237 -1.6419  0.8013
13494TIP3    H261974   4.959   3.399   5.517  0.9251  0.4610  0.6602
13495TIP3   OH261975   0.984   0.962  12.446  0.0547  0.2843  0.1389
13495TIP3    H161976   0.936   1.028  12.395 -0.1451  0.8646  1.0568
13495TIP3    H261977   0.984   0.996  12.535  0.5285 -0.6461  0.5051
13496TIP3   OH261978   5.680   0.807   2.897  0.8970 -0.2085  0.3227
13496TIP3    H161979   5.598   0.816   2.945 -0.3416  0.5445 -1.7957
13496TIP3    H261980   5.693   0.892   2.855  2.3575 -0.5705  0.0025
13497TIP3   OH261981   5.677   1.373  10.693  0.3283  0.2079  0.5379
13497TIP3    H161982   5.656   1.429  10.618 -0.0763  1.3977  1.4991
13497TIP3    H261983   5.639   1.288  10.671 -2.0071  1.1867  0.4243
13498TIP3   OH261984   3.812   3.923  13.149 -0.1522  0.3421  0.4280
13498TIP3    H161985   3.739   3.981  13.125  1.2795  1.2558 -2.1295
13498TIP3    H261986   3.782   3.836  13.123 -0.8923  0.4695  0.8162
13499TIP3   OH261987   1.529   4.817   3.146 -0.1115  0.3962 -0.1352
13499TIP3    H161988   1.481   4.749   3.192  0.8288 -0.2215 -0.0549
13499TIP3    H261989   1.494   4.815   3.057 -0.8491  0.5581  0.1430
13500TIP3   OH261990   1.668   2.809  13.096  0.0748 -0.3510  1.2885
13500TIP3    H161991   1.740   2.752  13.119  0.2562  0.4151  2.7172
13500TIP3    H261992   1.657   2.867  13.172 -0.6551  0.9352  0.2526
13501TIP3   OH261993   1.830   4.642   2.429 -0.2541 -0.0363  0.1483
13501TIP3    H161994   1.866   4.565   2.473  1.2137  1.2500  1.3468
13501TIP3    H261995   1.899   4.708   2.435 -1.0917  1.1002 -1.6822
13502TIP3   OH261996   3.360   1.225  12.699 -0.7502 -0.6293 -0.0588
13502TIP3    H161997   3.327   1.188  12.781  0.4735  0.9627  1.2128
13502TIP3    H261998   3.450   1.249  12.718 -0.5090 -0.0133 -1.8206
13503TIP3   OH261999   2.600   2.879   0.259 -0.5198 -0.0912  0.3792
13503TIP3    H162000   2.621   2.856   0.350 -0.3016 -1.3071  0.0390
13503TIP3    H262001   2.646   2.961   0.243 -0.3843  0.0215  1.2940
13504TIP3   OH262002   5.188   1.509  16.381  0.3712  0.0126 -0.2281
13504TIP3    H162003   5.122   1.515  16.312  0.3175  0.1006 -0.1676
13504TIP3    H262004   5.159   1.572  16.448  0.5717  0.1324 -0.2510
13505TIP3   OH262005   5.959   3.268   5.582 -0.2444 -0.7215 -0.1880
13505TIP3    H162006   5.994   3.230   5.501 -0.6498  1.2898 -1.3756
13505TIP3    H262007   5.914   3.348   5.554  1.1421  1.0496  2.2036
13506TIP3   OH262008   6.002   6.811  16.114  0.2875 -0.1624  0.3797
13506TIP3    H162009   5.989   6.795  16.020  2.3426 -0.2027  0.0578
13506TIP3    H262010   5.920   6.782  16.154 -1.1468  1.0437 -1.5073
13507TIP3   OH262011   3.686   0.032   0.326 -0.5097 -1.1069  0.1821
13507TIP3    H162012   3.674   0.101   0.261 -2.7306 -1.8206 -0.2392
13507TIP3    H262013   3.701   0.079   0.408  0.0459 -0.1680 -0.4373
13508TIP3   OH262014   3.749   6.498   6.371 -0.0369 -0.3134  0.5235
13508TIP3    H162015   3.810   6.462   6.436 -0.4438 -1.7018  0.1709
13508TIP3    H262016   3.784   6.469   6.287 -0.8419 -0.6268  0.2827
13509TIP3   OH262017   1.856   6.757   2.470 -0.4785 -0.0619 -0.1078
13509TIP3    H162018   1.879   6.849   2.485 -2.0943  0.1650  1.2071
13509TIP3    H262019   1.901   6.710   2.540  0.6919 -0.3709 -1.0261
13510TIP3   OH262020   3.364   3.649   0.278  0.1356  0.7366 -0.1690
13510TIP3    H162021   3.402   3.726   0.321  0.3360  0.7836 -0.4283
13510TIP3    H262022   3.429   3.623   0.213  0.3128  0.0027  0.3020
13511TIP3   OH262023   5.260   1.520  16.061 -0.1603 -0.4458 -0.4328
13511TIP3    H162024   5.318   1.594  16.077  0.0808 -0.7756  0.2487
13511TIP3    H262025   5.177   1.545  16.101  0.1674 -0.8789  0.5588
13512TIP3   OH262026   1.041   0.183   3.806 -0.4408 -0.1010 -0.4494
13512TIP3    H162027   1.029   0.248   3.875  0.4639 -0.1579 -0.2149
13512TIP3    H262028   0.997   0.105   3.838  0.5661 -0.3425  0.4017
13513TIP3   OH262029   3.009   4.786   4.861 -0.3517  0.5238 -0.1986
13513TIP3    H162030   3.023   4.745   4.947 -2.1091 -1.4286 -0.7757
13513TIP3    H262031   2.929   4.837   4.872  0.0438  1.2234 -0.4213
13514TIP3   OH262032   2.937   1.004  15.269 -0.0506 -0.1996  0.2090
13514TIP3    H162033   2.855   0.998  15.318  0.0086  3.0964  1.0047
13514TIP3    H262034   2.931   0.937  15.202 -2.3454 -1.5964  1.6932
13515TIP3   OH262035   4.150   6.252  12.477  0.2696  0.2494 -0.7460
13515TIP3    H162036   4.215   6.321  12.474  0.7110 -0.1873 -2.5697
13515TIP3    H262037   4.076   6.290  12.525  2.5506  0.0586  3.3020
13516TIP3   OH262038   5.637   3.262  14.692  0.4567  0.8145 -0.3955
13516TIP3    H162039   5.668   3.339  14.645  3.6446  1.3715  2.2105
13516TIP3    H262040   5.711   3.201  14.689 -0.0575 -0.0225  1.8098
13517TIP3   OH262041   6.185   4.929  12.562 -0.2651 -0.5677 -0.2730
13517TIP3    H162042   6.168   5.022  12.549  2.2787 -0.0202 -0.1838
13517TIP3    H262043   6.106   4.896  12.605 -0.2928  2.0829  1.9515
13518TIP3   OH262044   6.252   4.146  11.366  0.8182 -0.9237  0.0561
13518TIP3    H162045   6.317   4.179  11.303  0.9406 -3.0659 -1.0450
13518TIP3    H262046   6.170   4.144  11.316  0.2536  0.1036  0.9032
13519TIP3   OH262047   3.190   2.434  13.718  0.3015  0.1081  0.4810
13519TIP3    H162048   3.116   2.431  13.779 -1.0774 -1.3723 -1.1460
13519TIP3    H262049   3.203   2.527  13.700 -0.1079  0.4806  2.0084
13520TIP3   OH262050   5.979   5.456   3.795  0.0025  0.3191  0.1191
13520TIP3    H162051   6.021   5.450   3.881  0.1895 -0.7725 -0.0461
13520TIP3    H262052   5.889   5.482   3.815  0.2218  0.7426  0.5934
13521TIP3   OH262053   2.154   1.900  13.853 -0.1062 -0.5550 -0.1723
13521TIP3    H162054   2.099   1.835  13.896 -0.1518 -0.7482 -0.5194
13521TIP3    H262055   2.122   1.904  13.763 -0.1143 -0.0383 -0.1497
13522TIP3   OH262056   2.156   1.884  15.372  0.3456 -0.1161 -0.2352
13522TIP3    H162057   2.219   1.819  15.402  3.5546  1.9805 -1.8761
13522TIP3    H262058   2.099   1.836  15.311  1.1845 -1.8204  0.2684
13523TIP3   OH262059   3.928   2.648  16.457 -0.1312 -0.4111  0.2672
13523TIP3    H162060   3.838   2.634  16.486  0.2017  0.1060  1.6184
13523TIP3    H262061   3.950   2.570  16.407 -0.6537 -1.4794  1.6565
13524TIP3   OH262062   6.263   4.678  12.667 -0.0121 -0.4827 -0.0114
13524TIP3    H162063   6.264   4.644  12.578  0.0664  0.1775 -0.2648
13524TIP3    H262064   6.225   4.765  12.660 -0.1841 -0.4951  0.6312
13525TIP3   OH262065   5.584   4.594  16.402 -0.3128 -0.2826 -0.6554
13525TIP3    H162066   5.569   4.574  16.310  0.8152 -1.3456 -0.6252
13525TIP3    H262067   5.496   4.590  16.441 -0.6911 -0.7227 -1.5181
13526TIP3   OH262068   1.128   2.890   0.539  0.4232 -0.3927 -0.4339
13526TIP3    H162069   1.067   2.863   0.608  0.4358  1.1969  0.2504
13526TIP3    H262070   1.099   2.842   0.461 -0.6957 -0.8857  0.2580
13527TIP3   OH262071   2.262   2.661   6.747  0.0677 -0.5335  0.3851
13527TIP3    H162072   2.217   2.576   6.746  2.9875 -2.2157  0.1228
13527TIP3    H262073   2.214   2.715   6.684 -0.0450 -3.0603 -1.8628
13528TIP3   OH262074   1.043   1.408  12.443 -0.2932 -0.0082 -0.3256
13528TIP3    H162075   1.087   1.331  12.407 -1.4554 -0.5562 -0.6311
13528TIP3    H262076   1.027   1.464  12.367 -0.8071 -0.1709 -0.3418
13529TIP3   OH262077   2.073   3.489  14.144  0.3028  0.0047  0.4991
13529TIP3    H162078   2.103   3.504  14.233 -3.2885 -0.2347  1.9342
13529TIP3    H262079   2.054   3.576  14.110 -0.4554 -0.0172  0.8475
13530TIP3   OH262080   0.356   3.311  17.214 -0.3173 -0.1592  0.1298
13530TIP3    H162081   0.420   3.357  17.160 -0.0101  0.2546  0.8334
13530TIP3    H262082   0.407   3.246  17.262 -0.2388  0.7977  1.4005
13531TIP3   OH262083   0.248   3.137  14.941  0.6647 -0.2420  0.0111
13531TIP3    H162084   0.326   3.188  14.916  0.8544 -0.1817  0.6953
13531TIP3    H262085   0.213   3.105  14.858 -0.6566  2.7130 -0.7282
13532TIP3   OH262086   6.542   4.168  16.577  0.2345  0.2157  0.4626
13532TIP3    H162087   6.534   4.073  16.573 -0.5045  0.2358  1.2601
13532TIP3    H262088   6.568   4.194  16.489  2.0107 -0.8631  0.6165
13533TIP3   OH262089   4.648   3.218  11.624  0.0361  0.1966 -0.0303
13533TIP3    H162090   4.635   3.239  11.532 -0.2315 -0.3303 -0.1182
13533TIP3    H262091   4.713   3.282  11.655  1.1192 -0.4375 -0.9194
13534TIP3   OH262092   0.400   0.033   2.836 -0.3241 -0.2996 -0.5755
13534TIP3    H162093   0.485  -0.007   2.856 -0.6118 -0.5088  0.2700
13534TIP3    H262094   0.422   0.110   2.784  0.3152 -0.9295 -1.2699
13535TIP3   OH262095   3.844   2.063   1.419  0.4966 -0.1349  0.7659
13535TIP3    H162096   3.859   2.114   1.339  0.8951  2.3720  2.3360
13535TIP3    H262097   3.818   1.977   1.387  0.0397  0.9253 -2.0669
13536TIP3   OH262098   1.487   0.640  14.639 -0.4695  0.4718  0.0417
13536TIP3    H162099   1.487   0.590  14.558 -1.1063 -0.1490  0.4058
13536TIP3    H262100   1.478   0.574  14.708  0.7622  0.9304  0.6651
13537TIP3   OH262101   4.502   6.816  11.930  0.5249  0.1806  0.0408
13537TIP3    H162102   4.443   6.856  11.993  0.8492 -0.0413  0.4864
13537TIP3    H262103   4.510   6.881  11.860 -0.7752 -0.0519 -0.3585
13538TIP3   OH262104   3.844   6.697  15.080 -0.2761 -0.1915 -0.3741
13538TIP3    H162105   3.880   6.768  15.027 -1.6525  1.7043  1.0677
13538TIP3    H262106   3.920   6.644  15.105  0.9715  1.4300 -0.5914
13539TIP3   OH262107   0.882   4.187  14.198 -0.3778 -0.3226  0.0331
13539TIP3    H162108   0.914   4.113  14.146  1.2215 -0.2843  0.8865
13539TIP3    H262109   0.805   4.154  14.243 -0.3135 -1.1277 -0.4298
13540TIP3   OH262110   5.879   0.458  13.827  0.1619 -0.3292 -0.4442
13540TIP3    H162111   5.869   0.546  13.864 -0.2984 -0.7755  0.5539
13540TIP3    H262112   5.857   0.400  13.900 -1.2693 -1.2557 -1.5713
13541TIP3   OH262113   5.557   6.022  17.146 -0.2683 -0.2367 -0.0700
13541TIP3    H162114   5.646   5.990  17.131  0.1034  0.9152 -0.4608
13541TIP3    H262115   5.501   5.960  17.101  0.2849 -1.3074  0.6643
13542TIP3   OH262116   6.040   4.214   5.410 -0.4012 -0.8977 -0.4915
13542TIP3    H162117   6.115   4.155   5.402  1.8320  1.4620  1.1640
13542TIP3    H262118   6.033   4.256   5.325  2.0107  0.7235 -0.0126
13543TIP3   OH262119   3.907   6.521  14.020 -0.1768 -0.1128 -0.2860
13543TIP3    H162120   3.894   6.502  14.113 -2.2903 -0.3562 -0.5718
13543TIP3    H262121   3.922   6.616  14.017  0.2142 -0.1519  0.3187
13544TIP3   OH262122   6.701   6.688  15.386 -0.2289 -0.3631  0.4575
13544TIP3    H162123   6.702   6.778  15.354 -1.6389 -1.1339 -2.0098
13544TIP3    H262124   6.614   6.676  15.424 -0.0424 -0.6895  0.7950
13545TIP3   OH262125   0.727   5.745  12.267  0.8679 -0.3047 -0.0668
13545TIP3    H162126   0.788   5.800  12.218  0.7257  0.4602  0.5981
13545TIP3    H262127   0.766   5.737  12.354  0.8522 -1.2037 -0.1399
13546TIP3   OH262128   0.512   6.172   0.465  0.0222  0.1213 -1.2238
13546TIP3    H162129   0.418   6.190   0.472 -0.0550 -0.7312  0.3209
13546TIP3    H262130   0.552   6.229   0.531  0.4869 -0.2860 -1.1483
13547TIP3   OH262131   3.385   4.396   3.508  0.6317 -0.0574  0.6214
13547TIP3    H162132   3.369   4.339   3.584 -1.4451  1.2153  1.2394
13547TIP3    H262133   3.476   4.424   3.518  1.7839 -3.2524  0.2160
13548TIP3   OH262134   3.732   0.906  14.812  0.4019 -0.4458  0.3046
13548TIP3    H162135   3.643   0.901  14.846  0.4667 -1.2442  0.3756
13548TIP3    H262136   3.786   0.925  14.889  0.4523 -1.4193  0.5223
13549TIP3   OH262137   4.811   4.810  11.768 -0.4903 -0.2264 -0.0387
13549TIP3    H162138   4.728   4.819  11.721 -1.5879 -2.0204  1.4253
13549TIP3    H262139   4.873   4.860  11.716 -2.2415  0.2511 -1.7976
13550TIP3   OH262140   5.991   1.688  15.575 -0.3189 -0.1441  0.2840
13550TIP3    H162141   6.057   1.724  15.633 -0.5703 -1.3163  1.3396
13550TIP3    H262142   5.974   1.757  15.511 -1.8854  2.2506  3.0736
13551TIP3   OH262143   3.980   0.353   3.088  0.3131 -0.4094  0.0463
13551TIP3    H162144   4.038   0.363   3.013  0.0483  0.2855 -0.0755
13551TIP3    H262145   4.020   0.404   3.158  0.9748 -1.7043  0.6367
13552TIP3   OH262146   3.511   2.961  15.695  0.3361 -0.4865  0.1435
13552TIP3    H162147   3.570   3.032  15.721 -0.7098  0.0711  1.0608
13552TIP3    H262148   3.488   2.983  15.604  0.3893  0.0858  0.2616
13553TIP3   OH262149   5.291   4.238  12.217  0.1947 -0.1476  0.5633
13553TIP3    H162150   5.248   4.246  12.302  0.4075  1.4523  0.5374
13553TIP3    H262151   5.222   4.207  12.158 -0.1217 -0.6114  1.1611
13554TIP3   OH262152   4.487   3.257   1.779 -0.3747 -0.5838  0.2030
13554TIP3    H162153   4.561   3.214   1.738 -0.2656 -1.7787  1.5472
13554TIP3    H262154   4.424   3.187   1.795 -1.5059  0.2885 -0.2758
13555TIP3   OH262155   3.167   2.213  11.627 -0.3606  0.0531 -0.4199
13555TIP3    H162156   3.181   2.305  11.648  2.4036 -0.5045  0.6434
13555TIP3    H262157   3.193   2.204  11.536 -0.4585  0.2967 -0.4712
13556TIP3   OH262158   6.346   6.403  13.080  0.2536  0.1362 -0.0302
13556TIP3    H162159   6.358   6.483  13.131  0.9750  0.9075 -1.3599
13556TIP3    H262160   6.296   6.430  13.004  2.0622 -0.2517 -1.4396
13557TIP3   OH262161   2.207   4.843   3.561 -0.4506  0.4307 -0.0784
13557TIP3    H162162   2.261   4.818   3.486  1.2709 -1.0284  1.5509
13557TIP3    H262163   2.121   4.807   3.542  0.0183 -0.1434 -1.2209
13558TIP3   OH262164   3.741   3.001   3.737 -0.2917 -0.1170  0.0512
13558TIP3    H162165   3.655   3.041   3.723 -1.5271 -1.2596  3.2470
13558TIP3    H262166   3.724   2.907   3.731  0.6056 -0.3679  1.0836
13559TIP3   OH262167   1.811   4.694   5.211 -0.0613  0.2151 -0.3199
13559TIP3    H162168   1.719   4.674   5.228 -0.2843  0.6249 -1.0223
13559TIP3    H262169   1.855   4.674   5.294 -0.7892  0.0902  0.0473
13560TIP3   OH262170   5.037   3.099  12.805  0.0217  0.0054 -0.5578
13560TIP3    H162171   5.030   3.008  12.835 -1.5387 -0.4970 -2.2473
13560TIP3    H262172   4.992   3.150  12.872 -2.6156 -0.9740 -1.4536
13561TIP3   OH262173   3.796   4.494  15.560 -0.2224  0.2208  0.1978
13561TIP3    H162174   3.736   4.518  15.630  0.7723  1.6519  0.5977
13561TIP3    H262175   3.795   4.568  15.500  0.7477  0.0514 -0.0484
13562TIP3   OH262176   2.551   4.353  16.789 -0.1355  0.3759  0.4418
13562TIP3    H162177   2.529   4.445  16.774 -1.2695 -0.1014 -1.0638
13562TIP3    H262178   2.560   4.315  16.702  2.0899 -0.5818  1.0205
13563TIP3   OH262179   5.294   2.873  16.438  0.8695  0.2315  0.1303
13563TIP3    H162180   5.252   2.822  16.368  1.6393 -1.6881  0.9804
13563TIP3    H262181   5.363   2.922  16.393 -0.9110  1.8699 -0.9686
13564TIP3   OH262182   2.490   4.120   1.110  0.4315  0.1972  0.3456
13564TIP3    H162183   2.567   4.174   1.092  0.6349 -0.4582 -0.8938
13564TIP3    H262184   2.524   4.044   1.156  0.0766  1.3027  2.5500
13565TIP3   OH262185   0.435   2.146  12.127  0.1928 -0.0098  0.1147
13565TIP3    H162186   0.375   2.220  12.127 -1.2052 -1.1117  0.8193
13565TIP3    H262187   0.505   2.172  12.187 -0.9052  0.2685  1.2958
13566TIP3   OH262188   2.127   5.961  10.731  0.6468  1.0135 -0.1698
13566TIP3    H162189   2.198   5.929  10.786  1.4896 -1.1692 -2.3463
13566TIP3    H262190   2.161   5.957  10.642 -2.4219 -1.0996 -1.4586
13567TIP3   OH262191   3.504   6.378  13.092 -0.0089 -0.4900  0.2951
13567TIP3    H162192   3.559   6.449  13.058 -0.5195 -0.8253 -1.3075
13567TIP3    H262193   3.425   6.421  13.124 -0.0435 -0.2695 -0.0840
13568TIP3   OH262194   3.288   1.643   2.560 -0.0427  0.1884 -0.4230
13568TIP3    H162195   3.254   1.562   2.598  1.6488 -0.9533 -1.1975
13568TIP3    H262196   3.229   1.662   2.487 -1.2385  0.4473  0.5724
13569TIP3   OH262197   1.422   0.586  12.277  0.2793  0.1909  0.1880
13569TIP3    H162198   1.412   0.658  12.339 -1.8343  0.4007 -0.3066
13569TIP3    H262199   1.334   0.550  12.268  0.6657 -0.3470 -2.0895
13570TIP3   OH262200   4.338   3.072  16.902 -0.4717 -0.5928  0.3353
13570TIP3    H162201   4.294   3.128  16.838  0.2614 -0.8987 -0.4580
13570TIP3    H262202   4.384   3.132  16.960 -1.4557 -0.2956  0.8208
13571TIP3   OH262203   2.288   0.050   2.393  0.3142 -0.3206  0.5130
13571TIP3    H162204   2.225   0.049   2.321  0.3903  2.1261  0.3057
13571TIP3    H262205   2.239   0.020   2.469 -0.5997 -0.1821 -0.0144
13572TIP3   OH262206   4.016   0.002  13.430  0.5067  0.3791 -0.6998
13572TIP3    H162207   4.071  -0.069  13.396  1.0418  1.0227 -1.2032
13572TIP3    H262208   3.998  -0.024  13.520 -0.5645 -1.1389 -1.3047
13573TIP3   OH262209   4.713   3.704  12.854 -0.4993  0.0466 -0.7509
13573TIP3    H162210   4.690   3.797  12.865  2.8600  0.8529  0.8851
13573TIP3    H262211   4.662   3.659  12.921  1.3889  1.5090  1.8292
13574TIP3   OH262212   4.648   4.434  16.057  0.6634  0.3024  0.3320
13574TIP3    H162213   4.690   4.519  16.042 -0.4647  0.8700  0.2708
13574TIP3    H262214   4.658   4.420  16.152 -1.5719  1.8789  0.8744
13575TIP3   OH262215   4.434   0.615   2.727 -0.3400  0.0910  0.2820
13575TIP3    H162216   4.379   0.691   2.707 -1.0778 -0.1767  1.2235
13575TIP3    H262217   4.461   0.628   2.817  0.8634  0.0249 -0.0476
13576TIP3   OH262218   0.170   0.686   4.570  0.3910  0.0922 -0.2326
13576TIP3    H162219   0.190   0.649   4.484  2.2419  1.2927 -0.3658
13576TIP3    H262220   0.153   0.779   4.554  0.6634  0.3144  0.6810
13577TIP3   OH262221   1.700   1.074   2.645 -0.5765 -0.0791  0.0090
13577TIP3    H162222   1.670   0.983   2.638 -0.2654 -0.1030 -1.5137
13577TIP3    H262223   1.671   1.114   2.563  0.7605  0.7346 -0.1000
13578TIP3   OH262224   2.143   5.066   3.697 -0.5138  0.0612  0.0986
13578TIP3    H162225   2.067   5.049   3.753 -0.5913 -1.1793 -0.3472
13578TIP3    H262226   2.158   4.983   3.651  1.6596 -0.0381  0.8579
13579TIP3   OH262227   6.006   0.841  12.149 -0.2170  0.0532  0.1533
13579TIP3    H162228   5.945   0.815  12.218 -1.2442  0.5882 -0.5277
13579TIP3    H262229   6.038   0.926  12.176  0.9716 -0.6328  0.9759
13580TIP3   OH262230   1.282   2.842  13.919  0.2859  0.0125 -0.3262
13580TIP3    H162231   1.344   2.771  13.911  0.6752  0.0013  2.0946
13580TIP3    H262232   1.334   2.922  13.905  1.1985  0.0677  2.7503
13581TIP3   OH262233   0.872   3.671   5.014 -0.1316 -0.2672 -0.3614
13581TIP3    H162234   0.863   3.719   5.096 -0.3770  2.1434 -1.7168
13581TIP3    H262235   0.882   3.579   5.041  0.0677  0.4669  2.3358
13582TIP3   OH262236   5.591   5.061   6.322  0.2122 -0.2288  0.3083
13582TIP3    H162237   5.565   5.105   6.241  2.2092 -0.5851 -0.5783
13582TIP3    H262238   5.530   5.094   6.388 -0.6146  1.0859 -1.0521
13583TIP3   OH262239   1.067   2.849   3.224 -0.0347 -0.1376 -0.1397
13583TIP3    H162240   0.981   2.814   3.247 -0.8766  1.3400 -0.8361
13583TIP3    H262241   1.053   2.893   3.139  1.6292 -0.6545 -0.7163
13584TIP3   OH262242   3.864   6.394  16.402 -0.1331  0.1197  0.0576
13584TIP3    H162243   3.770   6.379  16.416  0.1004 -1.3397  0.1992
13584TIP3    H262244   3.887   6.337  16.329  0.8833 -0.4573  0.8107
13585TIP3   OH262245   4.130   1.706  16.503 -0.0053 -0.4001 -0.5500
13585TIP3    H162246   4.174   1.662  16.576 -0.5295 -0.6139 -0.3600
13585TIP3    H262247   4.198   1.713  16.435  0.7812  0.7083  0.3138
13586TIP3   OH262248   3.680   2.277  16.334 -0.1983  0.2419 -0.0867
13586TIP3    H162249   3.631   2.201  16.366  0.5589  0.0556  0.6678
13586TIP3    H262250   3.761   2.240  16.299 -0.2144  0.6246 -0.5371
13587TIP3   OH262251   1.045   5.946   1.013 -0.3617 -0.2246 -0.3916
13587TIP3    H162252   1.118   5.885   1.001  0.8744  1.1035  0.1479
13587TIP3    H262253   1.041   5.994   0.931 -1.1821 -0.8445 -0.7257
13588TIP3   OH262254   2.859   0.624   4.372  0.0040 -0.0153  0.1157
13588TIP3    H162255   2.912   0.647   4.296  2.1722  0.2561  1.6161
13588TIP3    H262256   2.893   0.678   4.443  0.6323 -2.8379  2.1663
13589TIP3   OH262257   1.530   1.515  16.689 -0.6034 -0.1635  0.1767
13589TIP3    H162258   1.584   1.465  16.749  0.0330  1.7787  1.3305
13589TIP3    H262259   1.578   1.515  16.607  0.9673  1.1310  1.0537
13590TIP3   OH262260   3.879   5.605   1.491  0.4575  0.0006  0.1648
13590TIP3    H162261   3.808   5.656   1.530  0.6503  0.9457 -0.6738
13590TIP3    H262262   3.895   5.534   1.554  0.6626  1.3591  1.7191
13591TIP3   OH262263   5.707   0.399   1.542  0.2515 -0.4380  0.7631
13591TIP3    H162264   5.780   0.449   1.578  1.3056 -0.9227 -0.5970
13591TIP3    H262265   5.687   0.442   1.458 -1.2311 -0.1465  1.2413
13592TIP3   OH262266   0.219   0.118   5.124 -0.3694 -0.2332 -0.0217
13592TIP3    H162267   0.273   0.192   5.153 -3.2321  1.8425  0.4241
13592TIP3    H262268   0.255   0.094   5.038  0.7747  1.5734 -0.0942
13593TIP3   OH262269   5.375   5.762  11.516  0.2462 -0.2738  0.1713
13593TIP3    H162270   5.344   5.695  11.576 -1.4693 -0.3787 -0.7679
13593TIP3    H262271   5.351   5.729  11.429  2.0311  0.1932 -0.5380
13594TIP3   OH262272   2.932   6.497   0.289 -0.4491 -0.1059  0.1531
13594TIP3    H162273   3.025   6.490   0.268 -0.5287 -1.1728  0.0988
13594TIP3    H262274   2.893   6.538   0.212 -0.1086 -0.1553 -0.0483
13595TIP3   OH262275   1.525   3.582  13.986  0.0070  0.4993  0.2751
13595TIP3    H162276   1.606   3.558  14.030  0.8640  1.8970 -0.4660
13595TIP3    H262277   1.464   3.601  14.057  0.3740 -0.3600  0.8395
13596TIP3   OH262278   3.510   1.071   3.993 -0.0729 -0.0417 -0.5927
13596TIP3    H162279   3.472   1.009   4.055  0.8370 -0.1938 -0.1711
13596TIP3    H262280   3.587   1.106   4.038  0.0921  0.5108 -1.2910
13597TIP3   OH262281   6.545   5.417   0.236  0.1868  0.0646  0.6812
13597TIP3    H162282   6.463   5.461   0.214 -0.3165 -0.7433  0.8666
13597TIP3    H262283   6.585   5.472   0.303 -1.0292 -0.3660  1.8151
13598TIP3   OH262284   2.360   1.993  12.148  0.3759 -0.9328  0.0301
13598TIP3    H162285   2.319   1.946  12.076  0.2278 -1.1238  0.2373
13598TIP3    H262286   2.409   2.063  12.106 -0.3651 -0.5440 -0.2198
13599TIP3   OH262287   6.462   2.778   5.122 -0.5663  0.5708 -0.6032
13599TIP3    H162288   6.512   2.820   5.192  0.3613 -0.8976 -0.3310
13599TIP3    H262289   6.386   2.741   5.166 -0.3164  0.2104 -0.4612
13600TIP3   OH262290   4.830   2.229  12.837  0.3623  0.4731  0.0274
13600TIP3    H162291   4.906   2.173  12.822 -0.4502 -0.2255 -1.7102
13600TIP3    H262292   4.852   2.312  12.794 -0.0787  0.0690 -0.9962
13601TIP3   OH262293   0.770   3.657  11.224 -0.0858  0.4462 -0.4240
13601TIP3    H162294   0.865   3.663  11.232 -0.2249  1.2148  0.9256
13601TIP3    H262295   0.751   3.564  11.233  0.5891  0.1734 -1.5848
13602TIP3   OH262296   0.656   2.244  13.487  0.2150  0.0052  0.2584
13602TIP3    H162297   0.608   2.182  13.542 -0.5351 -0.6941 -1.1522
13602TIP3    H262298   0.625   2.330  13.516 -1.2086 -0.4023  0.0211
13603TIP3   OH262299   0.493   3.738  14.534 -0.2164 -0.0102  0.1752
13603TIP3    H162300   0.552   3.699  14.469  1.6144  0.4287  1.4934
13603TIP3    H262301   0.406   3.730  14.495  0.3624 -3.0038 -0.7670
13604TIP3   OH262302   1.739   4.824   3.614  0.0484  0.1643  0.3151
13604TIP3    H162303   1.660   4.774   3.593  1.1770 -1.6406  0.1557
13604TIP3    H262304   1.716   4.914   3.592 -1.8805 -0.3379  0.0501
13605TIP3   OH262305   6.005   1.220  16.769  0.3102  0.0596  0.3162
13605TIP3    H162306   6.015   1.180  16.856  0.9336 -0.2213  0.1254
13605TIP3    H262307   5.997   1.313  16.786 -0.2104 -0.0554  0.7153
13606TIP3   OH262308   4.190   5.992  12.429 -0.3276  0.1366  0.0252
13606TIP3    H162309   4.132   5.939  12.483  2.4293  0.1744  3.3418
13606TIP3    H262310   4.163   6.082  12.445 -0.0866  0.1014  0.6419
13607TIP3   OH262311   6.620   0.008   1.624  0.0133  0.3900  0.0991
13607TIP3    H162312   6.575   0.017   1.708 -0.0427 -1.1959  0.2634
13607TIP3    H262313   6.668  -0.075   1.630  2.3238  1.6003 -0.3944
13608TIP3   OH262314   6.331   1.666  16.263 -0.6034  0.3361 -0.0397
13608TIP3    H162315   6.256   1.724  16.251 -0.9171  0.0911  0.6217
13608TIP3    H262316   6.295   1.578  16.252 -0.9413  0.0756  2.4052
13609TIP3   OH262317   2.484   1.132   4.889  0.3166  0.4509  0.0230
13609TIP3    H162318   2.550   1.083   4.839  0.2743 -0.8718  1.1915
13609TIP3    H262319   2.527   1.151   4.972 -0.5983  0.0014  0.6105
13610TIP3   OH262320   3.242   4.564   4.462 -0.6116 -0.3428  0.1974
13610TIP3    H162321   3.256   4.631   4.394  2.2594  1.3506  2.2402
13610TIP3    H262322   3.157   4.587   4.500 -0.6349  0.8763 -0.5229
13611TIP3   OH262323   1.023   0.766  13.168  0.4523  0.1852  0.4651
13611TIP3    H162324   1.008   0.689  13.113 -0.6915  1.0486 -0.4733
13611TIP3    H262325   1.053   0.729  13.251  1.9039 -1.1672 -0.5793
13612TIP3   OH262326   1.549   1.957  14.339  0.0884 -0.5303  0.2175
13612TIP3    H162327   1.642   1.975  14.322 -0.2432  1.6340  0.3306
13612TIP3    H262328   1.510   2.044  14.347 -1.6743 -1.3900  1.6828
13613TIP3   OH262329   2.065   4.452   6.195 -0.1516 -0.2291 -0.2689
13613TIP3    H162330   1.972   4.468   6.179 -0.1757  0.1059  0.1906
13613TIP3    H262331   2.109   4.484   6.116 -0.4137 -0.2865 -0.4400
13614TIP3   OH262332   5.611   6.498   4.127 -0.1778 -0.1512  0.4071
13614TIP3    H162333   5.668   6.493   4.204  0.7326  0.0708 -0.2478
13614TIP3    H262334   5.615   6.410   4.089 -0.3514 -0.1608  0.4094
13615TIP3   OH262335   1.447   3.777  15.800 -0.0293 -0.4991 -0.0990
13615TIP3    H162336   1.355   3.794  15.819 -0.0619 -1.1759  0.3863
13615TIP3    H262337   1.493   3.855  15.832 -0.2476 -0.9553  1.4423
13616TIP3   OH262338   5.283   0.451  10.841 -0.6327 -0.4286 -0.1939
13616TIP3    H162339   5.298   0.509  10.766 -1.1631  0.0139  0.0389
13616TIP3    H262340   5.210   0.491  10.888 -1.1781 -1.4252 -0.1695
13617TIP3   OH262341   6.619   4.708   0.920 -0.1390  0.3114  0.2054
13617TIP3    H162342   6.636   4.802   0.914 -0.0833  0.3137  0.3913
13617TIP3    H262343   6.637   4.686   1.011  1.5999 -0.2272 -0.2400
13618TIP3   OH262344   0.837   5.550  17.152 -0.0986  0.1252  0.5470
13618TIP3    H162345   0.904   5.526  17.216  0.0356 -1.7594 -0.2124
13618TIP3    H262346   0.807   5.466  17.117 -2.1280  0.9833  0.1093
13619TIP3   OH262347   5.705   3.617   4.641  0.3016  0.0462 -0.2677
13619TIP3    H162348   5.772   3.669   4.597  1.5349 -1.4925 -0.2921
13619TIP3    H262349   5.743   3.595   4.726 -1.1143  1.0096  0.6612
13620TIP3   OH262350   4.112   5.419   5.351 -0.1308 -0.0610 -0.4938
13620TIP3    H162351   4.108   5.405   5.445 -1.3771 -0.5912 -0.5925
13620TIP3    H262352   4.201   5.395   5.326 -0.0854 -0.9159  0.4147
13621TIP3   OH262353   3.552   2.820  16.171 -0.6861 -0.6063  0.0891
13621TIP3    H162354   3.559   2.813  16.076 -0.9571 -0.9612  0.0931
13621TIP3    H262355   3.527   2.732  16.200 -2.0325 -0.1545  0.3516
13622TIP3   OH262356   4.713   6.410  14.314  0.9484  0.4763 -0.0766
13622TIP3    H162357   4.672   6.458  14.242 -0.3432  0.5884  0.6975
13622TIP3    H262358   4.732   6.478  14.379 -0.7907  0.0224  0.9809
13623TIP3   OH262359   5.246   4.992  16.216 -0.0604  0.5097 -0.1367
13623TIP3    H162360   5.289   5.072  16.244  0.0075  0.4747 -0.1389
13623TIP3    H262361   5.227   5.006  16.123 -0.6282  0.7771  0.0148
13624TIP3   OH262362   4.119   2.160  15.102  0.0841 -0.0141 -0.0154
13624TIP3    H162363   4.123   2.251  15.075 -0.1954 -0.2995 -1.0659
13624TIP3    H262364   4.174   2.155  15.180  1.5843  0.6896 -0.9879
13625TIP3   OH262365   1.687   2.804   3.920 -0.1402 -0.4027  0.5609
13625TIP3    H162366   1.767   2.752   3.917 -0.5908 -1.0768 -0.2407
13625TIP3    H262367   1.678   2.829   4.012  0.7068 -0.7579  0.7496
13626TIP3   OH262368   1.643   5.617  13.611  0.2240 -0.0078 -0.4592
13626TIP3    H162369   1.700   5.649  13.541  1.2656 -0.4537  0.1670
13626TIP3    H262370   1.591   5.548  13.569  0.6740 -0.1117 -0.8583
13627TIP3   OH262371   2.932   5.543   4.849  0.3719  0.0389  0.1425
13627TIP3    H162372   2.860   5.585   4.894 -0.1409 -1.2597  0.5933
13627TIP3    H262373   3.006   5.603   4.860 -0.4108  0.9660  0.4383
13628TIP3   OH262374   0.239   1.573   2.256 -0.1402 -0.6829 -0.3412
13628TIP3    H162375   0.255   1.484   2.288 -1.3300 -0.8008 -0.0325
13628TIP3    H262376   0.322   1.618   2.270  0.1748 -1.4637  0.4596
13629TIP3   OH262377   0.035   1.848   1.411  0.0270 -0.1342 -0.4698
13629TIP3    H162378  -0.047   1.865   1.458 -1.4131 -1.0228 -2.5048
13629TIP3    H262379   0.069   1.768   1.451 -1.8070 -1.5715 -1.6217
13630TIP3   OH262380   3.190   6.241   3.547  0.1265 -0.3810 -0.3077
13630TIP3    H162381   3.108   6.193   3.557  0.4342 -0.7534  0.5835
13630TIP3    H262382   3.208   6.239   3.453 -0.3541 -1.2075 -0.3956
13631TIP3   OH262383   0.831   6.177  11.737 -0.3191 -0.4397 -0.1762
13631TIP3    H162384   0.738   6.198  11.745  0.2669  2.4563  0.1307
13631TIP3    H262385   0.852   6.189  11.645  0.1660  1.2380  0.1130
13632TIP3   OH262386   2.147   3.126   1.658  0.1509 -0.1356  0.5540
13632TIP3    H162387   2.168   3.214   1.629  0.0352  0.3013  1.7505
13632TIP3    H262388   2.149   3.073   1.578  1.6202  0.6733  0.0182
13633TIP3   OH262389   6.128   5.234  12.578 -0.5890  0.4304  0.1860
13633TIP3    H162390   6.119   5.304  12.642 -0.6910  0.3577  0.2526
13633TIP3    H262391   6.047   5.237  12.527 -1.0422 -0.2889  0.8459
13634TIP3   OH262392   3.314   0.072  13.654 -0.2051 -0.1157  0.1482
13634TIP3    H162393   3.253   0.053  13.583  1.0301 -0.7977 -0.7714
13634TIP3    H262394   3.291   0.010  13.723 -1.1733  0.3028  0.2178
13635TIP3   OH262395   1.055   4.606  14.889  0.1484  0.3057  0.9541
13635TIP3    H162396   1.036   4.643  14.975  0.4384 -1.4613  1.8073
13635TIP3    H262397   1.015   4.519  14.891 -0.0563  0.3208 -0.8046
13636TIP3   OH262398   5.661   0.079  15.462 -0.6304 -0.5725  0.2718
13636TIP3    H162399   5.737   0.123  15.424  0.2328 -3.0362 -1.0863
13636TIP3    H262400   5.652   0.118  15.549  1.5579  0.5251  0.0822
13637TIP3   OH262401   4.514   1.035  12.396  0.7288  0.1873 -0.4313
13637TIP3    H162402   4.599   0.993  12.413  0.5690 -0.5302 -1.2869
13637TIP3    H262403   4.493   1.008  12.306 -1.7096 -1.9557  0.6730
13638TIP3   OH262404   6.672   3.625   4.680 -0.2203  0.1618  0.3488
13638TIP3    H162405   6.636   3.570   4.611 -0.9711 -1.1483  1.7259
13638TIP3    H262406   6.738   3.570   4.722  2.3300  1.9496 -1.0849
13639TIP3   OH262407   5.954   0.102  16.729  0.3807 -0.1382 -0.0866
13639TIP3    H162408   5.878   0.151  16.760  0.5636  0.3225 -0.3460
13639TIP3    H262409   6.017   0.107  16.800  0.9692  1.2932 -0.6679
13640TIP3   OH262410   0.503   4.103   3.063  0.3095  0.1078  0.0928
13640TIP3    H162411   0.570   4.051   3.107  1.2061 -0.1397 -1.5210
13640TIP3    H262412   0.422   4.082   3.111  0.9964 -1.2055  0.7387
13641TIP3   OH262413   1.675   4.030   4.222  0.7056 -0.4521  0.0230
13641TIP3    H162414   1.640   4.039   4.133  1.4700  1.5767 -0.1323
13641TIP3    H262415   1.625   4.093   4.274  0.8210 -1.0379  0.8668
13642TIP3   OH262416   4.095   4.684  11.877 -0.4948 -0.2405 -0.3704
13642TIP3    H162417   4.153   4.624  11.923  0.4350  0.8567 -0.0828
13642TIP3    H262418   4.109   4.769  11.919 -0.7682  0.4714 -1.6610
13643TIP3   OH262419   1.114   0.932   3.543 -0.0468  0.1356 -0.4826
13643TIP3    H162420   1.114   0.964   3.633  0.2064  0.6158 -0.6479
13643TIP3    H262421   1.199   0.960   3.508 -0.3206  0.3256 -1.0006
13644TIP3   OH262422   0.151   4.516   3.058 -0.6587  0.2064 -0.5673
13644TIP3    H162423   0.229   4.551   3.016  0.7857 -0.8095  1.1344
13644TIP3    H262424   0.131   4.436   3.009  0.2553 -0.2934 -0.1587
13645TIP3   OH262425   3.015   3.347  15.177 -0.4612 -0.2541  0.3952
13645TIP3    H162426   2.927   3.325  15.207 -0.8013  3.0872  2.4161
13645TIP3    H262427   3.002   3.392  15.094 -0.4727 -1.2218 -0.1327
13646TIP3   OH262428   2.066   6.308  13.244 -0.1229  0.3817 -0.1749
13646TIP3    H162429   2.071   6.319  13.339 -0.2113 -0.3716 -0.0812
13646TIP3    H262430   2.107   6.223  13.227 -2.9781 -1.0465 -0.4707
13647TIP3   OH262431   6.662   4.882   5.614  0.4580  0.1191  0.4052
13647TIP3    H162432   6.654   4.977   5.602  2.0937  0.4482  1.5238
13647TIP3    H262433   6.578   4.847   5.586  0.3259  1.7501 -1.4503
13648TIP3   OH262434   2.911   6.415   5.756  0.2272  0.0522  0.0980
13648TIP3    H162435   2.827   6.414   5.710 -0.6888  0.3392  1.7047
13648TIP3    H262436   2.912   6.334   5.806 -0.2909  1.1835  2.0651
13649TIP3   OH262437   0.620   6.598   2.701  0.6961 -0.1856  0.0158
13649TIP3    H162438   0.639   6.632   2.614  0.0106 -0.0919 -0.1015
13649TIP3    H262439   0.530   6.566   2.696 -0.9936  3.6309  1.7563
13650TIP3   OH262440   3.866   1.923  16.288  0.6782  0.4060 -0.8839
13650TIP3    H162441   3.809   1.848  16.300  0.3408  0.8421  0.4310
13650TIP3    H262442   3.873   1.933  16.193 -1.2789  0.2206 -1.0936
13651TIP3   OH262443   5.621   1.954  14.734  0.0550 -0.1307  0.6538
13651TIP3    H162444   5.564   2.027  14.709 -0.0346 -0.9142 -1.6638
13651TIP3    H262445   5.689   1.953  14.667  2.4367  0.2886  2.9167
13652TIP3   OH262446   2.133   0.373   3.529  0.0053 -0.2408 -0.9208
13652TIP3    H162447   2.160   0.459   3.499  0.2890 -0.0549 -0.1533
13652TIP3    H262448   2.090   0.388   3.614 -1.4914 -0.6615 -1.5585
13653TIP3   OH262449   5.625   5.034   0.224  0.3876  0.2287  0.1378
13653TIP3    H162450   5.652   5.126   0.223  2.7555 -0.3766 -1.4029
13653TIP3    H262451   5.577   5.024   0.306  1.0313  2.5850  0.8908
13654TIP3   OH262452   1.818   2.198   4.201  0.5085 -0.3480 -0.0862
13654TIP3    H162453   1.780   2.118   4.166 -1.0161  0.6624 -0.8333
13654TIP3    H262454   1.879   2.228   4.134  2.1575 -1.5888  0.8020
13655TIP3   OH262455   5.202   3.846  13.999 -0.4786  0.4806  0.3294
13655TIP3    H162456   5.223   3.896  13.920 -0.8374  0.4635  0.2215
13655TIP3    H262457   5.218   3.907  14.071  1.2243  0.0628  0.3528
13656TIP3   OH262458   0.276   2.803   6.180 -0.1637  0.1007 -0.2300
13656TIP3    H162459   0.338   2.861   6.137  0.9121 -0.3367  0.6972
13656TIP3    H262460   0.313   2.716   6.170 -0.1929 -0.0760  1.0302
13657TIP3   OH262461   6.065   3.058  11.638 -0.6034  0.1654 -0.3341
13657TIP3    H162462   6.078   2.977  11.688  1.5976 -0.6841 -2.1189
13657TIP3    H262463   6.109   3.126  11.690  1.9123 -0.7511 -1.1665
13658TIP3   OH262464   0.982   3.858  11.473 -1.0267  0.3804 -0.5426
13658TIP3    H162465   0.977   3.878  11.566 -1.0276  0.7973 -0.6276
13658TIP3    H262466   0.893   3.832  11.448 -0.9127 -0.2370 -0.3208
13659TIP3   OH262467   0.026   6.362  12.299  0.0878  0.2567  0.4617
13659TIP3    H162468   0.102   6.383  12.353  0.5173 -1.3255  0.5296
13659TIP3    H262469   0.004   6.444  12.254  1.2424  0.9682  1.1594
13660TIP3   OH262470   5.885   0.111   4.992  0.3627  0.0773  0.8004
13660TIP3    H162471   5.980   0.112   4.994  0.3951 -1.1140  2.7205
13660TIP3    H262472   5.863   0.043   4.928  0.8251 -0.5018  1.2509
13661TIP3   OH262473   0.986   6.026  14.285  0.0763  0.4561 -0.4270
13661TIP3    H162474   0.966   6.089  14.216 -0.3282  1.5451  0.6529
13661TIP3    H262475   1.052   6.069  14.339 -0.3427  0.0497  0.4385
13662TIP3   OH262476   4.291   5.947   1.305  0.0020 -0.6552  0.5506
13662TIP3    H162477   4.228   5.907   1.366 -1.0446  0.8481  0.4884
13662TIP3    H262478   4.314   6.031   1.345 -0.0388 -0.0219 -0.7072
13663TIP3   OH262479   2.646   3.534  13.617 -0.4220  0.0520 -0.1675
13663TIP3    H162480   2.691   3.459  13.655 -0.7890  1.3141  3.0309
13663TIP3    H262481   2.559   3.502  13.595  0.1539 -0.9840 -1.0619
13664TIP3   OH262482   0.494   0.849  12.657  0.2581  0.5476 -0.4293
13664TIP3    H162483   0.413   0.896  12.635 -0.3923 -0.6556 -0.6984
13664TIP3    H262484   0.562   0.896  12.609 -0.3552  1.2588 -0.6349
13665TIP3   OH262485   0.386   0.930   1.826  0.1579 -0.8247 -0.3608
13665TIP3    H162486   0.377   0.889   1.912 -0.4585  0.1896  0.0704
13665TIP3    H262487   0.430   1.013   1.843 -2.1880  0.5663 -0.6436
13666TIP3   OH262488   4.307   6.390  16.246  0.4381  0.6903  0.0385
13666TIP3    H162489   4.281   6.428  16.329  0.2808 -0.9083  0.7614
13666TIP3    H262490   4.402   6.405  16.241  0.2904  1.6779  0.0023
13667TIP3   OH262491   6.123   4.424   1.303 -0.7550 -0.1912  0.2285
13667TIP3    H162492   6.190   4.391   1.363 -0.2041  1.1583  0.3782
13667TIP3    H262493   6.107   4.351   1.243  1.9808 -0.0344 -0.7807
13668TIP3   OH262494   1.062   3.420   1.480  0.3385 -0.4106 -0.1985
13668TIP3    H162495   1.119   3.345   1.498 -0.9687 -1.5198 -0.5272
13668TIP3    H262496   1.121   3.486   1.443  1.1498 -2.1715 -2.2605
13669TIP3   OH262497   3.581   6.596   1.765  0.6743  0.7359 -0.2649
13669TIP3    H162498   3.570   6.517   1.817 -0.2401  1.2338  0.3108
13669TIP3    H262499   3.669   6.587   1.727  0.5505 -0.5868 -0.2815
13670TIP3   OH262500   3.006   1.009   5.486 -0.0529 -0.0109  0.2166
13670TIP3    H162501   3.043   0.981   5.570  0.0527 -1.9583 -0.4458
13670TIP3    H262502   2.938   1.073   5.511  0.6714  0.2301  1.7002
13671TIP3   OH262503   2.615   4.933  15.221 -0.3972 -0.2095 -0.2195
13671TIP3    H162504   2.561   4.854  15.228 -1.2065  0.2313 -1.2892
13671TIP3    H262505   2.668   4.918  15.142  1.5523 -0.9102  1.1441
13672TIP3   OH262506   3.273   5.336  15.397 -0.2407 -0.1327  0.0645
13672TIP3    H162507   3.210   5.408  15.390 -0.4338 -0.2536  0.5144
13672TIP3    H262508   3.358   5.379  15.398 -0.3648  0.1008  0.5037
13673TIP3   OH262509   6.009   3.408  16.490 -0.4171 -0.1839 -0.3172
13673TIP3    H162510   5.951   3.478  16.521  2.8303  2.4717  0.4551
13673TIP3    H262511   6.033   3.360  16.569  1.1283  1.0675  0.0358
13674TIP3   OH262512   3.980   3.773   0.486 -0.1015  0.1964  0.5318
13674TIP3    H162513   3.888   3.747   0.488  0.1289 -0.7134 -0.0692
13674TIP3    H262514   4.009   3.750   0.398  0.6554  0.6688  0.6513
13675TIP3   OH262515   0.648   3.914   3.223  0.6745  0.6156 -0.0791
13675TIP3    H162516   0.726   3.870   3.191  1.0055 -0.2284  1.7165
13675TIP3    H262517   0.672   3.944   3.311 -1.2146 -0.3331  0.8240
13676TIP3   OH262518   5.212   6.142  14.795 -0.1693 -0.9505  0.4308
13676TIP3    H162519   5.303   6.164  14.775 -0.9727  2.3233 -0.2237
13676TIP3    H262520   5.178   6.105  14.714  0.3791 -1.5424  0.4623
13677TIP3   OH262521   5.132   4.498   2.121 -0.2523  0.0152  0.3169
13677TIP3    H162522   5.079   4.420   2.103 -1.1086  0.5801  0.3035
13677TIP3    H262523   5.220   4.475   2.091 -0.6066 -0.7625 -0.1617
13678TIP3   OH262524   1.098   1.532   0.147 -0.0292  0.7701 -0.1581
13678TIP3    H162525   1.129   1.501   0.062  0.4134 -0.0497  0.2881
13678TIP3    H262526   1.019   1.581   0.127  0.2639  0.8879 -1.0799
13679TIP3   OH262527   5.914   2.062   2.559  0.5836 -0.2030 -0.3146
13679TIP3    H162528   5.942   2.147   2.593  0.6621  0.1156 -1.1558
13679TIP3    H262529   5.867   2.022   2.632 -1.1447  1.3711 -0.5002
13680TIP3   OH262530   4.079   0.917   5.561  0.2188 -0.5831  0.5481
13680TIP3    H162531   4.045   1.002   5.591 -0.6699  0.2406 -2.4102
13680TIP3    H262532   4.174   0.929   5.559  0.1170  0.3299  0.3244
13681TIP3   OH262533   1.137   1.460   0.957 -0.3325  0.2218 -0.6042
13681TIP3    H162534   1.083   1.385   0.982 -1.5617  1.2070 -0.2204
13681TIP3    H262535   1.106   1.484   0.870  1.5100 -0.9813 -1.6610
13682TIP3   OH262536   1.172   5.892   5.410 -0.4748 -0.0359 -0.2275
13682TIP3    H162537   1.079   5.898   5.431 -0.5955  0.0854 -0.7866
13682TIP3    H262538   1.177   5.909   5.316 -0.1218 -2.2042 -0.6579
13683TIP3   OH262539   2.558   4.544   0.988 -0.2310  0.5332  0.2415
13683TIP3    H162540   2.623   4.528   1.057  0.1837  3.7756  0.7640
13683TIP3    H262541   2.476   4.512   1.025  0.6041 -1.4143  0.5467
13684TIP3   OH262542   4.569   4.530   4.228  0.0124  0.0334 -0.7551
13684TIP3    H162543   4.646   4.503   4.177 -0.2606  0.9819 -1.7169
13684TIP3    H262544   4.585   4.622   4.250 -0.5639  0.0637 -0.4265
13685TIP3   OH262545   2.890   3.843   3.562 -0.4198 -0.4384  0.8280
13685TIP3    H162546   2.862   3.821   3.651 -0.6268 -0.7218  0.6933
13685TIP3    H262547   2.827   3.908   3.533  0.4911  0.7562  1.4160
13686TIP3   OH262548   2.566   0.523  15.413  0.3160  0.2047  0.2608
13686TIP3    H162549   2.493   0.549  15.356 -0.0979  0.4150  0.8714
13686TIP3    H262550   2.525   0.472  15.483  1.0897 -1.9714 -0.7812
13687TIP3   OH262551   5.167   1.170  14.787 -0.0871 -0.0402  0.0093
13687TIP3    H162552   5.106   1.220  14.841 -1.3889 -0.7945 -0.6969
13687TIP3    H262553   5.114   1.097  14.753  0.0921  1.4009 -3.8373
13688TIP3   OH262554   6.261   6.338  11.576  0.4621 -0.1858  0.4661
13688TIP3    H162555   6.192   6.394  11.612  0.6989 -0.3354  1.1779
13688TIP3    H262556   6.291   6.286  11.651  0.6622 -0.8329 -0.0549
13689TIP3   OH262557   0.113   2.015  12.022 -0.0365  0.4452  0.5330
13689TIP3    H162558   0.191   1.972  11.988  0.5112  2.2587 -0.6664
13689TIP3    H262559   0.142   2.103  12.046 -1.5335  0.8995  0.8043
13690TIP3   OH262560   1.900   5.331   5.293  0.0859  0.4970 -0.0341
13690TIP3    H162561   1.834   5.378   5.243 -0.3138  0.5996  0.5800
13690TIP3    H262562   1.922   5.391   5.365  1.3955  0.7849 -0.6472
13691TIP3   OH262563   1.202   3.148   1.532  0.6842  0.3169  0.0050
13691TIP3    H162564   1.123   3.096   1.517 -0.1093  1.0406  1.4256
13691TIP3    H262565   1.270   3.105   1.479 -0.7352 -0.0656 -1.6016
13692TIP3   OH262566   6.399   2.514  13.237  0.7483 -0.3382 -0.1843
13692TIP3    H162567   6.401   2.517  13.333  0.0739  1.3601 -0.1914
13692TIP3    H262568   6.337   2.445  13.217  0.7803 -0.6137  0.5999
13693TIP3   OH262569   2.709   3.696  13.824  0.8539  0.2456  0.1574
13693TIP3    H162570   2.733   3.787  13.805  1.8704 -0.0072  0.1644
13693TIP3    H262571   2.682   3.660  13.740  0.0008  0.6797  0.2410
13694TIP3   OH262572   5.373   3.235  15.081  0.2267 -0.0763 -0.1447
13694TIP3    H162573   5.411   3.182  15.011 -1.0344 -1.7660  0.4057
13694TIP3    H262574   5.284   3.254  15.051  0.4453  1.2642 -0.0463
13695TIP3   OH262575   3.074   0.700   0.436 -0.1478  0.4515 -0.2126
13695TIP3    H162576   3.117   0.738   0.512 -0.8957 -1.9126  1.4861
13695TIP3    H262577   3.023   0.772   0.399  0.4001  1.7132  1.3819
13696TIP3   OH262578   5.352   0.989  12.515  0.3504 -0.2986  0.1974
13696TIP3    H162579   5.341   0.989  12.610  1.3703  0.8077  0.3384
13696TIP3    H262580   5.445   1.008  12.501 -0.1253  1.3158 -1.0331
13697TIP3   OH262581   4.428   2.461  13.948  0.6234 -0.2680  0.1709
13697TIP3    H162582   4.343   2.431  13.981  0.2850  0.4859  0.0038
13697TIP3    H262583   4.487   2.387  13.963  0.0194 -0.6682  0.6200
13698TIP3   OH262584   1.267   0.897  13.490 -0.0373  1.1612 -0.5292
13698TIP3    H162585   1.220   0.824  13.449  0.1698 -0.2827  1.6676
13698TIP3    H262586   1.357   0.887  13.459  0.6365 -1.2880  1.7840
13699TIP3   OH262587   0.242   0.254  13.622  0.0254  0.1302 -0.4340
13699TIP3    H162588   0.290   0.334  13.601  1.8419 -1.1577 -1.5857
13699TIP3    H262589   0.242   0.250  13.717  1.4006  0.7028 -0.3756
13700TIP3   OH262590   6.454   0.389   1.682  0.2038 -0.2177 -0.2519
13700TIP3    H162591   6.468   0.476   1.721 -0.5362 -0.2180  0.0321
13700TIP3    H262592   6.465   0.328   1.755 -1.8345 -0.1759  0.1693
13701TIP3   OH262593   6.808   3.578  15.138 -0.3222 -0.3144  0.0731
13701TIP3    H162594   6.873   3.508  15.128 -0.2862 -0.4063  0.8653
13701TIP3    H262595   6.747   3.545  15.204  0.4083  0.9144  1.4141
13702TIP3   OH262596   0.294   0.815   3.625  0.3583  0.8516  0.1229
13702TIP3    H162597   0.364   0.839   3.685 -1.1646  0.5797  2.1058
13702TIP3    H262598   0.215   0.815   3.679 -0.8182 -1.2559 -1.4638
13703TIP3   OH262599   5.374   6.236   6.116 -0.3247 -0.8105  0.0861
13703TIP3    H162600   5.416   6.300   6.058 -0.0079 -2.3232 -1.4501
13703TIP3    H262601   5.442   6.170   6.133 -1.3511 -2.0789 -0.5221
13704TIP3   OH262602   1.533   6.266  14.212  0.4914  0.8491 -0.1714
13704TIP3    H162603   1.607   6.276  14.154  0.4441  1.3023 -0.1594
13704TIP3    H262604   1.551   6.325  14.285 -0.0343  1.2060 -0.3258
13705TIP3   OH262605   5.668   6.226  16.385  0.2949  0.2726 -0.0170
13705TIP3    H162606   5.747   6.267  16.419  2.3397 -0.4548 -3.3976
13705TIP3    H262607   5.676   6.134  16.410 -0.5671  0.5439  1.3428
13706TIP3   OH262608   3.918   5.305  16.177 -0.2523 -0.0239 -0.2367
13706TIP3    H162609   3.850   5.283  16.241  0.0608  0.4504  0.2671
13706TIP3    H262610   3.929   5.399  16.185  1.9638 -0.3312  1.2333
13707TIP3   OH262611   4.267   0.354  16.641 -0.0140  0.1408  0.3847
13707TIP3    H162612   4.348   0.403  16.625 -0.5241  0.6081 -0.8559
13707TIP3    H262613   4.197   0.418  16.630 -0.7682 -0.9958 -2.4366
13708TIP3   OH262614   1.474   0.286   6.028 -0.3680  0.5498  0.5517
13708TIP3    H162615   1.524   0.206   6.041 -0.2395  0.6488  0.6720
13708TIP3    H262616   1.427   0.299   6.110 -1.7855 -0.3651 -0.0922
13709TIP3   OH262617   2.453   3.590  15.256  0.4472 -0.3213 -0.3019
13709TIP3    H162618   2.415   3.593  15.343  0.7841 -0.1244 -0.1603
13709TIP3    H262619   2.451   3.681  15.225 -0.4609 -0.5146 -0.8449
13710TIP3   OH262620   1.787   2.451   1.969  0.0261 -0.0403 -0.1147
13710TIP3    H162621   1.724   2.472   1.901  0.6492 -0.5810 -0.8743
13710TIP3    H262622   1.839   2.379   1.933  0.6335 -0.0630  0.7636
13711TIP3   OH262623   0.184   2.889   3.092 -0.1890  0.5686 -0.4043
13711TIP3    H162624   0.208   2.841   3.012  0.2553  1.0986 -0.5997
13711TIP3    H262625   0.132   2.827   3.143 -0.0854  0.0673 -0.8983
13712TIP3   OH262626   0.841   3.130  15.508  0.3189 -0.1301 -0.3591
13712TIP3    H162627   0.752   3.147  15.540  0.3495 -0.0273 -0.3297
13712TIP3    H262628   0.842   3.168  15.420  0.4686  0.2537 -0.1915
13713TIP3   OH262629   5.322   2.856   0.880 -0.4370 -0.1345 -0.6273
13713TIP3    H162630   5.325   2.823   0.790 -0.2693 -0.8084 -0.3758
13713TIP3    H262631   5.228   2.863   0.899 -0.4776 -1.2464 -0.4008
13714TIP3   OH262632   2.799   1.544   4.980 -0.2680  0.3932 -0.1028
13714TIP3    H162633   2.873   1.493   4.948 -0.4372 -0.1194  0.3057
13714TIP3    H262634   2.831   1.586   5.060 -0.2933  0.4985 -0.1477
13715TIP3   OH262635   5.844   1.299  11.903  0.1053 -0.0800 -0.1543
13715TIP3    H162636   5.807   1.230  11.848 -0.5335 -0.9372  1.3013
13715TIP3    H262637   5.939   1.288  11.895  0.1029  0.8142 -2.2694
13716TIP3   OH262638   0.496   3.253  13.101  0.1087  0.6656  0.0838
13716TIP3    H162639   0.440   3.190  13.145 -1.3445  0.8006 -1.4789
13716TIP3    H262640   0.436   3.308  13.050  1.5970  1.1220 -1.2897
13717TIP3   OH262641   3.720   6.571  13.613 -0.4873  0.0805  0.1311
13717TIP3    H162642   3.809   6.602  13.598 -0.7446  1.1462  0.6789
13717TIP3    H262643   3.702   6.512  13.540 -0.3644  2.1359 -1.6602
13718TIP3   OH262644   4.378   1.926   4.997  0.2418 -0.1971 -0.1776
13718TIP3    H162645   4.294   1.881   4.985  0.2767  0.0236 -1.3654
13718TIP3    H262646   4.443   1.856   4.994  0.1541 -0.2880  0.0187
13719TIP3   OH262647   1.249   3.420  10.942  0.0397  0.5409  1.0540
13719TIP3    H162648   1.327   3.426  10.886 -0.5154 -1.0734  0.0420
13719TIP3    H262649   1.229   3.511  10.964  1.6956  1.0537  0.6165
13720TIP3   OH262650   3.834   5.602  11.346  0.6013 -0.1368 -0.0218
13720TIP3    H162651   3.930   5.601  11.354  1.0027 -1.9852 -3.1282
13720TIP3    H262652   3.805   5.526  11.396  1.3969 -2.4311 -2.7465
13721TIP3   OH262653   3.600   5.183   0.966  0.1532 -0.1906  0.1464
13721TIP3    H162654   3.559   5.162   1.050 -0.0193  1.6924  0.5828
13721TIP3    H262655   3.545   5.141   0.901 -1.7205  1.1445  0.7954
13722TIP3   OH262656   4.335   6.223  13.184 -0.3199 -0.5494 -0.1591
13722TIP3    H162657   4.326   6.133  13.217  3.5961 -0.8287  0.6310
13722TIP3    H262658   4.382   6.213  13.102  0.9628  0.7713  0.3770
13723TIP3   OH262659   2.834   0.897  14.751  0.7031  0.6964  0.4995
13723TIP3    H162660   2.788   0.898  14.835 -0.2151 -0.7561  0.0432
13723TIP3    H262661   2.819   0.985  14.715  0.0638  0.9220  1.2838
13724TIP3   OH262662   3.837   2.455  17.198  0.3924 -0.2455  0.4204
13724TIP3    H162663   3.805   2.527  17.253  1.8466 -0.7637  2.0391
13724TIP3    H262664   3.904   2.495  17.143  1.1065 -0.3100  1.2263
13725TIP3   OH262665   1.517   3.313  13.902  0.1010  0.1463  0.1672
13725TIP3    H162666   1.575   3.285  13.831 -1.4992 -0.1544 -1.0746
13725TIP3    H262667   1.531   3.408  13.907  2.1280 -0.1447  1.2647
13726TIP3   OH262668   6.428   3.638   4.257 -0.0415 -0.5285 -0.2642
13726TIP3    H162669   6.487   3.703   4.294 -2.6736  1.8215  0.1530
13726TIP3    H262670   6.395   3.590   4.332  1.2792 -1.8937 -0.5041
13727TIP3   OH262671   4.396   1.888  13.323 -0.0436 -0.0644 -0.0481
13727TIP3    H162672   4.345   1.903  13.403 -0.8458  1.0658 -0.7488
13727TIP3    H262673   4.370   1.959  13.264  0.0484 -1.2316 -1.5558
13728TIP3   OH262674   4.682   2.439  12.294 -0.0917 -0.0275 -0.5413
13728TIP3    H162675   4.611   2.399  12.343 -1.7987 -0.4888 -3.2151
13728TIP3    H262676   4.724   2.365  12.248 -0.7077  0.7193 -2.3715
13729TIP3   OH262677   1.747   0.566  14.850  0.2433  0.0466 -0.1870
13729TIP3    H162678   1.784   0.517  14.776  1.0405 -0.6216  0.6219
13729TIP3    H262679   1.662   0.526  14.865  0.5042 -0.4919 -0.1136
13730TIP3   OH262680   1.186   2.526  13.466 -0.6067 -0.1514  0.4570
13730TIP3    H162681   1.250   2.594  13.447 -0.8031 -0.1791 -0.3043
13730TIP3    H262682   1.216   2.488  13.549  0.3862 -0.1957  0.0943
13731TIP3   OH262683   5.351   6.537   4.250 -0.1983  0.1039  0.1072
13731TIP3    H162684   5.443   6.522   4.230 -0.0894 -2.5653  2.1413
13731TIP3    H262685   5.348   6.625   4.286  1.8272 -0.3047  1.4005
13732TIP3   OH262686   0.302   2.845  12.299  0.6423 -0.3584 -0.1497
13732TIP3    H162687   0.357   2.919  12.274 -0.0274  0.3022  0.2963
13732TIP3    H262688   0.247   2.829  12.222 -0.4310  0.7576  0.3576
13733TIP3   OH262689   5.580   3.066   3.766 -0.3271  0.4131 -0.6028
13733TIP3    H162690   5.485   3.064   3.756 -0.3640 -0.8089 -0.2066
13733TIP3    H262691   5.608   2.978   3.740  0.3839 -0.2481  2.1129
13734TIP3   OH262692   1.136   5.281  11.981 -0.2821 -0.4126 -0.2158
13734TIP3    H162693   1.070   5.297  12.049 -0.6239  3.5205 -1.2458
13734TIP3    H262694   1.085   5.278  11.900  0.6230  1.6959 -0.9169
13735TIP3   OH262695   4.261   2.936  13.840  0.6416  0.4051 -0.0547
13735TIP3    H162696   4.278   2.842  13.830  0.4550  0.5232 -1.6399
13735TIP3    H262697   4.333   2.968  13.895  1.2580 -0.4832 -0.3234
13736TIP3   OH262698   1.551   6.259   4.485  0.1132  0.2244  0.2193
13736TIP3    H162699   1.632   6.244   4.535 -0.2000  0.3892  0.7798
13736TIP3    H262700   1.578   6.317   4.414  0.8796 -1.2052 -0.6952
13737TIP3   OH262701   2.480   0.083  12.810  0.7640  0.3819  0.6351
13737TIP3    H162702   2.428   0.015  12.768  1.6636 -0.6847  1.1883
13737TIP3    H262703   2.522   0.039  12.885  0.8517  1.7079  1.4023
13738TIP3   OH262704   6.168   5.537  10.963  0.3225 -0.2549 -0.0702
13738TIP3    H162705   6.081   5.534  10.922  0.4038  0.0236 -0.2627
13738TIP3    H262706   6.225   5.573  10.896  0.7463 -1.1739 -0.2107
13739TIP3   OH262707   1.035   3.481  12.862  0.0653 -0.2969  0.4205
13739TIP3    H162708   1.006   3.390  12.860 -1.2855  0.1128  0.1858
13739TIP3    H262709   1.039   3.507  12.770 -3.1033  0.8909  0.4910
13740TIP3   OH262710   2.572   5.876   3.920 -0.8058  0.1609 -0.1695
13740TIP3    H162711   2.581   5.808   3.853 -2.5347 -1.3525  1.0131
13740TIP3    H262712   2.638   5.854   3.986 -0.6746  0.2451 -0.2725
13741TIP3   OH262713   6.706   3.371  12.515  0.1082 -0.2514 -0.3325
13741TIP3    H162714   6.732   3.390  12.425  0.2056  0.2336 -0.2056
13741TIP3    H262715   6.615   3.402  12.520  0.1844 -0.0500 -0.1941
13742TIP3   OH262716   6.007   5.685  16.759  0.3818  0.1035 -0.2934
13742TIP3    H162717   5.935   5.692  16.697 -0.4930  1.8790  0.8490
13742TIP3    H262718   5.976   5.624  16.826 -0.8562  2.0957  1.0833
13743TIP3   OH262719   4.107   6.541   2.235  0.9387  0.6925  0.2957
13743TIP3    H162720   4.101   6.445   2.234 -0.5646  0.7570 -0.6108
13743TIP3    H262721   4.198   6.560   2.216  1.1230 -0.5602 -0.1642
13744TIP3   OH262722   1.618   0.383  11.955  0.5953  0.1574 -0.1649
13744TIP3    H162723   1.584   0.353  12.040  0.1245  3.8117  1.0977
13744TIP3    H262724   1.560   0.342  11.891 -1.5558  0.3491  1.5147
13745TIP3   OH262725   6.059   1.526  14.287  0.1775 -1.1769  0.2030
13745TIP3    H162726   6.059   1.607  14.338  0.3721 -1.7315  1.0923
13745TIP3    H262727   5.982   1.478  14.317 -0.0334 -1.2497 -0.4449
13746TIP3   OH262728   4.634   4.145   2.428  0.1584  0.3258 -0.1730
13746TIP3    H162729   4.610   4.238   2.428 -1.0332  0.0629 -2.0395
13746TIP3    H262730   4.559   4.101   2.388  0.6760 -1.4703  0.7240
13747TIP3   OH262731   6.619   5.951  16.315 -0.3217  0.1523 -0.1078
13747TIP3    H162732   6.541   5.968  16.262 -1.1337 -1.8809  0.3257
13747TIP3    H262733   6.682   5.913  16.254 -0.7049 -0.7802  0.0616
13748TIP3   OH262734   1.530   2.216  12.107  0.3385 -0.3052  0.1214
13748TIP3    H162735   1.461   2.225  12.041  0.0724  0.1221  0.4581
13748TIP3    H262736   1.557   2.124  12.100 -1.6073 -1.0345  1.3003
13749TIP3   OH262737   1.599   3.835   3.920 -0.5333  0.7536 -0.3486
13749TIP3    H162738   1.545   3.872   3.851  0.1921  1.0859 -0.7405
13749TIP3    H262739   1.617   3.745   3.891 -1.6159  0.3351  0.2171
13750TIP3   OH262740   4.650   3.260  11.346 -0.0931 -0.4493 -0.6540
13750TIP3    H162741   4.722   3.322  11.342 -1.0130  0.8231  1.2308
13750TIP3    H262742   4.593   3.285  11.273 -1.7879  2.8010  1.5366
13751TIP3   OH262743   5.036   3.141   2.550  0.2729 -0.5456 -0.2378
13751TIP3    H162744   5.062   3.233   2.554  1.4548 -0.8913  1.4215
13751TIP3    H262745   4.964   3.134   2.612  0.3949 -0.7911 -0.1212
13752TIP3   OH262746   4.621   3.428   1.212 -0.2282 -0.0977 -0.1634
13752TIP3    H162747   4.588   3.480   1.286 -2.0378 -2.1314  0.5678
13752TIP3    H262748   4.635   3.492   1.142 -0.8340  1.5688  1.1607
13753TIP3   OH262749   0.000   4.073  15.121  0.3839  0.7611 -0.0458
13753TIP3    H162750   0.005   3.983  15.153 -1.2640  0.8830  0.6631
13753TIP3    H262751   0.051   4.073  15.040  0.3060 -0.8290 -0.1210
13754TIP3   OH262752   0.632   5.884  16.557 -0.2319 -0.2792  0.3612
13754TIP3    H162753   0.578   5.822  16.508  0.5015  0.9296 -2.1011
13754TIP3    H262754   0.704   5.831  16.592 -0.5173 -1.0964 -0.2753
13755TIP3   OH262755   3.109   0.010  11.824 -0.2477 -0.4762  0.4152
13755TIP3    H162756   3.074   0.069  11.757 -0.4535 -1.5900 -0.5061
13755TIP3    H262757   3.203   0.027  11.824 -0.5114  1.1215  1.4771
13756TIP3   OH262758   2.691   0.597   3.860  0.1251  0.1139  0.6488
13756TIP3    H162759   2.628   0.547   3.807  0.6095 -0.1913  0.3608
13756TIP3    H262760   2.740   0.648   3.796 -0.0346  0.5851  0.9024
13757TIP3   OH262761   1.882   5.153  14.040 -0.6052 -0.3327 -0.4715
13757TIP3    H162762   1.927   5.071  14.021 -2.1517 -0.9775 -1.5449
13757TIP3    H262763   1.909   5.176  14.129  0.9024 -1.2685 -0.6574
13758TIP3   OH262764   2.113   2.599  12.074  0.1227  0.1028  0.1574
13758TIP3    H162765   2.180   2.561  12.017 -1.5135 -1.4002 -0.8674
13758TIP3    H262766   2.032   2.593  12.023 -0.4866  4.2254  0.2841
13759TIP3   OH262767   5.441   0.718  16.879 -0.6000  0.1593 -0.1838
13759TIP3    H162768   5.390   0.795  16.856 -1.6196 -0.3106  0.4332
13759TIP3    H262769   5.458   0.726  16.972  2.5095  1.4642 -0.7678
13760TIP3   OH262770   0.225   3.479   3.152 -0.1764 -0.7691 -0.9953
13760TIP3    H162771   0.299   3.524   3.192 -0.2990 -2.0593  0.8311
13760TIP3    H262772   0.264   3.425   3.082  0.6049 -1.3151 -0.1591
13761TIP3   OH262773   1.850   1.208  15.750  0.1503  0.4396 -0.0214
13761TIP3    H162774   1.846   1.160  15.667 -0.0697  1.5814 -0.6967
13761TIP3    H262775   1.794   1.158  15.809  0.6304 -0.6166 -0.4260
13762TIP3   OH262776   3.387   1.704   2.916 -0.6788 -0.0419 -0.1546
13762TIP3    H162777   3.332   1.778   2.940  0.4134  0.8935 -0.4366
13762TIP3    H262778   3.477   1.738   2.922 -0.1450 -1.4172 -0.0477
13763TIP3   OH262779   3.591   0.147  17.017 -0.2684 -0.2568 -0.0762
13763TIP3    H162780   3.613   0.188  16.934 -0.2906 -1.2001 -0.5565
13763TIP3    H262781   3.575   0.220  17.077  1.2218  0.4446 -0.4952
13764TIP3   OH262782   2.536   2.500  11.797  0.1823 -0.1354 -0.3365
13764TIP3    H162783   2.598   2.523  11.866  2.5363  2.0252 -2.9523
13764TIP3    H262784   2.450   2.503  11.840  1.6345 -0.9779  2.8906
13765TIP3   OH262785   3.260   0.232  15.818 -0.3637  0.2674 -0.2088
13765TIP3    H162786   3.252   0.186  15.902 -0.4706 -0.7210 -0.7537
13765TIP3    H262787   3.291   0.320  15.842 -0.1279 -0.0904  0.8420
13766TIP3   OH262788   1.166   0.126   4.574 -0.4224 -0.0860  0.0740
13766TIP3    H162789   1.186   0.033   4.584  0.0592  0.0968  0.8513
13766TIP3    H262790   1.182   0.164   4.660  1.9239  1.1944 -0.8436
13767TIP3   OH262791   0.353   1.360  16.402 -0.2579 -0.1814 -0.2600
13767TIP3    H162792   0.444   1.342  16.381  0.6516  0.2888  2.7172
13767TIP3    H262793   0.326   1.429  16.342  1.0754 -0.8727 -1.6969
13768TIP3   OH262794   2.510   3.291  11.602  0.1175  0.1906 -0.5617
13768TIP3    H162795   2.513   3.360  11.536  0.5524 -2.2349 -3.2689
13768TIP3    H262796   2.418   3.265  11.607  0.1386  0.1312 -0.4647
13769TIP3   OH262797   6.637   0.469   4.334 -0.3104 -0.2172  0.1990
13769TIP3    H162798   6.573   0.517   4.281 -1.0248 -1.0993  0.2550
13769TIP3    H262799   6.596   0.463   4.421  0.6567  0.8215  0.7535
13770TIP3   OH262800   2.994   6.660  13.230 -0.1856 -0.2792  0.8380
13770TIP3    H162801   3.049   6.651  13.153  2.5770  0.7972  2.5570
13770TIP3    H262802   2.931   6.728  13.206  0.9257  0.3833 -0.3277
13771TIP3   OH262803   4.370   5.229   0.462 -0.4339  0.1866  0.3955
13771TIP3    H162804   4.397   5.270   0.545 -0.7517 -1.1788  1.2016
13771TIP3    H262805   4.277   5.210   0.475 -0.1797 -1.2326  0.2518
13772TIP3   OH262806   3.223   3.818  15.103 -0.5035  0.0434 -0.3070
13772TIP3    H162807   3.186   3.733  15.124 -0.6174 -0.2914 -1.7733
13772TIP3    H262808   3.233   3.818  15.008  0.9000  1.0851 -0.2089
13773TIP3   OH262809   3.835   1.747  14.417  0.3695 -0.3240  0.0779
13773TIP3    H162810   3.826   1.658  14.451  0.9530 -0.9417 -1.3101
13773TIP3    H262811   3.749   1.788  14.431  0.0628 -1.1329  0.6046
13774TIP3   OH262812   1.483   3.074   2.741  0.2150 -0.1107 -0.3470
13774TIP3    H162813   1.550   3.126   2.695  0.9909 -0.2746  0.5620
13774TIP3    H262814   1.531   3.033   2.814 -0.9065 -0.1440  0.3871
13775TIP3   OH262815   0.064   3.962  10.823 -0.7436 -0.1247 -0.6012
13775TIP3    H162816   0.047   4.006  10.906  0.6628  0.6106 -0.6779
13775TIP3    H262817  -0.018   3.971  10.774 -1.3794 -0.0166  0.4495
13776TIP3   OH262818   2.791   5.600  15.002  0.1635  0.2404 -0.1619
13776TIP3    H162819   2.805   5.693  14.984 -1.2365  0.3604 -0.7230
13776TIP3    H262820   2.856   5.579  15.069  0.0303  1.8065  0.5067
13777TIP3   OH262821   3.585   6.094   2.400 -0.0036 -0.2939 -1.0634
13777TIP3    H162822   3.662   6.107   2.456 -1.0481 -1.5725  0.7471
13777TIP3    H262823   3.622   6.067   2.316  1.5627  0.3855 -0.6413
13778TIP3   OH262824   5.513   1.297  14.982  0.3025  0.1199  0.5973
13778TIP3    H162825   5.448   1.364  15.000  1.2087  1.0386  0.5406
13778TIP3    H262826   5.543   1.316  14.893  0.9596 -0.0155  0.7852
13779TIP3   OH262827   6.264   3.784   0.723 -0.2361  0.7537  0.7134
13779TIP3    H162828   6.258   3.727   0.800  0.5863  0.8321  0.8449
13779TIP3    H262829   6.343   3.754   0.678 -0.6527  0.7828 -0.0484
13780TIP3   OH262830   3.903   4.246  12.258  0.1711 -0.3764  0.2931
13780TIP3    H162831   3.855   4.328  12.268  0.3813 -0.4633  2.4093
13780TIP3    H262832   3.864   4.205  12.181 -1.6650  0.5589  0.6589
13781TIP3   OH262833   3.029   4.346  13.894  0.2544  0.0624  0.1956
13781TIP3    H162834   3.105   4.391  13.857  0.9068 -1.6702 -0.7187
13781TIP3    H262835   3.038   4.256  13.863 -1.7215 -0.3879  0.8026
13782TIP3   OH262836   0.650   6.414  16.311 -0.2241  0.2249  0.0001
13782TIP3    H162837   0.727   6.359  16.309 -0.4845 -0.2350  1.4570
13782TIP3    H262838   0.627   6.421  16.404 -2.1753 -0.0072 -0.4136
13783TIP3   OH262839   5.771   4.439   2.901  0.2213  0.5370  0.2820
13783TIP3    H162840   5.848   4.432   2.845  1.3594 -1.5400  1.9645
13783TIP3    H262841   5.700   4.402   2.849  0.9165  0.0574 -0.3504
13784TIP3   OH262842   1.148   5.644  12.602  0.4276  0.3126  0.1390
13784TIP3    H162843   1.116   5.718  12.653 -2.0284 -0.0085 -0.7761
13784TIP3    H262844   1.124   5.567  12.655 -2.6880 -0.0605 -1.5528
13785TIP3   OH262845   4.222   4.639  10.742  1.2092  0.4418  0.1949
13785TIP3    H162846   4.128   4.648  10.730  1.0465 -0.9695  0.2508
13785TIP3    H262847   4.259   4.720  10.707  0.0265  0.7442 -0.3879
13786TIP3   OH262848   6.306   2.122   1.150  0.2638  0.2243  0.0302
13786TIP3    H162849   6.362   2.182   1.100 -1.6395  1.4171 -0.8012
13786TIP3    H262850   6.342   2.035   1.134  2.4450  1.0129  0.3605
13787TIP3   OH262851   5.315   4.835  15.519  0.6245  0.5034  0.0380
13787TIP3    H162852   5.234   4.833  15.570  0.7682 -1.3352  0.2601
13787TIP3    H262853   5.361   4.913  15.551  0.4160 -0.2130  2.2837
13788TIP3   OH262854   4.530   4.637   3.450  0.0335 -0.1876  0.0859
13788TIP3    H162855   4.497   4.727   3.450  1.0546  0.2737  2.4713
13788TIP3    H262856   4.541   4.615   3.358 -0.8575  1.8932 -0.5791
13789TIP3   OH262857   4.310   3.066   0.798 -0.0105 -0.2001 -0.1388
13789TIP3    H162858   4.261   3.088   0.719  0.2175  1.8897  0.2520
13789TIP3    H262859   4.400   3.053   0.769 -0.0388 -0.0310 -0.2990
13790TIP3   OH262860   4.537   2.742   3.436  0.0334 -0.1284 -0.2562
13790TIP3    H162861   4.489   2.688   3.499  1.3111  0.7235  1.5661
13790TIP3    H262862   4.627   2.744   3.470  0.6091  0.9834 -1.7134
13791TIP3   OH262863   5.015   2.759   0.244 -0.3284 -0.3492 -0.4313
13791TIP3    H162864   4.988   2.683   0.295 -0.2049 -1.0489 -1.3741
13791TIP3    H262865   4.945   2.770   0.179  0.5463 -0.8310 -1.4945
13792TIP3   OH262866   3.332   3.112   5.679  0.0661 -0.4119  0.3334
13792TIP3    H162867   3.261   3.118   5.743  0.7054  1.2782  0.9561
13792TIP3    H262868   3.347   3.018   5.668 -0.8873 -0.7626  1.7307
13793TIP3   OH262869   4.557   0.114   1.832 -0.4471  0.6947  0.0504
13793TIP3    H162870   4.576   0.191   1.778 -1.5131 -0.2817 -1.7939
13793TIP3    H262871   4.517   0.150   1.912 -0.3552  2.0731 -0.4983
13794TIP3   OH262872   1.986   4.227   2.564 -0.1367 -0.6938 -0.2285
13794TIP3    H162873   1.905   4.276   2.574  0.6675  0.5832  0.2715
13794TIP3    H262874   1.981   4.189   2.476 -0.5419  0.7709 -0.8646
13795TIP3   OH262875   5.850   3.098  16.464  0.2758  0.2211 -0.3286
13795TIP3    H162876   5.813   3.130  16.382  0.6106 -0.7615 -0.8853
13795TIP3    H262877   5.937   3.139  16.468  0.2466  0.2969 -0.4528
13796TIP3   OH262878   1.441   2.807   5.757  0.3341 -0.1670  0.0563
13796TIP3    H162879   1.357   2.765   5.775  0.7220 -0.8986  0.2023
13796TIP3    H262880   1.437   2.889   5.806 -1.4159  1.2061 -2.2031
13797TIP3   OH262881   0.969   2.101   3.360 -0.0283 -0.2409 -0.5719
13797TIP3    H162882   0.939   2.168   3.299 -2.5682 -1.8525 -1.2239
13797TIP3    H262883   1.026   2.045   3.307  0.9081  0.5176 -0.4008
13798TIP3   OH262884   4.563   0.755   3.233 -0.6937  0.4894 -1.1731
13798TIP3    H162885   4.569   0.845   3.265 -0.4124  1.5990 -4.0531
13798TIP3    H262886   4.652   0.720   3.244  0.6105  2.3071 -4.3615
13799TIP3   OH262887   0.411   0.320   3.337 -0.4146  0.0146  0.5915
13799TIP3    H162888   0.324   0.322   3.376 -0.5749  0.8604  0.2122
13799TIP3    H262889   0.436   0.227   3.339 -0.9240 -0.1137  1.5672
13800TIP3   OH262890   0.284   0.633   4.071  0.2793 -0.0945 -0.0836
13800TIP3    H162891   0.341   0.675   4.136  4.2796 -0.4010 -2.9821
13800TIP3    H262892   0.292   0.539   4.089  1.5481 -0.1922 -0.9770
13801TIP3   OH262893   5.639   1.237  10.400  0.9508  0.0018  0.2246
13801TIP3    H162894   5.713   1.176  10.396  2.1060  1.3756 -0.8020
13801TIP3    H262895   5.562   1.182  10.412  1.9403 -1.6426 -0.6556
13802TIP3   OH262896   0.268   1.504  14.683  0.1613  0.1064  0.2180
13802TIP3    H162897   0.224   1.516  14.767  0.9450  1.1456  0.5093
13802TIP3    H262898   0.230   1.424  14.647 -1.3377  0.5022  0.8258
13803TIP3   OH262899   2.231   6.264   3.092 -0.5240 -0.6189  0.2139
13803TIP3    H162900   2.175   6.341   3.095  0.5347  0.1297  1.4837
13803TIP3    H262901   2.177   6.193   3.128 -0.6163  0.1313  1.6155
13804TIP3   OH262902   4.041   0.435  10.962  0.4401  0.2357  0.5540
13804TIP3    H162903   4.018   0.342  10.954 -0.9650  0.5670  0.4579
13804TIP3    H262904   4.129   0.441  10.925  0.5724 -1.0617  0.5921
13805TIP3   OH262905   4.296   4.422  11.772 -0.4829 -0.2139  0.3161
13805TIP3    H162906   4.391   4.419  11.762 -0.5238  0.4412 -0.3530
13805TIP3    H262907   4.282   4.427  11.867  0.2224  1.3165  0.3786
13806TIP3   OH262908   4.604   5.874   3.854 -0.4691 -0.2447  0.2321
13806TIP3    H162909   4.637   5.784   3.858 -3.9322 -1.6260  0.4156
13806TIP3    H262910   4.639   5.908   3.771  2.2824 -1.0510  0.9348
13807TIP3   OH262911   4.120   0.163   5.230 -0.6585 -0.3400  0.3929
13807TIP3    H162912   4.146   0.072   5.220 -1.4311 -0.4190 -1.2637
13807TIP3    H262913   4.065   0.165   5.309  2.0972 -0.6165  2.4776
13808TIP3   OH262914   3.631   4.398   0.288 -0.2465  0.9265 -0.4361
13808TIP3    H162915   3.703   4.458   0.267 -0.9891  2.1547  0.4056
13808TIP3    H262916   3.558   4.430   0.235 -0.3752  0.0927 -0.7803
13809TIP3   OH262917   0.156   5.998  12.942 -0.3361  0.3457 -0.4475
13809TIP3    H162918   0.087   5.974  13.003  1.1886  2.5307  2.3753
13809TIP3    H262919   0.219   6.047  12.994  2.2497  0.4621 -3.3509
13810TIP3   OH262920   2.392   3.739   4.292  0.1002  0.0741  0.0222
13810TIP3    H162921   2.373   3.740   4.386 -1.5378 -0.7261 -0.2579
13810TIP3    H262922   2.431   3.653   4.277 -0.4865 -0.1635 -0.1654
13811TIP3   OH262923   3.176   1.921  15.125 -0.5620 -0.1753  0.0951
13811TIP3    H162924   3.165   1.979  15.201  0.0259 -0.4146  0.3722
13811TIP3    H262925   3.270   1.922  15.108 -0.7979  0.6868 -1.2884
13812TIP3   OH262926   0.764   6.780   1.738 -1.0267 -0.0151  0.4462
13812TIP3    H162927   0.806   6.842   1.797 -0.8569 -1.1053  1.5103
13812TIP3    H262928   0.819   6.702   1.742 -2.2925 -0.9271  0.6796
13813TIP3   OH262929   4.030   3.517  14.521 -0.7418  0.0238 -0.1502
13813TIP3    H162930   3.946   3.494  14.482  0.3289 -1.8217 -1.5630
13813TIP3    H262931   4.083   3.547  14.447  0.6057 -1.2527  0.2428
13814TIP3   OH262932   1.560   3.651  12.440 -0.0287 -0.2422 -0.2753
13814TIP3    H162933   1.506   3.622  12.514 -1.9170  1.7687 -0.7499
13814TIP3    H262934   1.619   3.578  12.423 -0.3971 -1.2721  2.3890
13815TIP3   OH262935   3.480   4.970  12.297  0.1237  0.1381 -0.2610
13815TIP3    H162936   3.389   4.986  12.319  0.0973 -1.1796  0.6979
13815TIP3    H262937   3.483   4.976  12.201 -1.0937 -0.3533 -0.3462
13816TIP3   OH262938   1.044   2.614   4.509 -0.1939  0.0789  0.3202
13816TIP3    H162939   1.038   2.709   4.501 -0.6940 -0.0352 -0.8623
13816TIP3    H262940   0.955   2.583   4.490 -0.4051 -0.5641  2.1120
13817TIP3   OH262941   4.947   5.438   3.564  0.5596  0.1704  0.5753
13817TIP3    H162942   4.996   5.520   3.553  1.8642 -0.6930 -0.4526
13817TIP3    H262943   5.014   5.370   3.564 -0.6171 -1.1401 -1.6517
13818TIP3   OH262944   6.626   3.681   1.236 -0.2824 -0.3154  0.4776
13818TIP3    H162945   6.643   3.776   1.241 -2.0315  0.1625 -1.2147
13818TIP3    H262946   6.703   3.641   1.275  0.2863  1.8177  1.7331
13819TIP3   OH262947   1.659   6.002  14.364  0.3756  1.1584 -0.7546
13819TIP3    H162948   1.705   6.063  14.421 -1.5041  0.8860  1.1588
13819TIP3    H262949   1.567   6.025  14.373 -0.2693 -1.1226 -0.9663
13820TIP3   OH262950   5.314   3.294   0.159  0.2974  0.2096  0.3660
13820TIP3    H162951   5.352   3.369   0.205 -0.0078  0.2038  0.6287
13820TIP3    H262952   5.290   3.233   0.228 -0.2960  0.2609  0.2109
13821TIP3   OH262953   5.490   0.324  14.345 -0.3940  0.0125  0.6795
13821TIP3    H162954   5.448   0.379  14.279 -0.1597  0.5064  0.9384
13821TIP3    H262955   5.439   0.339  14.425  0.5394  0.9781  1.1176
13822TIP3   OH262956   4.383   3.879  16.502  0.0733  0.3122 -0.4417
13822TIP3    H162957   4.420   3.811  16.559 -1.4121 -0.4360 -0.3133
13822TIP3    H262958   4.300   3.842  16.473 -0.7344  2.0566 -0.4395
13823TIP3   OH262959   1.753   4.949  16.302  0.4577 -0.2519  0.0975
13823TIP3    H162960   1.718   5.016  16.243  0.2469 -0.7150 -0.3059
13823TIP3    H262961   1.828   4.992  16.344  1.4376 -0.3410 -1.4846
13824TIP3   OH262962   1.397   5.743   3.236  0.5233 -0.5298 -0.1250
13824TIP3    H162963   1.421   5.804   3.306  1.8733  0.9328 -1.7650
13824TIP3    H262964   1.355   5.798   3.170  1.4602 -1.4206 -1.5118
13825TIP3   OH262965   2.281   1.335   4.832 -0.4049 -0.3198 -0.9178
13825TIP3    H162966   2.331   1.275   4.887 -0.1333 -1.7787 -2.6803
13825TIP3    H262967   2.326   1.419   4.842 -0.7509 -0.3593  1.5302
13826TIP3   OH262968   2.623   4.208  14.730  0.0532  0.0086  0.1447
13826TIP3    H162969   2.628   4.278  14.665 -1.5560 -0.4795 -0.5409
13826TIP3    H262970   2.534   4.214  14.765  0.3046 -0.9015  0.9829
13827TIP3   OH262971   1.198   5.896   1.416  0.4886 -0.6476 -0.1615
13827TIP3    H162972   1.265   5.963   1.400  0.3570 -0.2657  0.7850
13827TIP3    H262973   1.153   5.927   1.495  0.1838 -1.6748  0.0743
13828TIP3   OH262974   1.003   5.056   3.865 -0.2272 -0.1235 -0.6137
13828TIP3    H162975   0.993   4.972   3.910 -2.0908 -0.2156 -1.1226
13828TIP3    H262976   0.934   5.056   3.798 -0.9888  2.2524  0.0552
13829TIP3   OH262977   3.436   1.871  15.152  0.2989 -0.6744 -0.7121
13829TIP3    H162978   3.439   1.795  15.210 -1.4628 -0.5376 -0.4128
13829TIP3    H262979   3.528   1.885  15.127  0.9762 -1.3243  1.2405
13830TIP3   OH262980   4.091   3.063   0.626 -0.3173  0.9478 -1.6245
13830TIP3    H162981   3.996   3.060   0.619 -0.2437 -0.1670 -2.4833
13830TIP3    H262982   4.121   2.988   0.574  1.0123  1.0845 -1.0933
13831TIP3   OH262983   6.145   1.530  12.404 -0.1097 -0.2099  0.4611
13831TIP3    H162984   6.236   1.534  12.375 -0.5123 -2.3546 -1.3080
13831TIP3    H262985   6.119   1.622  12.413  1.5049  0.4999 -1.4343
13832TIP3   OH262986   3.750   1.056   5.348  0.5783  0.3597  0.5639
13832TIP3    H162987   3.813   1.055   5.275 -0.4535  1.3184 -0.3848
13832TIP3    H262988   3.748   0.966   5.378  4.3426  0.6903  2.4186
13833TIP3   OH262989   5.100   2.196  14.599 -0.1008  0.1652  0.0734
13833TIP3    H162990   5.023   2.147  14.629 -0.9773  0.6711 -1.2598
13833TIP3    H262991   5.141   2.139  14.534  0.0255  0.3602 -0.0199
13834TIP3   OH262992   3.615   6.344  15.387 -0.3304  0.1145 -0.1263
13834TIP3    H162993   3.610   6.326  15.293  2.4783 -0.8128 -0.1764
13834TIP3    H262994   3.543   6.406  15.403 -0.8914  0.2948 -2.8576
13835TIP3   OH262995   1.996   6.295  15.482 -0.4980 -0.3553 -0.1194
13835TIP3    H162996   1.965   6.205  15.472 -2.7931  0.3375  0.1249
13835TIP3    H262997   1.978   6.316  15.574 -0.5490  0.5235 -0.3192
13836TIP3   OH262998   6.230   6.509   5.961 -0.7243 -0.1350  0.1425
13836TIP3    H162999   6.297   6.489   6.026 -0.3467 -0.1588 -0.2491
13836TIP3    H263000   6.153   6.459   5.988 -0.4171 -0.5231  0.2966
13837TIP3   OH263001   6.431   4.117   1.193 -0.3342 -0.4763 -0.1090
13837TIP3    H163002   6.516   4.158   1.177  0.2136 -1.1052  1.0790
13837TIP3    H263003   6.397   4.098   1.105  0.7774 -0.2862 -0.6032
13838TIP3   OH263004   3.455   1.761   5.915  0.5194  0.0500 -0.1563
13838TIP3    H163005   3.491   1.849   5.926  0.1717  0.2048 -0.2465
13838TIP3    H263006   3.532   1.705   5.901  0.8226  0.1651  0.9742
13839TIP3   OH263007   6.512   4.188  15.868  0.1617  0.0435 -0.1090
13839TIP3    H163008   6.540   4.279  15.861  0.2434 -0.0441 -1.0683
13839TIP3    H263009   6.593   4.137  15.868  0.1487 -0.0003  1.1773
13840TIP3   OH263010   2.932   5.368   4.624 -0.8875 -0.0860 -0.6244
13840TIP3    H163011   2.925   5.427   4.698  1.5018  0.3975 -0.6790
13840TIP3    H263012   2.908   5.422   4.548  0.9577  0.8251 -0.6376
13841TIP3   OH263013   6.387   3.601   0.335  0.9721 -0.3024  0.1363
13841TIP3    H163014   6.416   3.518   0.297 -2.2351 -1.1620 -0.7681
13841TIP3    H263015   6.351   3.650   0.261  3.9469  2.6303  0.3915
13842TIP3   OH263016   0.982   1.813   0.820 -0.0007  0.2047 -0.7507
13842TIP3    H163017   0.925   1.746   0.857 -0.7929  2.0240  1.5546
13842TIP3    H263018   1.001   1.782   0.731 -1.7372 -2.1523 -0.3926
13843TIP3   OH263019   2.340   5.075  13.269 -0.1689 -0.0770  0.3214
13843TIP3    H163020   2.380   4.991  13.292  0.0184  0.1388  0.7901
13843TIP3    H263021   2.275   5.090  13.337  0.8084  0.8557  1.0765
13844TIP3   OH263022   0.227   1.210  13.769  0.0684 -0.1982 -0.3133
13844TIP3    H163023   0.158   1.155  13.806 -0.2662  0.0117 -0.6170
13844TIP3    H263024   0.301   1.199  13.828 -1.4449  2.7129  2.3667
13845TIP3   OH263025   1.409   0.120   1.181  0.6305  0.5234  0.1427
13845TIP3    H163026   1.451   0.035   1.191  0.0430  0.3749  1.6104
13845TIP3    H263027   1.319   0.107   1.213  0.2120  1.4335 -0.6010
13846TIP3   OH263028   5.981   2.842   4.241 -0.1765 -0.3094  0.6746
13846TIP3    H163029   5.956   2.929   4.272  0.6389 -0.2530  1.2268
13846TIP3    H263030   6.076   2.839   4.254 -0.0542 -0.9193 -0.2774
13847TIP3   OH263031   5.158   2.595   3.628  0.3052  0.2187  0.0553
13847TIP3    H163032   5.226   2.564   3.569 -1.2564  0.6367 -2.0975
13847TIP3    H263033   5.150   2.525   3.694  0.0624 -1.8038 -1.9884
13848TIP3   OH263034   0.816   5.442  11.266  0.5066 -0.1367  0.4215
13848TIP3    H163035   0.722   5.442  11.246  0.0971 -1.3538  2.1514
13848TIP3    H263036   0.852   5.511  11.210 -1.1065 -0.8177 -1.5934
13849TIP3   OH263037   2.122   4.591   0.710  0.3932  0.4343  0.3533
13849TIP3    H163038   2.215   4.596   0.730  0.6715 -0.0105 -0.7915
13849TIP3    H263039   2.113   4.631   0.624 -0.0312 -2.0466 -0.8286
13850TIP3   OH263040   6.802   6.326  16.206 -0.2315 -0.3504  0.2180
13850TIP3    H163041   6.738   6.285  16.264 -0.8203  1.0507  0.6038
13850TIP3    H263042   6.793   6.279  16.124 -2.5776  0.5000 -0.0947
13851TIP3   OH263043   4.048   4.905   2.190  0.0704  0.1355  0.3895
13851TIP3    H163044   4.003   4.889   2.273  0.1377  0.5366  0.5055
13851TIP3    H263045   4.012   4.840   2.130 -0.3091  0.1378  0.6117
13852TIP3   OH263046   0.061   2.538  16.681 -0.2787 -0.0754 -0.0069
13852TIP3    H163047   0.077   2.613  16.738  2.4895 -1.1618  0.7822
13852TIP3    H263048   0.063   2.574  16.593 -0.6586  0.9952  0.4006
13853TIP3   OH263049   6.502   4.815  16.070  0.1464 -0.6621  0.1404
13853TIP3    H163050   6.426   4.760  16.087  0.2114 -0.3275  1.6297
13853TIP3    H263051   6.518   4.861  16.152  0.0284  1.7022 -1.0490
13854TIP3   OH263052   5.081   4.057   5.588  0.2219  0.0131  0.8611
13854TIP3    H163053   5.049   4.050   5.678 -0.4182  1.6140  0.7914
13854TIP3    H263054   5.078   3.968   5.555 -1.4810 -0.3308  1.8020
13855TIP3   OH263055   0.597   4.227  14.184 -0.5288 -0.2817  0.4714
13855TIP3    H163056   0.510   4.267  14.181 -0.9643 -0.8999  2.6633
13855TIP3    H263057   0.622   4.217  14.093 -1.1749  3.1933 -0.2200
13856TIP3   OH263058   0.928   2.783   2.834 -0.0667 -0.4857 -0.0956
13856TIP3    H163059   0.944   2.746   2.747 -2.5205  1.1634 -1.3615
13856TIP3    H263060   0.874   2.717   2.877  1.1114 -1.2848  0.2127
13857TIP3   OH263061   2.844   4.656   4.695 -0.2318 -1.1618 -0.0626
13857TIP3    H163062   2.880   4.639   4.608 -0.5916  0.9051 -0.6715
13857TIP3    H263063   2.920   4.654   4.753  0.4963  0.3614 -0.9079
13858TIP3   OH263064   3.293   6.133   0.263  0.3077  0.0003  0.3590
13858TIP3    H163065   3.269   6.152   0.354  0.3506 -2.4331  0.9279
13858TIP3    H263066   3.352   6.204   0.239 -0.9520  1.5885  1.6645
13859TIP3   OH263067   3.924   4.124  14.634  0.4543  0.0005  0.4243
13859TIP3    H163068   3.873   4.122  14.553  0.7562 -0.3242  0.2382
13859TIP3    H263069   3.969   4.040  14.636 -1.3965 -1.0154  2.1305
13860TIP3   OH263070   4.195   3.797  17.304 -0.0574  0.3732 -0.8913
13860TIP3    H163071   4.248   3.828  17.377 -1.9451  0.1436  0.6561
13860TIP3    H263072   4.192   3.870  17.243  1.1226  0.7510 -0.5313
13861TIP3   OH263073   4.171   0.366   4.849 -0.8189 -0.4254  0.7347
13861TIP3    H163074   4.202   0.452   4.820  0.2091 -1.1600 -0.4539
13861TIP3    H263075   4.247   0.308   4.836 -1.7248 -1.6592  0.8194
13862TIP3   OH263076   1.876   2.147   6.810  0.5603 -0.1754 -0.0198
13862TIP3    H163077   1.791   2.178   6.840 -0.3111 -0.0536 -2.3834
13862TIP3    H263078   1.936   2.167   6.882 -0.9236  2.1762  0.6636
13863TIP3   OH263079   6.641   4.884   2.871  0.9783 -0.1210 -0.4860
13863TIP3    H163080   6.702   4.822   2.834  1.1131 -0.7711  0.7583
13863TIP3    H263081   6.674   4.970   2.845 -0.1680 -0.5276 -3.7034
13864TIP3   OH263082   0.600   2.915  11.317 -0.5415  0.0384 -0.6198
13864TIP3    H163083   0.664   2.898  11.248 -0.9133 -1.3120 -0.6576
13864TIP3    H263084   0.516   2.890  11.279 -0.5658 -2.3343  0.8169
13865TIP3   OH263085   0.095   4.493  15.898  0.2144 -0.6003 -0.1363
13865TIP3    H163086   0.129   4.405  15.909  1.2535 -0.1490  0.4429
13865TIP3    H263087   0.170   4.550  15.917  0.2817  0.3971 -2.9031
13866TIP3   OH263088   3.634   0.759  13.380  0.3073 -0.1807 -0.3245
13866TIP3    H163089   3.571   0.709  13.432 -0.0095  0.8708  0.3314
13866TIP3    H263090   3.645   0.708  13.300 -1.5727 -0.2626 -0.5600
13867TIP3   OH263091   0.013   4.310  13.415  0.1581 -0.0588 -0.5056
13867TIP3    H163092   0.003   4.234  13.358  0.1266 -0.8990  0.5840
13867TIP3    H263093   0.056   4.275  13.493  1.0870  1.2495 -0.4035
13868TIP3   OH263094   3.934   0.307   1.196  0.6548  0.1608  0.2841
13868TIP3    H163095   3.944   0.293   1.102 -1.7340  1.9361 -0.3529
13868TIP3    H263096   4.002   0.371   1.218  1.1458 -0.1687 -0.2561
13869TIP3   OH263097   1.738   4.680   4.110  0.2776  0.2005  0.1046
13869TIP3    H163098   1.831   4.658   4.116 -0.1648 -2.4087 -1.2655
13869TIP3    H263099   1.713   4.655   4.021 -1.2646  3.1162 -0.4139
13870TIP3   OH263100   5.147   0.365  12.688 -0.3425 -0.7725 -0.1783
13870TIP3    H163101   5.234   0.333  12.665  0.9571  1.1158  1.8095
13870TIP3    H263102   5.149   0.376  12.783 -1.8713  1.7036 -0.3346
13871TIP3   OH263103   3.209   1.340   0.888 -0.1579 -0.4828  0.0436
13871TIP3    H163104   3.304   1.343   0.905 -0.4738  0.3706  1.8074
13871TIP3    H263105   3.188   1.428   0.859 -0.5434 -0.4587  0.4000
13872TIP3   OH263106   6.734   3.096  16.831 -0.7185 -0.9061 -0.5072
13872TIP3    H163107   6.640   3.081  16.838 -0.8821  0.2113 -0.1209
13872TIP3    H263108   6.774   3.028  16.885 -1.2725 -1.6133 -0.9626
13873TIP3   OH263109   1.692   1.206  11.477  0.5608 -0.2025 -0.0733
13873TIP3    H163110   1.619   1.160  11.435  0.1425  1.0388 -0.7449
13873TIP3    H263111   1.741   1.137  11.521  0.6104 -1.4764 -1.9913
13874TIP3   OH263112   3.663   2.219  16.755  0.0057 -0.2998 -0.1484
13874TIP3    H163113   3.669   2.312  16.778 -0.3755  0.1894 -1.8312
13874TIP3    H263114   3.600   2.217  16.683  0.9949 -1.6994 -1.0290
13875TIP3   OH263115   2.391   3.436   4.822 -0.4278 -0.3513 -0.2219
13875TIP3    H163116   2.336   3.443   4.900  1.3145 -1.4889  1.1916
13875TIP3    H263117   2.475   3.473   4.849  0.2291 -0.8036 -1.5552
13876TIP3   OH263118   3.225   2.879  16.228  0.1084  0.0926  0.0643
13876TIP3    H163119   3.251   2.795  16.190 -1.2631 -0.2251 -0.2244
13876TIP3    H263120   3.228   2.941  16.155 -1.5127 -0.2976 -0.3618
13877TIP3   OH263121   2.550   2.879  13.034  0.0685  0.1542 -0.2670
13877TIP3    H163122   2.518   2.868  12.945 -0.5357  1.5267 -0.2475
13877TIP3    H263123   2.643   2.855  13.030  0.4804  1.8057 -1.6670
13878TIP3   OH263124   3.355   1.211   2.922  0.1215  0.4397  0.1932
13878TIP3    H163125   3.381   1.302   2.938 -2.8910  1.2334  1.2523
13878TIP3    H263126   3.271   1.217   2.877  0.4546 -1.8721 -0.9029
13879TIP3   OH263127   1.412   0.445   4.659  0.0659 -0.5356  0.2622
13879TIP3    H163128   1.447   0.375   4.603  0.4485  0.4449 -0.7759
13879TIP3    H263129   1.380   0.511   4.597 -0.6957  0.0118  1.2147
13880TIP3   OH263130   6.095   0.957   2.190 -0.0339 -0.3026 -0.4611
13880TIP3    H163131   6.166   1.020   2.188 -0.5972  0.3955  0.4805
13880TIP3    H263132   6.097   0.921   2.279 -2.9251  2.2707  0.8564
13881TIP3   OH263133   2.433   4.407  14.795  0.0020 -0.2251 -0.0982
13881TIP3    H163134   2.413   4.447  14.880 -0.6595  1.5965 -1.0608
13881TIP3    H263135   2.347   4.397  14.753  0.4314  0.1902 -1.0948
13882TIP3   OH263136   0.682   1.160   1.632  0.6108  0.1051 -0.0819
13882TIP3    H163137   0.726   1.137   1.550 -1.4395  1.0190 -1.4990
13882TIP3    H263138   0.604   1.208   1.605  0.6424  1.7588  2.4726
13883TIP3   OH263139   2.516   2.844  12.750  0.6617 -0.5222 -0.5595
13883TIP3    H163140   2.422   2.866  12.752  0.7644 -0.0884 -0.0340
13883TIP3    H263141   2.555   2.914  12.698  0.9913  0.6258  1.1201
13884TIP3   OH263142   6.492   5.764  14.456  0.1006  0.1838  0.3787
13884TIP3    H163143   6.581   5.752  14.424  0.4366  0.8236  1.0525
13884TIP3    H263144   6.456   5.675  14.461 -0.3737  0.0929 -2.8345
13885TIP3   OH263145   3.049   1.772  16.715  0.9156  0.1137 -0.3091
13885TIP3    H163146   3.056   1.742  16.624  0.9624  0.7649 -0.5239
13885TIP3    H263147   3.133   1.750  16.754  0.6166 -0.8789 -0.2027
13886TIP3   OH263148   6.327   0.551  14.805  0.1348  0.2126  0.0522
13886TIP3    H163149   6.417   0.561  14.836  0.2942 -0.7613 -0.0433
13886TIP3    H263150   6.273   0.571  14.881  0.3370  2.7715 -0.4101
13887TIP3   OH263151   0.534   1.976   0.164 -0.9076 -0.2826 -0.3095
13887TIP3    H163152   0.552   2.062   0.126 -1.2754 -0.4154 -0.7941
13887TIP3    H263153   0.555   1.914   0.095 -0.0753 -0.6255  0.2405
13888TIP3   OH263154   6.816   5.443   6.069  1.3303 -0.2824  0.2418
13888TIP3    H163155   6.877   5.369   6.061  0.4532 -1.0273  0.3448
13888TIP3    H263156   6.782   5.437   6.158  0.4504 -0.3948 -0.0925
13889TIP3   OH263157   6.764   3.067   1.145 -0.0981 -0.7662 -0.2578
13889TIP3    H163158   6.720   3.152   1.142 -1.1825 -1.1990  1.8888
13889TIP3    H263159   6.695   3.003   1.126  0.6865 -1.2178 -1.7676
13890TIP3   OH263160   5.439   1.194  14.383  0.3094  0.0617  0.7323
13890TIP3    H163161   5.375   1.174  14.452  0.0461  0.1449  0.5108
13890TIP3    H263162   5.510   1.131  14.398 -0.0315 -0.3315  0.6957
13891TIP3   OH263163   3.226   5.063  15.422  0.1529 -0.0230  0.6629
13891TIP3    H163164   3.185   5.024  15.345 -3.4013  0.7145  1.9361
13891TIP3    H263165   3.245   5.153  15.396 -0.9732  0.2034  0.5713
13892TIP3   OH263166   0.146   3.361   5.472  0.3250  0.4435  0.3481
13892TIP3    H163167   0.192   3.425   5.418 -0.6345  1.7005  0.9531
13892TIP3    H263168   0.204   3.285   5.475  0.7727  0.6329 -1.7639
13893TIP3   OH263169   3.781   1.057  14.586 -0.0652 -0.0134 -1.3213
13893TIP3    H163170   3.862   1.107  14.586  0.0031 -0.1039 -2.7589
13893TIP3    H263171   3.775   1.022  14.675  1.8552 -0.6167 -1.3914
13894TIP3   OH263172   1.865   2.837   5.243  0.3277 -0.5679  0.1230
13894TIP3    H163173   1.881   2.866   5.153  2.2243 -0.4337  0.4787
13894TIP3    H263174   1.771   2.817   5.244  0.4164 -1.4135 -2.1135
13895TIP3   OH263175   0.361   1.969   6.318  0.1763  0.6690  0.6050
13895TIP3    H163176   0.364   2.055   6.359  1.4257  0.9481 -0.0055
13895TIP3    H263177   0.394   1.984   6.229 -1.6723 -0.0566 -0.2668
13896TIP3   OH263178   3.761   4.189   3.668 -0.1401 -0.0755  0.7904
13896TIP3    H163179   3.695   4.125   3.694  0.1748 -0.3763  0.8616
13896TIP3    H263180   3.827   4.184   3.737  0.9550 -1.2408 -0.3053
13897TIP3   OH263181   5.532   2.205   4.312  0.0378  0.3172  0.1409
13897TIP3    H163182   5.439   2.225   4.315 -0.1060 -0.4083  1.5882
13897TIP3    H263183   5.538   2.125   4.260 -0.4259 -0.8650  1.8383
13898TIP3   OH263184   0.221   2.390   5.578  0.1870  0.1506 -0.0844
13898TIP3    H163185   0.186   2.408   5.665 -0.1086 -1.0687  0.0722
13898TIP3    H263186   0.247   2.297   5.582 -1.1884 -0.3491 -1.7234
13899TIP3   OH263187   6.707   4.901  14.666  1.0017  0.2592  0.0657
13899TIP3    H163188   6.708   4.806  14.657  1.0052  0.0177  2.0798
13899TIP3    H263189   6.686   4.916  14.758  1.5380  2.2065 -0.0802
13900TIP3   OH263190   3.052   3.347   3.895  0.1217 -0.0458  0.1291
13900TIP3    H163191   2.974   3.333   3.841 -0.3330 -0.0585  0.7740
13900TIP3    H263192   3.074   3.439   3.883 -1.2383  0.5052  1.5438
13901TIP3   OH263193   1.555   6.379  17.315 -0.2488  0.2726  0.6459
13901TIP3    H163194   1.601   6.304  17.277 -1.6943 -0.8790  1.1040
13901TIP3    H263195   1.595   6.390  17.401 -0.2043 -0.1324  0.6797
13902TIP3   OH263196   4.127   4.703  14.451 -0.3567 -0.2639 -0.1115
13902TIP3    H163197   4.186   4.696  14.526 -0.7270 -3.2915  0.0046
13902TIP3    H263198   4.162   4.642  14.386 -1.4333  0.4607 -1.4322
13903TIP3   OH263199   0.823   1.307   4.142  0.4431 -0.0164 -0.1161
13903TIP3    H163200   0.890   1.375   4.146 -1.2378  1.7327 -0.5251
13903TIP3    H263201   0.871   1.228   4.114  2.5178  0.8451  0.8374
13904TIP3   OH263202   2.665   3.888  14.456  0.1286 -1.0537 -0.1314
13904TIP3    H163203   2.717   3.940  14.517 -1.5129  1.5988 -0.8328
13904TIP3    H263204   2.730   3.843  14.403  1.6381 -0.7036  1.3267
13905TIP3   OH263205   2.385   1.733  16.034  0.4654  1.0709 -0.0448
13905TIP3    H163206   2.414   1.735  16.125 -0.3886  0.4822  0.2536
13905TIP3    H263207   2.455   1.776  15.986  2.3679 -1.2518  0.4829
13906TIP3   OH263208   5.399   4.336  11.101  0.0262  0.2685  0.5398
13906TIP3    H163209   5.411   4.247  11.068 -0.3885  0.7491 -1.0129
13906TIP3    H263210   5.466   4.346  11.168  0.0644 -1.2085  0.7558
13907TIP3   OH263211   1.685   4.847  15.232  0.1111 -0.2322 -0.1133
13907TIP3    H163212   1.713   4.757  15.250 -0.9939 -0.8190 -1.2246
13907TIP3    H263213   1.608   4.861  15.288  0.5183  0.1820  0.3606
13908TIP3   OH263214   1.458   1.920   3.077  0.7441 -0.2290  0.1960
13908TIP3    H163215   1.547   1.939   3.108  0.5310  0.2626  0.5261
13908TIP3    H263216   1.412   1.887   3.154 -0.0502  1.8628  0.6841
13909TIP3   OH263217   1.386   2.635  12.671  0.3098 -0.2167 -0.2151
13909TIP3    H163218   1.472   2.597  12.657 -0.3967 -1.4439 -1.4482
13909TIP3    H263219   1.396   2.688  12.750  2.1173 -0.5227 -0.1964
13910TIP3   OH263220   5.245   3.437  16.841  0.1848 -0.1365  0.2482
13910TIP3    H163221   5.175   3.495  16.813  0.5014 -0.1387 -0.5800
13910TIP3    H263222   5.203   3.372  16.897 -0.3232  0.3492  0.4318
13911TIP3   OH263223   3.654   0.598   1.288  0.0863  0.3030 -0.2191
13911TIP3    H163224   3.622   0.631   1.204  2.3212 -0.6765 -1.5435
13911TIP3    H263225   3.642   0.503   1.284  1.9699  0.0184 -0.3246
13912TIP3   OH263226   5.388   4.710  13.625  0.5295  0.1353  0.0920
13912TIP3    H163227   5.402   4.732  13.717  1.7455  0.0109 -0.0405
13912TIP3    H263228   5.310   4.759  13.600  0.1791  0.1544  1.1907
13913TIP3   OH263229   4.390   4.083  15.603  0.9098  0.0049 -0.0536
13913TIP3    H163230   4.446   4.084  15.681 -2.6922 -0.6868  2.8159
13913TIP3    H263231   4.393   3.992  15.573  0.9505 -0.1418  0.3861
13914TIP3   OH263232   2.102   4.399   6.451 -0.0290 -0.2871 -0.6088
13914TIP3    H163233   2.099   4.421   6.358  0.3279 -0.4575 -0.6619
13914TIP3    H263234   2.155   4.320   6.456 -0.7245 -0.7485 -0.3418
13915TIP3   OH263235   4.961   1.566  13.549  0.0799 -0.5014  0.4418
13915TIP3    H163236   5.007   1.632  13.496  0.2437 -0.2480  0.8989
13915TIP3    H263237   5.024   1.543  13.617  0.8874 -2.7157 -0.9290
13916TIP3   OH263238   1.024   3.543  12.589 -0.5269 -0.4367 -0.2675
13916TIP3    H163239   1.116   3.515  12.583 -0.3240  0.2723 -0.5703
13916TIP3    H263240   1.017   3.616  12.527 -1.8578 -1.8992 -1.9836
13917TIP3   OH263241   4.538   0.221  16.187 -0.1585 -0.4160 -1.1306
13917TIP3    H163242   4.543   0.129  16.161 -0.1782 -1.1463  1.2110
13917TIP3    H263243   4.500   0.219  16.274 -0.8802  1.9041 -1.3383
13918TIP3   OH263244   5.350   6.710  15.032 -0.1550 -0.3407  0.5956
13918TIP3    H163245   5.411   6.718  15.106 -0.1466 -4.2537  1.2571
13918TIP3    H263246   5.286   6.646  15.062 -1.6868 -0.0848 -1.9143
13919TIP3   OH263247   4.054   4.593   4.055  0.1741  0.0776 -0.1721
13919TIP3    H163248   4.042   4.499   4.072 -1.3972  0.4297  0.9308
13919TIP3    H263249   4.010   4.607   3.971 -0.0891 -0.0966 -0.0685
13920TIP3   OH263250   3.718   6.556   1.357  0.5363 -0.7851  0.0972
13920TIP3    H163251   3.765   6.597   1.285  1.2430 -0.5453  0.6852
13920TIP3    H263252   3.670   6.484   1.316  0.6996 -0.4809 -0.6515
13921TIP3   OH263253   4.135   5.993  14.413  0.0550 -0.1331 -0.3469
13921TIP3    H163254   4.190   5.978  14.336  1.0991 -0.7489  0.4824
13921TIP3    H263255   4.151   5.917  14.468  1.3347  1.4581  1.6267
13922TIP3   OH263256   3.643   1.542   1.127 -0.7099  0.0575 -0.0952
13922TIP3    H163257   3.693   1.603   1.073 -0.2556  0.2265  0.5152
13922TIP3    H263258   3.680   1.456   1.108  0.3033  0.2593  0.8816
13923TIP3   OH263259   0.009   1.156  13.454 -0.2269 -0.3841  0.0256
13923TIP3    H163260   0.097   1.191  13.463 -0.1741 -0.6098  0.3819
13923TIP3    H263261   0.010   1.074  13.503 -0.9172  0.0921  0.8658
13924TIP3   OH263262   5.602   4.997   1.089 -0.1394  0.3168 -0.3904
13924TIP3    H163263   5.645   4.917   1.061 -1.3934 -0.2819 -0.6787
13924TIP3    H263264   5.572   5.038   1.008 -0.7780  0.3355 -0.1497
13925TIP3   OH263265   0.278   2.218  13.346 -0.4830  0.0058 -0.0455
13925TIP3    H163266   0.258   2.125  13.357 -1.3006  0.0808 -0.8281
13925TIP3    H263267   0.266   2.256  13.433  0.9212 -0.7887  0.5446
13926TIP3   OH263268   5.687   5.301   0.183 -0.1989  0.0907 -0.0184
13926TIP3    H163269   5.606   5.337   0.147 -0.1883  1.1113  0.9367
13926TIP3    H263270   5.717   5.367   0.245  0.9450 -0.6413  0.2303
13927TIP3   OH263271   3.179   5.707   4.922  0.2288 -0.0310  0.2859
13927TIP3    H163272   3.196   5.759   4.844 -0.8526  2.5118  1.6122
13927TIP3    H263273   3.246   5.734   4.985 -1.7318  1.7459  1.7986
13928TIP3   OH263274   6.635   1.654  16.201  0.7094 -0.5276 -0.2502
13928TIP3    H163275   6.540   1.649  16.214  0.6036  2.7344  1.1841
13928TIP3    H263276   6.670   1.580  16.252 -0.9516 -0.0986  1.6526
13929TIP3   OH263277   6.656   3.997   0.177  0.2900 -0.1825  0.1826
13929TIP3    H163278   6.701   4.063   0.125  1.2920  0.1039  1.3533
13929TIP3    H263279   6.564   4.021   0.173  0.5213  0.6467 -0.3000
13930TIP3   OH263280   1.591   1.293  16.851  0.1107  0.0597 -0.0700
13930TIP3    H163281   1.525   1.338  16.905 -1.4808 -0.4101 -1.5309
13930TIP3    H263282   1.661   1.272  16.912  0.7694  4.0472  0.8245
13931TIP3   OH263283   0.360   3.959  17.176 -0.1691  0.2859  0.2064
13931TIP3    H163284   0.334   3.879  17.222  0.9775 -0.4021 -0.2800
13931TIP3    H263285   0.452   3.971  17.199 -0.4089  1.6743  0.5448
13932TIP3   OH263286   0.899   6.025   6.161  0.1172 -0.3780  0.0584
13932TIP3    H163287   0.875   5.978   6.081  0.2204  0.6513 -0.5854
13932TIP3    H263288   0.839   6.099   6.165  0.1278 -0.4019  0.9377
13933TIP3   OH263289   3.760   3.030  12.991  0.0888  0.3999  0.4190
13933TIP3    H163290   3.688   2.976  13.024  0.5750  0.7271  2.0731
13933TIP3    H263291   3.776   3.094  13.060  0.7600  1.4961 -0.7210
13934TIP3   OH263292   5.262   4.503   2.918  0.3734 -0.0222  0.4180
13934TIP3    H163293   5.292   4.514   3.008  0.8755 -1.6296  0.4845
13934TIP3    H263294   5.179   4.455   2.926  0.0353  0.4910  0.0510
13935TIP3   OH263295   5.669   1.597  10.542 -0.3134  0.2907 -0.2155
13935TIP3    H163296   5.638   1.679  10.579 -1.4591 -1.0984  2.1686
13935TIP3    H263297   5.764   1.600  10.554 -0.5153  0.4740  1.7869
13936TIP3   OH263298   2.596   5.013   2.550  0.3313  0.1131  0.1999
13936TIP3    H163299   2.590   5.002   2.645  2.2882  0.4620  0.4041
13936TIP3    H263300   2.629   4.929   2.518  2.9399  1.0330  0.2721
13937TIP3   OH263301   4.127   0.400   2.863 -0.2947  0.4623 -0.2474
13937TIP3    H163302   4.168   0.332   2.809 -2.0053  0.1028 -1.1517
13937TIP3    H263303   4.120   0.476   2.805 -2.9270 -0.1896 -0.8914
13938TIP3   OH263304   1.407   6.590  16.688 -0.4874 -0.5099  0.1064
13938TIP3    H163305   1.407   6.565  16.780 -0.3696  0.5318  0.3961
13938TIP3    H263306   1.354   6.670  16.685  1.5570  0.8886 -0.3264
13939TIP3   OH263307   3.133   6.814   0.438 -0.6852 -1.1819 -0.4065
13939TIP3    H163308   3.174   6.756   0.374  4.4963  1.5432 -0.1147
13939TIP3    H263309   3.086   6.879   0.385  0.6972 -0.8910 -1.3302
13940TIP3   OH263310   0.705   2.421  14.051  0.1183  0.1316  0.0592
13940TIP3    H163311   0.613   2.392  14.057 -0.0990  0.2698 -1.9486
13940TIP3    H263312   0.710   2.465  13.967  2.0364  0.1948  0.1792
13941TIP3   OH263313   5.033   5.769   3.269  0.3592  0.6226  0.3471
13941TIP3    H163314   5.025   5.838   3.334 -1.1632  2.0618 -1.2413
13941TIP3    H263315   5.023   5.814   3.185  0.3573 -1.3879 -0.8039
13942TIP3   OH263316   1.095   4.076  16.180  0.5682 -0.3945 -0.1898
13942TIP3    H163317   1.025   4.011  16.186  0.8965 -0.6215  1.9206
13942TIP3    H263318   1.056   4.147  16.129 -0.5017 -1.3594 -0.7742
13943TIP3   OH263319   1.782   3.242  17.128  0.0918 -0.1170 -0.1629
13943TIP3    H163320   1.865   3.247  17.080 -1.0321  0.0655 -2.1841
13943TIP3    H263321   1.763   3.333  17.151  0.0367 -0.0558 -0.4460
13944TIP3   OH263322   0.917   0.041   2.930  0.1062 -0.6975 -0.0824
13944TIP3    H163323   0.997  -0.011   2.922  1.0063  0.6722 -0.3931
13944TIP3    H263324   0.849  -0.022   2.951  0.6208 -2.3665 -2.9863
13945TIP3   OH263325   2.128   0.688  13.679 -0.2781 -0.0656 -0.3561
13945TIP3    H163326   2.066   0.752  13.646 -0.4228  0.3729  0.7406
13945TIP3    H263327   2.190   0.675  13.607 -2.3408 -1.5308 -2.0150
13946TIP3   OH263328   2.551   4.967  11.363 -0.3197  0.5880  0.0681
13946TIP3    H163329   2.541   4.872  11.371 -1.0669  0.7031  0.6697
13946TIP3    H263330   2.550   4.983  11.269  1.0887 -0.1096 -0.0974
13947TIP3   OH263331   1.619   0.380   2.506 -0.2476 -0.2029  0.0622
13947TIP3    H163332   1.696   0.415   2.461 -0.1367 -1.4359 -0.7514
13947TIP3    H263333   1.546   0.430   2.470 -0.0382 -0.4117 -0.6700
13948TIP3   OH263334   4.261   5.112  12.265  0.3055  0.6638 -0.5147
13948TIP3    H163335   4.260   5.019  12.244  1.4998  0.5526 -0.1423
13948TIP3    H263336   4.204   5.120  12.341 -0.0708  0.3078 -0.7504
13949TIP3   OH263337   2.982   0.177   4.170  0.2466 -0.1828  0.0226
13949TIP3    H163338   3.072   0.149   4.155  0.2042  0.0260 -0.6582
13949TIP3    H263339   2.931   0.096   4.166  0.3702 -0.2713  0.1866
13950TIP3   OH263340   2.781   2.801   2.057  0.2083  0.1037 -0.8022
13950TIP3    H163341   2.840   2.749   2.112  0.5279  0.5494 -0.7176
13950TIP3    H263342   2.694   2.782   2.090  0.3868  0.2597 -0.2342
13951TIP3   OH263343   3.876   2.278   1.583 -0.3545 -0.3782 -0.5266
13951TIP3    H163344   3.928   2.249   1.658 -1.8945 -2.6211 -0.2380
13951TIP3    H263345   3.819   2.204   1.563 -1.4530  0.9392 -2.6135
13952TIP3   OH263346   6.595   5.543   5.616 -0.3450  0.5649 -0.4838
13952TIP3    H163347   6.603   5.636   5.594  1.8880  0.7985  1.0350
13952TIP3    H263348   6.663   5.501   5.564 -0.4116 -0.0237 -0.0952
13953TIP3   OH263349   0.949   3.408   0.162  0.1171  0.1135 -0.6641
13953TIP3    H163350   0.881   3.394   0.097 -1.5437 -1.5791  1.2856
13953TIP3    H263351   0.982   3.321   0.181  1.1596  0.6613  0.1371
13954TIP3   OH263352   4.457   0.584   3.525  0.1156 -0.1705 -0.3487
13954TIP3    H163353   4.534   0.640   3.538  0.3255 -0.2788 -1.1202
13954TIP3    H263354   4.445   0.540   3.610 -0.8186  1.9750  0.7151
13955TIP3   OH263355   1.835   4.254  13.551 -0.2687  1.0431 -0.2548
13955TIP3    H163356   1.810   4.199  13.626  2.0753  0.7390  0.3798
13955TIP3    H263357   1.821   4.343  13.582  1.2396  0.9489  0.8481
13956TIP3   OH263358   3.604   2.868   5.079  0.3228  0.5178  0.4026
13956TIP3    H163359   3.620   2.835   5.167  0.1596  0.7177  0.5086
13956TIP3    H263360   3.642   2.802   5.021  2.0046  1.2076  0.6492
13957TIP3   OH263361   5.369   3.194   5.536 -0.3228 -0.4317  0.0319
13957TIP3    H163362   5.297   3.167   5.593 -0.4956 -1.9488 -0.8475
13957TIP3    H263363   5.430   3.120   5.538 -0.2503 -0.4507 -1.5960
13958TIP3   OH263364   6.324   2.448  14.397  0.1131  0.4787 -0.1617
13958TIP3    H163365   6.359   2.367  14.360 -1.8109  0.2191 -1.5773
13958TIP3    H263366   6.334   2.513  14.327 -1.6310  0.5321 -0.3907
13959TIP3   OH263367   5.503   1.430   1.182  0.3386  0.0766 -0.3283
13959TIP3    H163368   5.454   1.490   1.238 -0.9536 -0.6816 -0.6140
13959TIP3    H263369   5.490   1.464   1.093  3.1970  1.8621 -0.1962
13960TIP3   OH263370   6.393   4.802  16.674  0.1804  1.0315 -0.2639
13960TIP3    H163371   6.452   4.855  16.728  0.0436  1.0927 -0.1723
13960TIP3    H263372   6.348   4.866  16.619 -0.3554  1.0590  0.2066
13961TIP3   OH263373   5.549   4.504   0.094  0.4510  0.8097  0.7034
13961TIP3    H163374   5.532   4.469   0.182 -0.7308 -0.1614  0.1208
13961TIP3    H263375   5.643   4.491   0.081  0.0037 -3.1996  0.1754
13962TIP3   OH263376   6.087   5.613   4.440  0.5600  0.1755  0.0378
13962TIP3    H163377   6.148   5.563   4.386 -0.2485 -1.0085  0.1815
13962TIP3    H263378   6.119   5.601   4.529 -1.7905 -3.5612  0.6154
13963TIP3   OH263379   0.756   1.679   3.518 -0.1817  0.2897 -0.3385
13963TIP3    H163380   0.735   1.759   3.472  0.4569  0.3441 -0.5467
13963TIP3    H263381   0.852   1.679   3.525 -0.2712  0.5868  1.5201
13964TIP3   OH263382   0.995   0.022  14.660 -0.3302  0.3478  0.5181
13964TIP3    H163383   1.081   0.003  14.621 -0.7182  0.6775 -0.5265
13964TIP3    H263384   0.978   0.113  14.637 -1.4225 -0.0227 -0.1843
13965TIP3   OH263385   0.044   5.935  16.517  0.0088  0.1554 -0.1224
13965TIP3    H163386  -0.035   5.960  16.565  0.5364 -1.7238  1.9108
13965TIP3    H263387   0.116   5.974  16.568  0.4825  0.1056 -0.7446
13966TIP3   OH263388   5.623   5.505  15.268  0.2926 -0.1722 -0.3554
13966TIP3    H163389   5.537   5.466  15.260  0.6724 -1.2122  0.3535
13966TIP3    H263390   5.678   5.436  15.305  1.6884  0.1208 -1.7366
13967TIP3   OH263391   1.434   4.726   4.908 -0.5337  0.2330  1.3441
13967TIP3    H163392   1.404   4.771   4.987  0.4706  1.2259  1.1859
13967TIP3    H263393   1.499   4.663   4.940 -0.6980  0.0904  1.3945
13968TIP3   OH263394   2.651   3.401   1.552  0.7633 -0.0640 -0.3464
13968TIP3    H163395   2.606   3.378   1.634  0.2882  0.2243 -0.5197
13968TIP3    H263396   2.725   3.342   1.548 -0.6788 -1.9098 -1.0117
13969TIP3   OH263397   3.931   4.878  13.735 -0.2067 -0.2038 -0.4800
13969TIP3    H163398   3.887   4.870  13.819 -0.7608 -0.2712 -0.7691
13969TIP3    H263399   4.013   4.924  13.755  0.2041 -1.2217  0.2610
13970TIP3   OH263400   4.482   6.609  14.442  0.5209  0.0409 -0.0797
13970TIP3    H163401   4.535   6.685  14.418  0.0921  0.7220  1.0768
13970TIP3    H263402   4.468   6.617  14.536 -0.7967 -0.6574 -0.1872
13971TIP3   OH263403   2.896   4.516  11.138 -0.6182  0.9724  0.1458
13971TIP3    H163404   2.967   4.509  11.073 -1.0938  2.7333 -0.6058
13971TIP3    H263405   2.824   4.465  11.100 -0.5030  1.0284 -0.1507
13972TIP3   OH263406   5.528   2.553  13.311  0.1110  0.1765  0.1690
13972TIP3    H163407   5.584   2.617  13.266  0.0392  0.6834  0.7892
13972TIP3    H263408   5.515   2.483  13.247  1.9659 -0.2548  0.2044
13973TIP3   OH263409   6.277   1.735  17.028 -0.1731 -0.3731 -0.2784
13973TIP3    H163410   6.325   1.812  17.000 -0.9957 -0.2084 -1.3432
13973TIP3    H263411   6.317   1.662  16.980  1.3846 -0.8389  1.6239
13974TIP3   OH263412   6.569   4.544  10.800  0.1468  0.2759  0.0758
13974TIP3    H163413   6.614   4.605  10.741  1.9806 -2.6116 -1.7345
13974TIP3    H263414   6.614   4.461  10.788 -3.0334 -1.8351  1.4270
13975TIP3   OH263415   4.783   6.045   5.497  0.3288 -0.6831  0.3367
13975TIP3    H163416   4.696   6.068   5.531  1.7690  1.6369  2.9368
13975TIP3    H263417   4.803   5.961   5.537 -0.4804 -0.9471  0.1986
13976TIP3   OH263418   0.108   1.472  12.767  0.2813 -0.2597  0.4749
13976TIP3    H163419   0.052   1.528  12.714  1.1591  2.0592  1.8426
13976TIP3    H263420   0.050   1.401  12.796 -1.2713  0.6804 -0.2020
13977TIP3   OH263421   2.001   5.781  13.704  0.2023 -0.2571 -0.4332
13977TIP3    H163422   2.022   5.727  13.780 -0.6097 -0.4018 -0.3003
13977TIP3    H263423   2.069   5.849  13.703  1.2527 -1.2686 -0.6128
13978TIP3   OH263424   4.913   1.055   1.885 -0.5378  0.0583  0.5013
13978TIP3    H163425   4.989   1.060   1.828 -1.5630  1.1152 -0.8353
13978TIP3    H263426   4.854   1.124   1.853 -2.0115 -0.6549  1.5577
13979TIP3   OH263427   0.664   0.709  16.679  0.1144 -0.5527  0.0876
13979TIP3    H163428   0.682   0.693  16.587  1.9366 -1.9799  0.6291
13979TIP3    H263429   0.662   0.804  16.687 -3.2668 -0.2985 -1.9313
13980TIP3   OH263430   0.980   0.879  11.239 -0.5282 -0.2243  0.0486
13980TIP3    H163431   1.004   0.961  11.281 -0.4612  0.0068 -0.4427
13980TIP3    H263432   1.062   0.829  11.235 -0.8533 -0.9518  1.7350
13981TIP3   OH263433   6.496   1.174   4.102  0.2433 -0.0867  0.4811
13981TIP3    H163434   6.423   1.164   4.041  0.1709 -0.2714  0.5967
13981TIP3    H263435   6.558   1.230   4.056  0.0434  0.0452  0.3684
13982TIP3   OH263436   2.198   5.521   5.010 -0.1014 -0.0019 -0.1358
13982TIP3    H163437   2.251   5.506   5.089  0.2631  0.3808 -0.3036
13982TIP3    H263438   2.242   5.469   4.942  0.9663  1.4933 -0.6377
13983TIP3   OH263439   2.762   4.181   1.187 -0.6577  0.2940  0.5778
13983TIP3    H163440   2.743   4.091   1.211 -1.0053  0.5666  1.3682
13983TIP3    H263441   2.853   4.180   1.157  0.0346  0.0212  2.5287
13984TIP3   OH263442   0.254   6.428  12.459 -0.0636  0.9122 -0.0153
13984TIP3    H163443   0.278   6.449  12.549 -0.4496  1.1907  0.0240
13984TIP3    H263444   0.232   6.512  12.420  0.3216  0.8212 -0.4385
13985TIP3   OH263445   0.590   1.481   4.534  0.0323 -0.0684 -0.0787
13985TIP3    H163446   0.529   1.484   4.607  1.0798  2.8594  0.8017
13985TIP3    H263447   0.676   1.475   4.575  0.5820  0.5305 -1.1017
13986TIP3   OH263448   2.403   5.509  13.326 -0.0057 -0.2551 -0.4332
13986TIP3    H163449   2.485   5.537  13.367  0.2179  1.0685 -1.6692
13986TIP3    H263450   2.397   5.416  13.344  1.5143 -0.2677  0.1370
13987TIP3   OH263451   5.511   2.959  16.605 -0.5177 -0.1664  0.1772
13987TIP3    H163452   5.588   2.905  16.622  0.2141  1.0971  1.0656
13987TIP3    H263453   5.447   2.899  16.568  0.2396 -1.6493  1.1741
13988TIP3   OH263454   4.446   6.822   0.752 -0.0197  0.7080 -0.2783
13988TIP3    H163455   4.434   6.729   0.773  2.6052  0.4905  0.6411
13988TIP3    H263456   4.390   6.868   0.814  1.6759 -0.2078  2.0965
13989TIP3   OH263457   5.614   4.408  10.338  1.0168  0.0538 -0.0072
13989TIP3    H163458   5.623   4.357  10.258 -0.1116 -1.0301  0.5282
13989TIP3    H263459   5.594   4.496  10.309  1.4903 -0.1316 -0.9226
13990TIP3   OH263460   1.443   2.559   5.892 -0.0277 -0.7377  0.3112
13990TIP3    H163461   1.469   2.634   5.837  0.7832 -0.4973  1.0032
13990TIP3    H263462   1.380   2.596   5.954  0.0560 -0.7178  0.3847
13991TIP3   OH263463   1.060   1.843   0.491  0.3100 -0.6955 -0.0031
13991TIP3    H163464   1.136   1.797   0.455 -0.3838 -1.2626 -0.7796
13991TIP3    H263465   0.992   1.833   0.424  0.1356  1.5184 -0.2421
13992TIP3   OH263466   4.066   5.830  13.035 -0.5021 -0.0551  0.0012
13992TIP3    H163467   4.063   5.804  13.127  1.0593  2.4732  0.8707
13992TIP3    H263468   4.159   5.830  13.013 -0.6284  2.0011 -0.7042
13993TIP3   OH263469   4.197   4.085  16.137  0.2627  0.8468 -0.9144
13993TIP3    H163470   4.106   4.068  16.111  0.1510  0.9904 -0.6246
13993TIP3    H263471   4.250   4.035  16.074 -0.0548 -0.5696 -0.0980
13994TIP3   OH263472   3.642   4.330  17.257  0.2611 -0.5220 -0.4398
13994TIP3    H163473   3.582   4.399  17.226 -1.1138 -0.7305  1.5519
13994TIP3    H263474   3.686   4.300  17.178  0.4607  2.2007 -1.4709
13995TIP3   OH263475   2.822   3.514  12.089 -0.0090 -0.1625 -0.3387
13995TIP3    H163476   2.908   3.473  12.101  0.4449  1.1223  0.9581
13995TIP3    H263477   2.788   3.527  12.178 -1.0735  0.3547 -0.7977
13996TIP3   OH263478   5.236   3.914  16.050  0.5361  0.4340  0.0462
13996TIP3    H163479   5.171   3.845  16.043 -0.7133  1.6620 -1.2501
13996TIP3    H263480   5.256   3.919  16.144  2.1813 -2.9339  0.0156
13997TIP3   OH263481   4.464   6.047  16.160  0.1988  0.1117 -0.3192
13997TIP3    H163482   4.402   6.091  16.218 -0.2142  2.4047 -2.3322
13997TIP3    H263483   4.546   6.045  16.211  0.0293  2.6142  0.2055
13998TIP3   OH263484   5.962   0.763   1.473 -0.4286 -0.1365 -0.0670
13998TIP3    H163485   6.040   0.713   1.497 -0.3281 -0.4952 -1.1064
13998TIP3    H263486   5.982   0.853   1.499 -1.7172 -0.9253  4.5599
13999TIP3   OH263487   6.580   0.438   2.431  0.1958 -0.1627  0.0771
13999TIP3    H163488   6.636   0.377   2.384  0.0901 -0.8565  0.8349
13999TIP3    H263489   6.641   0.499   2.474  0.3543 -0.5609  0.4225
14000TIP3   OH263490   2.773   2.437   0.600 -0.0972  0.6366  0.6623
14000TIP3    H163491   2.733   2.482   0.674  0.9361  2.4832  0.1679
14000TIP3    H263492   2.714   2.452   0.527 -0.0133  0.7551  0.6176
14001TIP3   OH263493   2.751   2.421  16.810  0.2904  0.2380 -0.2353
14001TIP3    H163494   2.732   2.340  16.857 -3.7337  2.3718  2.3813
14001TIP3    H263495   2.676   2.434  16.752  0.5778  2.3039 -0.2192
14002TIP3   OH263496   2.929   5.321  11.868  0.1864 -0.5400 -0.2066
14002TIP3    H163497   2.966   5.285  11.788 -1.5135 -0.9239 -0.8503
14002TIP3    H263498   2.997   5.380  11.902  1.6077 -1.6845 -0.9864
14003TIP3   OH263499   0.917   2.757  16.498 -0.0907 -0.3127  0.4592
14003TIP3    H163500   0.935   2.825  16.564  1.9340 -0.4919  0.1693
14003TIP3    H263501   0.973   2.684  16.524 -0.1137 -0.8127 -0.8247
14004TIP3   OH263502   1.635   3.530  11.204  0.1127  0.5339 -0.3921
14004TIP3    H163503   1.725   3.550  11.227  0.4555  1.4309 -2.3114
14004TIP3    H263504   1.638   3.512  11.110 -1.9555  2.2904 -0.8592
14005TIP3   OH263505   6.754   3.941  14.268  0.3479  0.0853  0.0501
14005TIP3    H163506   6.766   3.993  14.348 -1.0756  1.3051 -0.4886
14005TIP3    H263507   6.789   3.855  14.290  0.0878  0.4318  1.9517
14006TIP3   OH263508   1.457   6.606   4.775  0.2437 -0.4180  0.1706
14006TIP3    H163509   1.546   6.569   4.775 -0.2159 -1.6325 -1.2428
14006TIP3    H263510   1.450   6.651   4.859  1.2352 -2.6713  1.5693
14007TIP3   OH263511   1.062   6.459   6.174  0.3759 -0.1489  0.3529
14007TIP3    H163512   1.076   6.550   6.148  1.2572 -0.0187  1.2435
14007TIP3    H263513   0.992   6.463   6.240 -2.6368 -0.5836 -2.5334
14008TIP3   OH263514   0.672   4.598  15.618 -0.1934 -0.0555 -0.2897
14008TIP3    H163515   0.705   4.682  15.588  3.2118 -0.9952  0.3652
14008TIP3    H263516   0.680   4.540  15.542  1.0705 -0.6098  0.2317
14009TIP3   OH263517   4.355   2.444  12.874  0.5691  0.6301 -0.0433
14009TIP3    H163518   4.449   2.454  12.884  0.5585  1.4079 -0.6094
14009TIP3    H263519   4.342   2.350  12.859  1.3567  0.6490 -0.9698
14010TIP3   OH263520   0.959   4.014   2.730  0.4830 -0.1506 -0.5018
14010TIP3    H163521   0.896   4.077   2.766 -0.9646 -1.3741 -0.7994
14010TIP3    H263522   0.982   4.050   2.644  1.7003  1.2780  0.3766
14011TIP3   OH263523   4.069   2.728   0.043 -0.0213  0.1234 -0.3717
14011TIP3    H163524   4.013   2.675  -0.014  0.1539 -0.1040 -0.3314
14011TIP3    H263525   4.094   2.669   0.114 -1.1482  0.7067  0.5455
14012TIP3   OH263526   5.597   6.514   1.251  0.0038  0.0992  0.2020
14012TIP3    H163527   5.613   6.439   1.193 -0.8520 -1.0907  1.4402
14012TIP3    H263528   5.552   6.578   1.196  0.8569 -0.2213 -0.9127
14013TIP3   OH263529   1.375   6.668   2.575 -0.4170  0.0233 -0.1794
14013TIP3    H163530   1.408   6.754   2.601 -1.4585  0.4488 -0.2088
14013TIP3    H263531   1.438   6.636   2.511  0.1083  0.6684  0.0093
14014TIP3   OH263532   2.773   0.866  14.452 -0.7514 -0.7227  0.3269
14014TIP3    H163533   2.817   0.919  14.386 -1.2032 -1.1231 -0.3103
14014TIP3    H263534   2.767   0.922  14.529  0.1831 -0.4042  0.1743
14015TIP3   OH263535   3.724   4.940   0.187  0.4476 -0.5629 -0.2805
14015TIP3    H163536   3.666   4.964   0.114  0.4750  1.8251  0.4000
14015TIP3    H263537   3.688   4.987   0.262  0.2847 -3.1352  1.3671
14016TIP3   OH263538   4.933   2.918  12.157  0.1347 -0.0008 -0.2679
14016TIP3    H163539   4.892   2.853  12.212 -0.1686  1.2193  1.0049
14016TIP3    H263540   5.004   2.954  12.211  2.5196 -1.5852 -2.1477
14017TIP3   OH263541   0.807   4.506   4.323 -0.2433 -0.1282 -0.2759
14017TIP3    H163542   0.791   4.460   4.405 -0.2463 -1.1253 -0.8176
14017TIP3    H263543   0.732   4.565   4.313 -0.3824 -0.2099  0.2918
14018TIP3   OH263544   6.397   1.101  17.156 -0.1739 -0.3220 -0.6632
14018TIP3    H163545   6.465   1.043  17.191 -0.3603 -0.7257 -0.9571
14018TIP3    H263546   6.361   1.053  17.081 -3.1669 -1.7061  1.4714
14019TIP3   OH263547   3.307   4.942   0.029 -0.1389 -0.1444  0.1089
14019TIP3    H163548   3.259   4.859   0.024 -0.0200 -0.1669 -1.2310
14019TIP3    H263549   3.253   4.998   0.085 -0.0248 -1.2412  1.3494
14020TIP3   OH263550   4.062   4.496   0.355  0.7054  0.7185  0.0479
14020TIP3    H163551   4.045   4.414   0.402 -1.7942  0.1198 -1.7160
14020TIP3    H263552   4.089   4.557   0.424 -1.6140 -0.4228  2.1338
14021TIP3   OH263553   1.730   0.399  16.253  0.3484  0.1166 -0.1820
14021TIP3    H163554   1.799   0.410  16.319  0.7293  1.2443 -0.7526
14021TIP3    H263555   1.686   0.483  16.250  0.1702 -0.0065 -1.1864
14022TIP3   OH263556   0.887   2.519   1.928 -0.3435  0.0733  0.3511
14022TIP3    H163557   0.885   2.428   1.896 -1.7879  0.1490  0.1257
14022TIP3    H263558   0.833   2.517   2.007  2.1430  0.1522  2.1752
14023TIP3   OH263559   4.289   4.626  15.955 -0.4864  0.3454 -0.2378
14023TIP3    H163560   4.361   4.678  15.990 -1.2150  2.1113 -1.2344
14023TIP3    H263561   4.315   4.607  15.865 -1.7502  2.1187 -1.0419
14024TIP3   OH263562   6.162   4.241  15.938 -0.0230 -0.5673  0.4909
14024TIP3    H163563   6.227   4.189  15.891  0.0744  0.5128 -0.6427
14024TIP3    H263564   6.112   4.178  15.988  0.4235 -1.6918 -0.4292
14025TIP3   OH263565   4.892   2.838   0.663 -0.3259  0.1802  0.0362
14025TIP3    H163566   4.950   2.874   0.596 -2.9622 -1.1190 -3.2728
14025TIP3    H263567   4.913   2.744   0.664 -0.1165  0.2245  1.3350
14026TIP3   OH263568   3.926   0.648   3.540  0.2506  0.1378 -0.0010
14026TIP3    H163569   3.851   0.633   3.598  0.2581 -0.0298 -0.0366
14026TIP3    H263570   3.997   0.596   3.577  0.0255 -0.6493 -0.6355
14027TIP3   OH263571   6.484   1.371  15.299  0.1917 -0.4102 -0.7766
14027TIP3    H163572   6.506   1.301  15.238 -0.3705 -0.1774 -1.2506
14027TIP3    H263573   6.408   1.415  15.261  1.4561  1.4588 -1.3026
14028TIP3   OH263574   3.883   1.918   2.373 -0.0402 -0.3422  0.2229
14028TIP3    H163575   3.790   1.903   2.352 -0.6057  0.9528  1.6708
14028TIP3    H263576   3.911   1.986   2.312 -0.7428  0.9838  1.3242
14029TIP3   OH263577   2.221   6.254   6.414 -0.1068  0.5487 -0.2372
14029TIP3    H163578   2.282   6.187   6.385 -0.9029 -0.3018 -0.0187
14029TIP3    H263579   2.172   6.277   6.335  0.5627  1.3256 -0.4409
14030TIP3   OH263580   6.248   6.807  14.128 -0.2190 -0.1845 -0.2613
14030TIP3    H163581   6.338   6.776  14.118  0.2302  0.9825  0.0531
14030TIP3    H263582   6.194   6.731  14.104  0.8162 -1.5624  1.5178
14031TIP3   OH263583   5.117   0.921  17.180 -0.3882  0.6893 -0.0763
14031TIP3    H163584   5.033   0.944  17.221 -0.0912  0.4392  0.6798
14031TIP3    H263585   5.111   0.958  17.092 -1.5478  0.1489 -0.2498
14032TIP3   OH263586   5.064   3.763  13.587 -0.7355  0.5091  0.4275
14032TIP3    H163587   4.983   3.712  13.577 -0.5186  0.0856  0.8051
14032TIP3    H263588   5.134   3.698  13.584 -0.5636  0.4001  3.6272
14033TIP3   OH263589   0.271   5.323   3.812 -0.0153 -0.0048 -0.4215
14033TIP3    H163590   0.235   5.236   3.827  1.4505 -0.7239 -0.8771
14033TIP3    H263591   0.348   5.308   3.757  1.2967  1.3786  0.9152
14034TIP3   OH263592   4.675   0.046  11.063  0.3138 -0.1664  0.1912
14034TIP3    H163593   4.598  -0.002  11.032  0.8344 -0.1734 -1.1106
14034TIP3    H263594   4.650   0.138  11.055  0.6989 -0.1544 -0.9174
14035TIP3   OH263595   3.665   4.411  16.388  0.0948  0.2698 -0.3872
14035TIP3    H163596   3.587   4.365  16.420 -0.8314  1.0669 -1.4255
14035TIP3    H263597   3.728   4.404  16.460 -0.4832 -1.4389  0.0150
14036TIP3   OH263598   0.338   6.230   3.424 -0.5300 -0.1555 -0.6025
14036TIP3    H163599   0.246   6.234   3.397 -0.3721  0.4755 -1.0720
14036TIP3    H263600   0.335   6.208   3.517 -1.0777 -3.1043 -1.2366
14037TIP3   OH263601   6.209   6.463  15.426 -0.3219  0.1165 -0.0829
14037TIP3    H163602   6.162   6.441  15.346 -3.0308 -1.6156  1.8213
14037TIP3    H263603   6.148   6.517  15.476  0.5919 -0.2604  1.5207
14038TIP3   OH263604   2.300   6.053   0.804  0.0738  0.5778  0.0050
14038TIP3    H163605   2.219   6.004   0.790  2.2310 -3.1666 -0.8117
14038TIP3    H263606   2.310   6.057   0.899  1.0443 -3.2170  0.2310
14039TIP3   OH263607   2.671   5.075  10.761  0.5402 -0.0740  0.1555
14039TIP3    H163608   2.766   5.083  10.776  0.6189 -1.4387  0.5468
14039TIP3    H263609   2.661   5.093  10.668  1.7169 -3.3097 -0.7393
14040TIP3   OH263610   2.460   1.544   6.108 -0.2403  0.5526  0.1582
14040TIP3    H163611   2.452   1.636   6.133 -0.4717  0.2394  1.3238
14040TIP3    H263612   2.487   1.500   6.189 -0.3237 -0.4298 -0.3353
14041TIP3   OH263613   3.444   5.820   1.559  0.0154  0.3364  0.1352
14041TIP3    H163614   3.358   5.822   1.516  0.7168 -1.4079 -1.4769
14041TIP3    H263615   3.502   5.865   1.498  0.8329 -1.2940 -0.3298
14042TIP3   OH263616   3.541   6.752  13.483  0.2276  0.3011 -0.5154
14042TIP3    H163617   3.581   6.814  13.543 -1.0402  0.8889 -0.2505
14042TIP3    H263618   3.532   6.671  13.533 -0.3190  0.6239 -0.0918
14043TIP3   OH263619   3.718   2.311  11.230 -0.3710 -0.1152 -0.1675
14043TIP3    H163620   3.645   2.253  11.206 -1.6668  2.3630 -2.8274
14043TIP3    H263621   3.759   2.334  11.146  1.4604  1.1121  0.9798
14044TIP3   OH263622   3.110   2.981  13.781 -0.0525 -0.0153  0.3953
14044TIP3    H163623   3.148   3.069  13.785  0.6291 -0.2716 -0.2513
14044TIP3    H263624   3.021   2.991  13.816 -0.0391  0.9556  0.1630
14045TIP3   OH263625   1.773   2.384  14.893  0.0718  1.2216 -0.4799
14045TIP3    H163626   1.716   2.370  14.969 -0.2260  0.4001 -0.8400
14045TIP3    H263627   1.862   2.381  14.930  0.2080 -3.2044 -0.5709
14046TIP3   OH263628   2.503   1.138   5.980  0.2420 -0.0503  0.0063
14046TIP3    H163629   2.593   1.156   6.009 -0.6315 -0.3105  3.2121
14046TIP3    H263630   2.502   1.044   5.962  0.1518 -0.4702  2.0278
14047TIP3   OH263631   1.497   5.334   0.170 -0.2092  0.5974  0.4997
14047TIP3    H163632   1.541   5.417   0.187 -0.4788  1.0085 -0.7036
14047TIP3    H263633   1.516   5.315   0.079 -0.6134 -0.3880  0.6096
14048TIP3   OH263634   3.570   3.293   2.007 -1.0216 -0.3964 -0.3702
14048TIP3    H163635   3.544   3.242   2.083 -0.0162 -0.9403 -0.3676
14048TIP3    H263636   3.553   3.384   2.031 -0.7337 -0.5680  0.4991
14049TIP3   OH263637   5.435   6.215   4.779  0.1012 -0.1414 -0.2412
14049TIP3    H163638   5.462   6.227   4.688 -0.0768 -0.9691 -0.4052
14049TIP3    H263639   5.511   6.242   4.830  0.0239  0.8256 -0.6102
14050TIP3   OH263640   6.609   2.411   4.457 -0.5268 -0.0131 -0.2342
14050TIP3    H163641   6.641   2.325   4.430 -2.4440 -0.0637 -2.6490
14050TIP3    H263642   6.683   2.470   4.443  1.5022 -1.4200  3.3590
14051TIP3   OH263643   1.390   5.742  12.708 -0.3651 -0.0536 -0.5077
14051TIP3    H163644   1.380   5.731  12.803 -1.4768 -1.5425 -0.7482
14051TIP3    H263645   1.309   5.706  12.672  0.0865  0.4010 -2.0379
14052TIP3   OH263646   6.694   0.145   4.537 -0.0319 -0.5397 -0.2656
14052TIP3    H163647   6.722   0.111   4.622  0.7808  0.6906 -0.0165
14052TIP3    H263648   6.606   0.181   4.553  0.2127 -0.0989  0.1249
14053TIP3   OH263649   5.459   6.484  13.199 -0.5283 -0.4270  0.1309
14053TIP3    H163650   5.430   6.414  13.141 -0.9924 -1.2356  1.3082
14053TIP3    H263651   5.389   6.491  13.265  0.4810 -0.2698  1.2140
14054TIP3   OH263652   2.163   5.150  11.491  0.0595 -0.2018 -0.3611
14054TIP3    H163653   2.253   5.136  11.459  0.2852  2.0645 -0.8784
14054TIP3    H263654   2.107   5.113  11.423  0.4398 -4.1547  1.1521
14055TIP3   OH263655   2.482   0.635  14.307 -0.0006  0.3436  0.7195
14055TIP3    H163656   2.558   0.669  14.259  0.4051  0.3554  1.3522
14055TIP3    H263657   2.510   0.548  14.337 -0.4497  0.1090  0.4716
14056TIP3   OH263658   4.032   5.773   1.336  0.1160 -0.0187 -0.0546
14056TIP3    H163659   3.976   5.818   1.273  0.8626 -1.4839 -1.8748
14056TIP3    H263660   3.977   5.703   1.371 -1.6126  3.0008  4.0385
14057TIP3   OH263661   2.428   2.850   0.722  0.3004  0.4151  0.4884
14057TIP3    H163662   2.353   2.897   0.685 -0.2132  0.1338  1.1642
14057TIP3    H263663   2.434   2.881   0.812  0.6536  0.0180  0.6045
14058TIP3   OH263664   5.933   4.216   4.367  0.2736 -0.2674 -0.7071
14058TIP3    H163665   5.949   4.168   4.447  2.0217 -0.7938 -1.3235
14058TIP3    H263666   5.871   4.162   4.318  3.4269 -2.9085 -2.1233
14059TIP3   OH263667   6.156   5.293   4.406  0.1843  0.6873 -0.1899
14059TIP3    H163668   6.183   5.292   4.498  0.1584 -2.3210 -0.1365
14059TIP3    H263669   6.238   5.296   4.357  0.2759  0.2211 -0.0641
14060TIP3   OH263670   1.082   6.177   0.164 -0.3627 -0.6829 -0.0911
14060TIP3    H163671   1.093   6.212   0.253 -1.4064 -1.8239  0.5164
14060TIP3    H263672   1.154   6.115   0.153 -0.8377 -1.3378  0.3897
14061TIP3   OH263673   4.965   1.046   3.067  0.6173  0.4620 -0.1812
14061TIP3    H163674   4.896   1.110   3.047 -0.1563 -0.5411 -0.8337
14061TIP3    H263675   4.996   1.070   3.154  0.2382  1.6283 -0.3573
14062TIP3   OH263676   1.994   6.340   0.235  0.5036 -0.3336  0.3233
14062TIP3    H163677   1.958   6.401   0.299  0.3997 -0.6877  0.6127
14062TIP3    H263678   2.054   6.285   0.286  0.4160 -0.6219  0.1216
14063TIP3   OH263679   6.779   6.183   5.230  0.7677  0.2127 -0.1265
14063TIP3    H163680   6.729   6.171   5.310  0.7256 -1.5814 -0.3760
14063TIP3    H263681   6.866   6.149   5.251  1.1861  1.0762 -0.4176
14064TIP3   OH263682   1.823   3.335  12.932 -0.2047  0.5093  0.0636
14064TIP3    H163683   1.892   3.335  12.865 -1.1021 -1.2457 -0.9340
14064TIP3    H263684   1.830   3.248  12.972  0.4420  1.5892  2.4453
14065TIP3   OH263685   3.556   4.706   3.224 -0.0691 -0.7441 -0.3283
14065TIP3    H163686   3.500   4.734   3.297  0.4704 -0.6236  0.0492
14065TIP3    H263687   3.504   4.724   3.146  0.1305  1.0945 -0.0941
14066TIP3   OH263688   1.971   3.165  15.240  0.4216 -0.2463 -0.0056
14066TIP3    H163689   1.977   3.107  15.165 -0.1576 -0.3842  0.0472
14066TIP3    H263690   1.993   3.110  15.315 -0.3843 -0.4740  0.0738
14067TIP3   OH263691   4.390   0.572  12.488  0.0893  0.9174 -0.1642
14067TIP3    H163692   4.456   0.624  12.533 -0.0149 -0.2294  1.3783
14067TIP3    H263693   4.357   0.511  12.554 -1.8024  0.7825 -1.1579
14068TIP3   OH263694   6.775   4.587   4.368 -0.1149 -0.0775 -0.2945
14068TIP3    H163695   6.728   4.668   4.388  0.9484  0.1844  1.2993
14068TIP3    H263696   6.838   4.613   4.300 -0.2098  0.2779 -0.2488
14069TIP3   OH263697   5.940   4.793  16.991  0.0059 -0.3291 -0.0499
14069TIP3    H163698   5.974   4.853  16.924  0.9264 -2.2338 -1.3582
14069TIP3    H263699   6.005   4.797  17.061  0.2402 -0.0785 -0.2791
14070TIP3   OH263700   5.309   3.452  16.494 -0.0523  0.4304 -0.7213
14070TIP3    H163701   5.390   3.502  16.504  2.0034 -2.8497  0.4741
14070TIP3    H263702   5.279   3.438  16.584 -0.2940 -0.8318 -0.9824
14071TIP3   OH263703   6.667   2.062   1.265 -0.1104  0.3048 -0.1626
14071TIP3    H163704   6.697   2.008   1.339 -1.7913 -1.8176 -0.9515
14071TIP3    H263705   6.668   2.003   1.190  0.6934  2.1826 -1.7154
14072TIP3   OH263706   2.953   1.164  13.153 -0.7431  0.2462  0.1367
14072TIP3    H163707   2.992   1.226  13.216  0.4882 -0.4130  0.0600
14072TIP3    H263708   2.912   1.220  13.087 -1.4637  0.9567  1.1479
14073TIP3   OH263709   3.317   6.410   1.772 -0.4149 -0.0254  0.3962
14073TIP3    H163710   3.369   6.387   1.849 -1.5512 -1.3516  0.8011
14073TIP3    H263711   3.264   6.484   1.801 -0.3067 -0.0440  0.6479
14074TIP3   OH263712   3.291   0.017  14.980 -0.3826  0.2000 -0.5075
14074TIP3    H163713   3.199  -0.003  14.997 -0.1025 -0.1440  0.7181
14074TIP3    H263714   3.339  -0.033  15.046  0.7208  0.0056 -1.4158
14075TIP3   OH263715   0.667   3.116  14.756  0.1779 -0.2159 -0.4412
14075TIP3    H163716   0.599   3.067  14.804 -1.1605 -0.2929 -2.2645
14075TIP3    H263717   0.701   3.052  14.693  1.6343 -0.0309  0.1409
14076TIP3   OH263718   1.555   1.256  13.740  0.0618  0.3355  0.3517
14076TIP3    H163719   1.588   1.287  13.656  2.3437 -0.0872  1.0073
14076TIP3    H263720   1.597   1.313  13.804  0.8442 -1.2653  1.3331
14077TIP3   OH263721   6.169   0.623  15.003 -0.2159 -0.5094  0.2874
14077TIP3    H163722   6.140   0.569  15.076 -0.4256 -0.4872  0.2231
14077TIP3    H263723   6.092   0.674  14.979  0.6041  1.5684  1.8550
14078TIP3   OH263724   2.912   4.143   3.465  0.2363 -0.2213  0.2726
14078TIP3    H163725   2.978   4.207   3.439  1.9529 -2.4778 -1.3816
14078TIP3    H263726   2.830   4.178   3.431  0.9844  1.4378  0.0808
14079TIP3   OH263727   1.001   4.354   0.589  0.2627  0.1086 -0.8104
14079TIP3    H163728   1.064   4.373   0.519  3.0899  1.7929  1.8926
14079TIP3    H263729   0.986   4.438   0.631  0.6412 -1.1226  2.0282
14080TIP3   OH263730   2.214   4.180   5.935  0.3551 -0.1849  0.2175
14080TIP3    H163731   2.234   4.087   5.943 -0.5557 -0.3245  0.9986
14080TIP3    H263732   2.286   4.225   5.978  0.8710 -0.5188 -0.2906
14081TIP3   OH263733   4.339   4.425   1.556  0.4069 -0.4653  0.0167
14081TIP3    H163734   4.293   4.508   1.563  1.9758  0.3999  0.5043
14081TIP3    H263735   4.430   4.445   1.580  1.1495 -2.0148 -1.2705
14082TIP3   OH263736   2.283   1.497   0.315 -0.1826 -0.0211 -0.3487
14082TIP3    H163737   2.378   1.499   0.325 -0.2875  0.5280  0.6749
14082TIP3    H263738   2.258   1.588   0.301 -0.6622  0.0209  0.6496
14083TIP3   OH263739   6.764   2.762  12.344 -0.4073 -0.0100  0.0731
14083TIP3    H163740   6.720   2.816  12.278 -0.8769  0.6234  0.8877
14083TIP3    H263741   6.760   2.814  12.424 -0.0156 -0.8485  0.6484
14084TIP3   OH263742   2.201   6.534   2.800  0.1365 -0.0661  0.2260
14084TIP3    H163743   2.196   6.451   2.752 -1.6885  0.3502 -0.3631
14084TIP3    H263744   2.122   6.536   2.853  0.6884  0.8440  1.0414
14085TIP3   OH263745   4.378   0.875   1.490 -0.2080  0.0394 -0.9608
14085TIP3    H163746   4.297   0.826   1.478 -0.6408  0.5766 -0.2932
14085TIP3    H263747   4.430   0.821   1.550  0.1580 -0.5651 -1.8148
14086TIP3   OH263748   1.469   2.447  14.444 -0.2013 -0.3578 -0.0279
14086TIP3    H163749   1.382   2.486  14.437 -0.2599 -0.6737 -1.5174
14086TIP3    H263750   1.488   2.445  14.538 -2.3688 -1.5442  0.4312
14087TIP3   OH263751   5.869   1.216   4.328  0.4955  0.2568 -0.7344
14087TIP3    H163752   5.860   1.296   4.275  1.2230  0.8619  0.0339
14087TIP3    H263753   5.780   1.198   4.359  0.1602  0.2258 -1.6574
14088TIP3   OH263754   3.431   4.951  15.553 -0.2380  0.9433 -0.3872
14088TIP3    H163755   3.417   4.984  15.642  0.0792  0.3532 -0.1134
14088TIP3    H263756   3.350   4.972  15.506 -0.3838  1.3060  0.0291
14089TIP3   OH263757   4.382   5.912  11.490  0.3582  0.0694 -0.2281
14089TIP3    H163758   4.417   5.948  11.571 -1.0557  0.2066  0.3312
14089TIP3    H263759   4.443   5.841  11.468  1.3116  0.6633  0.4057
14090TIP3   OH263760   6.333   0.787  14.648 -0.1620 -0.7062 -0.2666
14090TIP3    H163761   6.408   0.775  14.589  0.7364 -0.0255  0.7032
14090TIP3    H263762   6.332   0.707  14.701  0.6012 -0.2070  0.5045
14091TIP3   OH263763   5.511   3.656  14.443  0.0154  0.3893  0.1027
14091TIP3    H163764   5.423   3.648  14.405 -0.1196 -0.1888  0.5249
14091TIP3    H263765   5.527   3.750  14.447 -0.2621  0.4828 -0.7129
14092TIP3   OH263766   6.768   1.253  12.725 -0.1747  0.4471  0.3166
14092TIP3    H163767   6.683   1.295  12.721  0.2925  1.6360  1.8886
14092TIP3    H263768   6.764   1.196  12.801 -0.2065 -1.0456 -0.7705
14093TIP3   OH263769   3.338   1.881  14.017 -0.5159 -0.9774  0.7379
14093TIP3    H163770   3.366   1.835  13.938 -2.4228 -0.8855 -0.0517
14093TIP3    H263771   3.335   1.973  13.991 -0.5278 -0.8723  1.1095
14094TIP3   OH263772   6.256   5.612   1.182 -0.4180 -0.3076 -0.0312
14094TIP3    H163773   6.312   5.643   1.111  0.3072 -0.2338  0.5630
14094TIP3    H263774   6.237   5.691   1.234  0.5902 -0.6663  0.9043
14095TIP3   OH263775   4.066   3.991  12.329 -0.5781  0.0514  0.5234
14095TIP3    H163776   4.023   3.964  12.409 -1.9721  0.2655 -0.1256
14095TIP3    H263777   4.018   3.946  12.259 -0.3182  0.9885 -0.2805
14096TIP3   OH263778   2.663   0.182  16.138  0.1587 -0.4195  0.9061
14096TIP3    H163779   2.604   0.156  16.209 -2.3395 -2.5146 -1.6816
14096TIP3    H263780   2.700   0.099  16.108  1.0490  0.4028 -0.3139
14097TIP3   OH263781   3.589   5.029   1.801 -0.2720 -0.1224  0.2087
14097TIP3    H163782   3.592   5.021   1.706 -0.3619  2.3684 -0.0766
14097TIP3    H263783   3.679   5.047   1.827 -0.2785 -0.6106  0.5653
14098TIP3   OH263784   6.621   5.903   4.529  0.3864 -0.1008 -0.0772
14098TIP3    H163785   6.537   5.857   4.533 -1.4439  2.9898 -0.2462
14098TIP3    H263786   6.675   5.858   4.594 -2.4473 -0.2761  2.3871
14099TIP3   OH263787   5.003   2.890   1.826  0.2744  0.7519  0.6923
14099TIP3    H163788   5.006   2.936   1.910  0.9076 -1.5062  1.9953
14099TIP3    H263789   4.927   2.834   1.832  1.2370 -0.6220  0.4457
14100TIP3   OH263790   5.172   5.814   4.886 -0.1695 -0.1071 -0.2950
14100TIP3    H163791   5.235   5.775   4.946 -1.5540 -1.1161  0.5549
14100TIP3    H263792   5.220   5.826   4.804  1.2301 -0.4172  0.4654
14101TIP3   OH263793   0.099   2.761   1.444 -0.0706 -0.4844  0.0042
14101TIP3    H163794   0.192   2.772   1.463 -0.8437  2.0095  3.0470
14101TIP3    H263795   0.081   2.825   1.374  0.1941  0.2807  0.6253
14102TIP3   OH263796   5.391   3.231  11.822 -0.0393  0.2960  0.1080
14102TIP3    H163797   5.379   3.326  11.822 -3.8462 -0.0182  1.2620
14102TIP3    H263798   5.430   3.211  11.908 -0.2039  0.7152  0.2792
14103TIP3   OH263799   0.784   1.328   5.376  0.4501  0.4170  0.0244
14103TIP3    H163800   0.872   1.364   5.365 -0.0222  1.8040  0.6098
14103TIP3    H263801   0.749   1.373   5.452 -0.4318 -0.8308  0.3980
14104TIP3   OH263802   3.722   4.398  15.282 -0.1234  0.1995 -0.1492
14104TIP3    H163803   3.737   4.401  15.376  1.6348 -1.5003 -0.3198
14104TIP3    H263804   3.642   4.449  15.269  0.4748  1.8306  2.0387
14105TIP3   OH263805   3.279   6.446  14.041 -0.2130  0.0830 -0.1023
14105TIP3    H163806   3.294   6.509  14.111  0.0657  0.7191 -0.7275
14105TIP3    H263807   3.312   6.363  14.076  0.5613  0.5337  0.2631
14106TIP3   OH263808   0.019   0.659   4.330 -1.0067  0.5054 -0.8648
14106TIP3    H163809   0.002   0.568   4.305  0.4427  0.5004 -1.9710
14106TIP3    H263810  -0.049   0.679   4.394  0.8218 -2.5493  2.3890
14107TIP3   OH263811   2.111   6.120  11.316 -0.0442  0.2669 -0.2316
14107TIP3    H163812   2.126   6.065  11.239  0.5713 -0.1991  0.2075
14107TIP3    H263813   2.139   6.208  11.289  1.9581 -0.2497  0.0184
14108TIP3   OH263814   5.686   3.136  14.326 -0.1779  0.3784 -0.8494
14108TIP3    H163815   5.654   3.220  14.360 -1.6837  0.1089 -1.5223
14108TIP3    H263816   5.618   3.107  14.265 -0.2078 -1.8369  0.1415
14109TIP3   OH263817   0.847   0.922   3.817 -0.3638  0.6209 -0.6005
14109TIP3    H163818   0.780   0.943   3.882  0.2591  2.4781 -0.4945
14109TIP3    H263819   0.866   0.829   3.830 -2.0461  0.3628  0.1585
14110TIP3   OH263820   2.832   6.264  12.184  0.4603 -0.2425  0.0935
14110TIP3    H163821   2.858   6.259  12.092  0.3577 -1.8102  0.1133
14110TIP3    H263822   2.907   6.306  12.228  0.9569 -0.4350 -0.5513
14111TIP3   OH263823   2.375   2.038  15.629  0.1737 -0.2807  0.2841
14111TIP3    H163824   2.339   2.023  15.716 -0.2707  0.4842  0.2349
14111TIP3    H263825   2.342   1.966  15.576  2.5974 -2.3302  1.3340
14112TIP3   OH263826   6.524   4.833  13.085  0.2442 -0.1476  0.3973
14112TIP3    H163827   6.564   4.766  13.029 -0.9503 -1.5576  1.1577
14112TIP3    H263828   6.476   4.783  13.152 -2.5760  1.3932 -0.3176
14113TIP3   OH263829   1.519   3.079   6.771  0.0100 -0.0728 -0.2191
14113TIP3    H163830   1.538   2.987   6.750  0.9311 -0.5252  2.3074
14113TIP3    H263831   1.423   3.083   6.776 -0.0004 -1.3587  1.3533
14114TIP3   OH263832   2.806   0.401   3.007 -0.0027 -0.0634  0.2111
14114TIP3    H163833   2.819   0.432   3.097 -0.9164 -0.3455  0.4452
14114TIP3    H263834   2.794   0.307   3.015 -0.1413 -0.0834 -0.2039
14115TIP3   OH263835   1.353   1.776   1.465  0.3756  0.4991  0.6235
14115TIP3    H163836   1.284   1.820   1.415  0.3990  0.5486  0.6342
14115TIP3    H263837   1.427   1.837   1.461  0.8965 -0.1835 -0.5951
14116TIP3   OH263838   5.598   6.291   4.988 -0.3975 -0.0817 -0.3925
14116TIP3    H163839   5.666   6.334   4.937  0.4547 -0.9569 -0.0120
14116TIP3    H263840   5.557   6.362   5.038  0.5430  0.3826 -0.2701
14117TIP3   OH263841   4.413   5.720   1.051 -0.2002 -0.0055  0.3069
14117TIP3    H163842   4.385   5.736   1.141  1.5753  0.8762  0.7520
14117TIP3    H263843   4.371   5.789   1.000  1.5744  1.7312  1.0679
14118TIP3   OH263844   5.972   3.887  11.082 -0.0827  0.0893  0.1227
14118TIP3    H163845   5.962   3.879  10.987  2.0132 -1.0927 -0.0469
14118TIP3    H263846   5.894   3.844  11.117 -2.3368  2.9045 -0.9600
14119TIP3   OH263847   5.855   2.255   1.764 -0.2023  0.5117 -0.0334
14119TIP3    H163848   5.941   2.227   1.796 -0.2935  0.3146  0.0392
14119TIP3    H263849   5.871   2.285   1.674 -0.2381 -0.4717 -0.3746
14120TIP3   OH263850   6.358   4.744   0.786 -0.0946 -0.3856  0.5649
14120TIP3    H163851   6.287   4.686   0.813  1.2658 -1.3325  2.2680
14120TIP3    H263852   6.434   4.715   0.836  1.4649  0.7542 -1.0083
14121TIP3   OH263853   0.311   4.518  13.841 -0.1604  0.2711  0.3189
14121TIP3    H163854   0.219   4.544  13.852 -0.5434 -0.5885 -0.6454
14121TIP3    H263855   0.347   4.583  13.780 -0.6767 -0.4710 -0.8193
14122TIP3   OH263856   4.338   6.250  17.223  0.0467  0.2899 -0.0980
14122TIP3    H163857   4.330   6.336  17.265  0.4074  0.2782  0.0003
14122TIP3    H263858   4.327   6.188  17.295 -2.1975  0.1862 -0.4562
14123TIP3   OH263859   6.735   4.078  17.225  0.3694  0.1769 -0.0771
14123TIP3    H163860   6.673   4.032  17.168  2.0388 -0.6567 -1.2966
14123TIP3    H263861   6.818   4.076  17.177  1.2844  1.5452  1.3560
14124TIP3   OH263862   2.472   1.620   4.690  0.8106 -0.2051  0.2999
14124TIP3    H163863   2.531   1.618   4.614  3.3653  3.5264  1.9046
14124TIP3    H263864   2.505   1.551   4.748  1.3742 -0.4404 -0.2904
14125TIP3   OH263865   2.039   4.962  10.345  0.3757 -0.1731  0.2925
14125TIP3    H163866   1.959   4.911  10.334 -1.0748  1.1632  3.4824
14125TIP3    H263867   2.061   4.954  10.438  1.7298  2.6021  0.3222
14126TIP3   OH263868   4.711   2.545   5.159 -0.0335 -0.1885 -0.6551
14126TIP3    H163869   4.801   2.526   5.132  0.5861 -0.8288  1.6534
14126TIP3    H263870   4.720   2.590   5.243 -1.8630 -1.9491  0.5785
14127TIP3   OH263871   2.837   3.098  11.870 -0.0304 -0.5054 -0.2543
14127TIP3    H163872   2.788   3.144  11.938 -1.3633 -0.9674 -0.8864
14127TIP3    H263873   2.901   3.045  11.919 -0.4044 -0.1896  0.5925
14128TIP3   OH263874   5.814   6.664   0.858  0.4680  0.2596 -0.4383
14128TIP3    H163875   5.880   6.603   0.826 -0.1913  0.0551 -1.4806
14128TIP3    H263876   5.772   6.617   0.930  1.0974  0.1786 -0.1183
14129TIP3   OH263877   1.510   3.713  16.354 -0.0130  0.0194 -0.7682
14129TIP3    H163878   1.424   3.693  16.392 -0.3285 -0.5147 -1.7210
14129TIP3    H263879   1.506   3.677  16.265  0.5604  1.5784 -1.4683
14130TIP3   OH263880   5.982   0.168  12.089 -0.2016  0.7598  0.2619
14130TIP3    H163881   6.048   0.161  12.158 -0.3000 -1.7737  0.2081
14130TIP3    H263882   6.026   0.138  12.010 -0.2166  3.2265 -0.7413
14131TIP3   OH263883   2.134   2.822  11.793 -0.2944  0.4747 -0.1454
14131TIP3    H163884   2.093   2.749  11.838  0.5466  0.0320 -0.0766
14131TIP3    H263885   2.177   2.782  11.717 -1.2425  1.1359 -1.0651
14132TIP3   OH263886   6.804   0.024   5.229 -0.3350  0.4500 -0.1619
14132TIP3    H163887   6.879   0.073   5.197  1.1331 -1.9497 -0.5847
14132TIP3    H263888   6.798  -0.052   5.171 -0.1188 -1.8920  2.6662
14133TIP3   OH263889   2.056   2.691  12.808  0.2221  0.4065  0.0813
14133TIP3    H163890   2.139   2.708  12.763  0.0201  0.4949 -0.2662
14133TIP3    H263891   2.025   2.608  12.770 -0.0509  0.5876 -0.0997
14134TIP3   OH263892   0.376   4.628   2.917 -0.6286  0.7587  0.3275
14134TIP3    H163893   0.363   4.564   2.846  1.5795 -0.1975  0.6838
14134TIP3    H263894   0.468   4.616   2.942 -0.5928  3.0285  1.4753
14135TIP3   OH263895   4.869   4.562  16.954 -0.3346 -0.4836 -0.3637
14135TIP3    H163896   4.956   4.599  16.966 -0.9433  0.9308 -0.1235
14135TIP3    H263897   4.817   4.599  17.026 -1.1107 -1.3694 -0.4513
14136TIP3   OH263898   6.769   5.693   2.335  0.0866 -0.0939 -0.8543
14136TIP3    H163899   6.798   5.638   2.408 -0.2805 -0.1210 -0.7256
14136TIP3    H263900   6.840   5.755   2.321 -0.5738  1.1014  0.7329
14137TIP3   OH263901   2.140   5.793  11.247 -0.6352  0.3740  0.4268
14137TIP3    H163902   2.205   5.820  11.312  0.1614  1.2249 -0.6898
14137TIP3    H263903   2.138   5.864  11.183 -0.6511 -0.8773 -1.0335
14138TIP3   OH263904   1.837   3.802   1.331  0.4672 -0.1419 -0.0258
14138TIP3    H163905   1.751   3.824   1.295  0.6302 -0.4373 -0.5984
14138TIP3    H263906   1.818   3.771   1.420 -0.0055 -0.0734 -0.0996
14139TIP3   OH263907   0.156   6.518   3.316  0.0473  0.4036  0.2853
14139TIP3    H163908   0.178   6.606   3.347  2.2046  0.1773 -0.4183
14139TIP3    H263909   0.161   6.525   3.221 -0.2423 -0.3741  0.2123
14140TIP3   OH263910   5.172   4.937   1.424  0.7805 -0.0135  0.3644
14140TIP3    H163911   5.150   5.023   1.389  1.3382  0.2192  0.5815
14140TIP3    H263912   5.235   4.955   1.493  2.3879 -0.7246 -0.8477
14141TIP3   OH263913   6.813   5.809  15.832 -0.2058  0.0459 -0.3035
14141TIP3    H163914   6.871   5.874  15.793  0.6788 -0.8356 -0.5194
14141TIP3    H263915   6.841   5.804  15.924 -0.5718  0.2942 -0.1792
14142TIP3   OH263916   1.315   4.961   1.591 -0.5206 -0.0897 -0.4690
14142TIP3    H163917   1.334   4.976   1.684 -0.3595 -0.3439 -0.4595
14142TIP3    H263918   1.234   5.009   1.575 -1.3050 -1.1605  0.1377
14143TIP3   OH263919   2.167   0.951   4.949 -0.1942 -0.2047  0.0507
14143TIP3    H163920   2.207   0.997   5.024  0.2127  0.0883 -0.3414
14143TIP3    H263921   2.090   0.908   4.986 -0.6444  0.8752  0.4043
14144TIP3   OH263922   0.344   3.095  12.844 -0.1329 -0.2561 -0.4381
14144TIP3    H163923   0.329   3.168  12.905  2.0640  0.0003 -0.1386
14144TIP3    H263924   0.268   3.038  12.856  0.6435 -0.7848  3.4348
14145TIP3   OH263925   2.694   5.802   0.681 -0.0405  0.1439 -0.6998
14145TIP3    H163926   2.668   5.867   0.746  0.2353  0.0531 -0.4978
14145TIP3    H263927   2.690   5.849   0.597  2.6063  1.1920 -0.3249
14146TIP3   OH263928   2.637   6.143  17.181  0.2868  0.6059 -0.2832
14146TIP3    H163929   2.566   6.207  17.169 -0.1525  0.1268 -0.2884
14146TIP3    H263930   2.599   6.060  17.152  1.0020  0.4212 -0.7065
14147TIP3   OH263931   2.745   1.230   2.409 -0.2699  0.4206 -0.6216
14147TIP3    H163932   2.687   1.280   2.352  0.5262 -0.1765 -2.0128
14147TIP3    H263933   2.799   1.178   2.348 -1.1146 -2.1966  0.7298
14148TIP3   OH263934   4.548   6.607   1.913  0.2523 -0.3030 -0.3046
14148TIP3    H163935   4.596   6.572   1.838 -0.4482  5.0054 -3.8394
14148TIP3    H263936   4.616   6.632   1.976  1.8016  1.5696 -2.5282
14149TIP3   OH263937   5.363   0.250   3.140  0.4572  0.6318  0.1856
14149TIP3    H163938   5.345   0.184   3.074  1.5799  1.5472 -1.0775
14149TIP3    H263939   5.411   0.203   3.209 -0.3818 -0.2431  0.1806
14150TIP3   OH263940   4.526   6.796  16.095 -0.3000  0.3118  0.3787
14150TIP3    H163941   4.452   6.751  16.054 -0.5823  0.4710  0.7081
14150TIP3    H263942   4.559   6.734  16.159 -1.4156  0.9805  1.6591
14151TIP3   OH263943   6.354   1.178   5.933  0.2445  1.0076 -0.4103
14151TIP3    H163944   6.332   1.187   6.026 -2.4453 -0.0203 -0.8496
14151TIP3    H263945   6.392   1.091   5.926 -0.9519  0.4739 -0.4613
14152TIP3   OH263946   6.756   4.055  15.908 -0.4470  0.8510 -0.0417
14152TIP3    H163947   6.729   3.963  15.900 -0.4175  0.5506  2.5687
14152TIP3    H263948   6.832   4.062  15.850  1.6314 -1.7344  2.0845
14153TIP3   OH263949   3.226   1.165  16.810  0.4338 -0.6605 -0.6032
14153TIP3    H163950   3.297   1.166  16.746 -0.1871 -0.8072 -1.3224
14153TIP3    H263951   3.269   1.173  16.895  1.1513  1.6042 -1.1266
14154TIP3   OH263952   5.620   1.097  16.552 -0.3741  0.2303 -0.3547
14154TIP3    H163953   5.554   1.029  16.568 -2.5460  1.8895 -1.6124
14154TIP3    H263954   5.584   1.176  16.594  1.6405  0.8527  0.3277
14155TIP3   OH263955   6.819   0.934   1.966  0.0171  0.1454  0.5863
14155TIP3    H163956   6.839   0.970   1.880 -1.3891  1.1379  0.6413
14155TIP3    H263957   6.830   1.008   2.026 -0.4604 -0.1546  1.0470
14156TIP3   OH263958   6.407   0.358  16.263 -0.3247  1.1506  0.2738
14156TIP3    H163959   6.387   0.373  16.356  0.5846  3.4385  0.1765
14156TIP3    H263960   6.401   0.445  16.223  0.1621  0.3594 -1.6473
14157TIP3   OH263961   3.222   2.266  17.077  0.0088 -0.3724  0.1989
14157TIP3    H163962   3.305   2.275  17.030  0.7501 -1.5182  1.2256
14157TIP3    H263963   3.241   2.202  17.145 -1.6223 -0.3319  0.7109
14158TIP3   OH263964   4.021   6.750  12.595  0.5918  1.0855 -0.1745
14158TIP3    H163965   4.070   6.791  12.523 -1.4398  0.8070 -1.8034
14158TIP3    H263966   4.039   6.657  12.586  1.0905  1.1381  0.2756
14159TIP3   OH263967   1.918   0.771   0.639 -0.3885  0.2178 -0.2444
14159TIP3    H163968   1.887   0.732   0.556 -2.2199 -0.7590  0.8311
14159TIP3    H263969   1.893   0.863   0.633 -1.8121 -0.1419 -0.2292
14160TIP3   OH263970   1.986   6.486  11.971 -0.4055  0.0963  0.0522
14160TIP3    H163971   1.964   6.578  11.954  1.3702  0.7288  0.9239
14160TIP3    H263972   2.053   6.490  12.039  0.3097 -1.8160 -0.4896
14161TIP3   OH263973   6.310   1.701  13.822  0.0996 -0.0836  0.1146
14161TIP3    H163974   6.376   1.675  13.886  1.5986  2.4728 -0.2943
14161TIP3    H263975   6.311   1.631  13.756  0.7546 -1.1857  1.2513
14162TIP3   OH263976   1.013   3.938  14.919  0.1983  0.0711 -0.4943
14162TIP3    H163977   0.936   3.993  14.903  1.3828  1.4595 -1.7596
14162TIP3    H263978   1.075   3.997  14.962  0.4071 -1.1638  0.9693
14163TIP3   OH263979   2.308   0.972  16.285  0.6401  0.2990  0.1855
14163TIP3    H163980   2.278   0.982  16.375 -0.1533  0.1203 -0.0481
14163TIP3    H263981   2.359   1.051  16.267 -2.9145  2.6555 -0.6371
14164TIP3   OH263982   3.821   3.567   1.504  0.3037  0.2452  0.3047
14164TIP3    H163983   3.785   3.650   1.534  1.2269  0.7565  0.0250
14164TIP3    H263984   3.745   3.508   1.502 -0.4048  1.1267  0.2882
14165TIP3   OH263985   4.698   4.666  11.084 -0.3445 -0.3094 -0.1019
14165TIP3    H163986   4.661   4.639  10.999  1.9334 -1.6023 -0.7696
14165TIP3    H263987   4.730   4.585  11.123  1.6407  0.7019  0.4615
14166TIP3   OH263988   5.149   0.219   3.576  0.0402 -0.1814  0.0669
14166TIP3    H163989   5.206   0.162   3.524  0.0932 -1.5073  1.4760
14166TIP3    H263990   5.200   0.237   3.656 -1.1524 -0.6993  0.9844
14167TIP3   OH263991   6.417   5.624   3.538 -0.0229  0.4067 -0.1559
14167TIP3    H163992   6.359   5.595   3.609  1.0761 -0.2968  0.4737
14167TIP3    H263993   6.462   5.545   3.509  1.3499  1.0880  0.0465
14168TIP3   OH263994   2.022   2.515  11.416 -0.2440 -0.2106  0.0861
14168TIP3    H163995   1.981   2.570  11.349  0.0857  1.5573  1.2723
14168TIP3    H263996   2.115   2.519  11.397 -0.3236 -1.9480 -0.9257
14169TIP3   OH263997   1.532   1.729   4.154  0.5381  0.2692  0.2726
14169TIP3    H163998   1.545   1.678   4.234  1.0099 -0.8239 -0.4831
14169TIP3    H263999   1.441   1.758   4.159  0.8574  1.1610  1.7197
14170TIP3   OH264000   1.765   0.446   1.763  0.2556  0.4753  0.1087
14170TIP3    H164001   1.705   0.517   1.738  1.2345  1.6807  1.0295
14170TIP3    H264002   1.845   0.465   1.715  0.3724 -0.3045 -0.0068
14171TIP3   OH264003   3.983   6.802   3.667 -0.3609 -0.5978 -0.1938
14171TIP3    H164004   4.044   6.736   3.698  1.1187  1.0986  0.7073
14171TIP3    H264005   3.910   6.799   3.729  0.6108 -0.0939  1.0191
14172TIP3   OH264006   4.967   1.109   4.767 -0.3200  0.0666 -0.1831
14172TIP3    H164007   4.879   1.144   4.748 -1.4443 -2.7205 -0.5226
14172TIP3    H264008   4.973   1.110   4.862 -0.4359  0.8555 -0.1737
14173TIP3   OH264009   1.577   3.660  16.730  0.3312  0.0037  0.1547
14173TIP3    H164010   1.630   3.699  16.799  0.0559 -0.6833  0.7702
14173TIP3    H264011   1.625   3.580  16.706 -1.4691 -1.8840  2.3145
14174TIP3   OH264012   5.754   6.053  12.152 -0.1632  0.0332  0.4670
14174TIP3    H164013   5.701   5.975  12.170 -0.6304  0.1549 -0.3261
14174TIP3    H264014   5.801   6.031  12.071  0.6361  0.1148  0.8986
14175TIP3   OH264015   6.624   0.785  16.972 -0.2006  0.4942 -0.3571
14175TIP3    H164016   6.624   0.800  17.067  0.0570  0.3239 -0.3301
14175TIP3    H264017   6.570   0.856  16.936  1.4753  1.8758 -0.2906
14176TIP3   OH264018   6.786   5.932   1.615 -0.3323  0.4963  0.5580
14176TIP3    H164019   6.830   6.006   1.574 -2.3653  1.2061 -0.4602
14176TIP3    H264020   6.784   5.954   1.709  1.8469  0.1827  0.7336
14177TIP3   OH264021   3.914   6.141   3.194 -0.6008  0.2767 -0.4001
14177TIP3    H164022   3.921   6.128   3.288  1.7125  2.7312 -0.1201
14177TIP3    H264023   3.955   6.063   3.156 -1.3811 -0.6416  0.5773
14178TIP3   OH264024   3.560   5.531   1.530  0.2772 -0.4187  0.1282
14178TIP3    H164025   3.578   5.493   1.616 -2.6050 -0.8185  0.6647
14178TIP3    H264026   3.535   5.622   1.549  0.3459 -0.2934 -0.3676
14179TIP3   OH264027   4.833   1.356  12.377  0.2668  0.0893 -0.0468
14179TIP3    H164028   4.834   1.290  12.447 -0.7952  1.1446  1.0228
14179TIP3    H264029   4.887   1.319  12.308  0.3627 -1.5371  0.8512
14180TIP3   OH264030   2.998   2.941  12.018  0.0142 -0.5130 -0.4462
14180TIP3    H164031   2.963   2.894  12.093 -0.4554 -1.2004 -1.0918
14180TIP3    H264032   3.089   2.912  12.011 -0.0686 -0.7804 -0.4076
14181TIP3   OH264033   5.456   4.809  11.253 -0.5649 -0.4306  0.0104
14181TIP3    H164034   5.395   4.797  11.180 -0.4869  1.9441 -0.5261
14181TIP3    H264035   5.440   4.733  11.310 -1.7632 -1.5089 -1.6556
14182TIP3   OH264036   4.111   2.320  14.555  0.1996 -0.1346 -0.6011
14182TIP3    H164037   4.158   2.403  14.547  1.2810 -0.8385 -2.0281
14182TIP3    H264038   4.171   2.255  14.517 -0.6639 -1.5589  0.3682
14183TIP3   OH264039   2.723   6.329  13.690 -0.0283 -0.3730  0.2111
14183TIP3    H164040   2.732   6.399  13.626 -0.0272 -0.1989  0.4004
14183TIP3    H264041   2.810   6.321  13.729  0.3054 -1.3296 -0.6773
14184TIP3   OH264042   1.239   5.668   2.348  0.6793  0.3236 -0.3918
14184TIP3    H164043   1.151   5.704   2.336 -0.5604 -1.5069  2.1940
14184TIP3    H264044   1.280   5.725   2.413 -0.1561 -1.0326  1.4061
14185TIP3   OH264045   3.596   2.142  15.671 -0.8299 -0.2297 -0.4051
14185TIP3    H164046   3.585   2.223  15.720  0.3135  0.5889 -1.4502
14185TIP3    H264047   3.546   2.156  15.590  1.4015  0.5124 -1.7474
14186TIP3   OH264048   1.219   0.069  11.103  0.3721 -0.4847 -0.2377
14186TIP3    H164049   1.310   0.070  11.073  0.0576  2.1466 -1.4128
14186TIP3    H264050   1.167   0.076  11.023 -1.1053 -4.5308  0.1674
14187TIP3   OH264051   3.439   6.755  11.541 -1.0626  0.1409  0.7801
14187TIP3    H164052   3.523   6.794  11.517 -0.9885 -0.0438  0.7358
14187TIP3    H264053   3.378   6.787  11.474 -0.9725  0.0706  0.6625
14188TIP3   OH264054   5.675   4.089   6.475  0.1942  0.0604 -0.3970
14188TIP3    H164055   5.763   4.121   6.458  0.1590  0.2450 -0.2388
14188TIP3    H264056   5.687   4.009   6.525  0.2510  0.7823  0.7828
14189TIP3   OH264057   2.261   0.639   2.327  0.6978  1.1026 -0.2606
14189TIP3    H164058   2.225   0.550   2.325  1.0817  0.9491 -0.5531
14189TIP3    H264059   2.190   0.695   2.297  0.5390  0.8613 -0.3312
14190TIP3   OH264060   4.199   4.866  14.667  0.0510 -0.1117  0.2013
14190TIP3    H164061   4.194   4.936  14.602  2.0934 -0.4262 -0.3832
14190TIP3    H264062   4.194   4.911  14.751 -2.8992  0.2756 -0.0800
14191TIP3   OH264063   3.475   6.146  11.722  0.2409  0.2945  0.1890
14191TIP3    H164064   3.565   6.155  11.690  1.3919  0.7089  3.2009
14191TIP3    H264065   3.436   6.233  11.712  0.6767  0.4960  0.2429
14192TIP3   OH264066   1.144   0.570  14.929  0.3635  0.4452  0.1122
14192TIP3    H164067   1.177   0.569  15.019 -1.2092  0.0805  0.7092
14192TIP3    H264068   1.107   0.483  14.917 -0.9262  1.0392 -0.3131
14193TIP3   OH264069   6.713   6.446  12.675 -0.1924 -0.1631  0.1546
14193TIP3    H164070   6.763   6.503  12.617  0.2826 -1.6958 -1.0126
14193TIP3    H264071   6.623   6.480  12.670  0.0899  0.5194 -0.4433
14194TIP3   OH264072   5.231   4.265  12.996  0.2208 -0.9026 -0.0883
14194TIP3    H164073   5.192   4.200  13.054  2.3469 -1.1531  1.1509
14194TIP3    H264074   5.311   4.292  13.040 -1.5212  4.2067  0.5767
14195TIP3   OH264075   1.348   0.327   6.273 -0.2415  0.2947  0.3162
14195TIP3    H164076   1.280   0.378   6.229 -3.1966 -2.6412  1.0323
14195TIP3    H264077   1.326   0.332   6.366  1.8290  0.8697  0.8412
14196TIP3   OH264078   5.871   5.297   2.213 -0.0836 -0.1406  0.4995
14196TIP3    H164079   5.881   5.369   2.151 -0.7765  0.4635  1.0713
14196TIP3    H264080   5.953   5.295   2.261 -0.1140  0.3585  0.5749
14197TIP3   OH264081   4.623   4.047   2.855 -0.0581  0.0089 -0.3016
14197TIP3    H164082   4.540   4.008   2.827  0.6332 -0.6856 -1.4335
14197TIP3    H264083   4.674   3.974   2.889  0.1196  0.4303  0.3725
14198TIP3   OH264084   4.384   0.431   1.284 -0.4670  0.0680 -1.2085
14198TIP3    H164085   4.301   0.460   1.247 -1.2522 -0.3548  0.1877
14198TIP3    H264086   4.393   0.481   1.365 -0.1064 -1.0195 -0.5684
14199TIP3   OH264087   0.424   3.845  12.139 -0.1966 -0.4236 -0.4043
14199TIP3    H164088   0.440   3.835  12.233 -0.7283  0.2675 -0.2330
14199TIP3    H264089   0.501   3.891  12.106 -0.3141 -0.0667 -0.1831
14200TIP3   OH264090   1.290   0.495  16.740 -0.0534  0.1208 -0.2184
14200TIP3    H164091   1.321   0.408  16.716  0.4717 -0.1971  1.4577
14200TIP3    H264092   1.199   0.497  16.709 -0.5232 -1.5605  0.9003
14201TIP3   OH264093   1.766   3.462  12.391  0.4554  0.6229 -0.1234
14201TIP3    H164094   1.793   3.375  12.419  1.5502  0.8013 -0.5631
14201TIP3    H264095   1.725   3.448  12.305 -1.9438  0.2154  0.9903
14202TIP3   OH264096   3.251   4.247   2.251  0.8905  0.2520 -0.0153
14202TIP3    H164097   3.287   4.306   2.318 -0.1453 -0.7395  1.4683
14202TIP3    H264098   3.164   4.283   2.233 -0.1532 -1.2713  1.6170
14203TIP3   OH264099   6.734   3.878  14.633 -0.5049 -0.2890  0.4163
14203TIP3    H164100   6.771   3.805  14.582 -0.7137  0.3203 -0.6297
14203TIP3    H264101   6.791   3.952  14.612 -1.8185  0.4742 -0.5957
14204TIP3   OH264102   1.597   4.398  10.670 -0.0044 -0.2255  0.1306
14204TIP3    H164103   1.514   4.442  10.651  1.2324  2.3790  0.2861
14204TIP3    H264104   1.579   4.346  10.749 -1.4454  0.4423  0.2793
14205TIP3   OH264105   6.721   3.329   5.320 -0.1312 -0.1385 -0.0122
14205TIP3    H164106   6.795   3.311   5.378 -0.2644 -0.2488  0.1227
14205TIP3    H264107   6.644   3.317   5.375 -0.2718 -0.5779 -0.2956
14206TIP3   OH264108   0.856   2.266   1.849  0.0998  1.0847  0.6322
14206TIP3    H164109   0.768   2.235   1.873 -0.7294  0.7211 -2.3723
14206TIP3    H264110   0.914   2.225   1.913 -1.6402 -1.2623  0.8758
14207TIP3   OH264111   2.489   5.863  13.521 -0.0092 -0.5255 -0.5844
14207TIP3    H164112   2.493   5.953  13.554 -1.0800 -0.9557  0.8328
14207TIP3    H264113   2.399   5.855  13.487 -0.5852 -1.6039  1.0804
14208TIP3   OH264114   3.595   2.067  11.112  0.4020  0.3305  0.2416
14208TIP3    H164115   3.620   2.107  11.029 -2.3657 -0.1977 -0.9810
14208TIP3    H264116   3.623   1.976  11.104  2.2803  0.8100  0.9504
14209TIP3   OH264117   4.275   6.476  15.346  0.0456  0.3178  0.1921
14209TIP3    H164118   4.257   6.461  15.439  1.2748 -1.8244  0.1600
14209TIP3    H264119   4.358   6.525  15.346  0.0890  0.2443  0.2237
14210TIP3   OH264120   4.077   6.105   0.892  0.2119 -0.0631 -0.0710
14210TIP3    H164121   4.061   6.063   0.808  0.0665 -0.4332  0.1367
14210TIP3    H264122   3.993   6.144   0.916  0.4652  0.7391 -0.4751
14211TIP3   OH264123   3.151   3.350   2.002 -0.1556  0.5033 -0.0186
14211TIP3    H164124   3.210   3.365   2.075 -0.1426 -1.7140  0.4885
14211TIP3    H264125   3.094   3.427   2.001 -0.1402  0.6128  2.3241
14212TIP3   OH264126   5.667   2.696  13.126 -0.1855 -0.4835 -0.6686
14212TIP3    H164127   5.752   2.738  13.116 -0.3083 -0.0688 -0.0346
14212TIP3    H264128   5.607   2.752  13.077 -0.5365  0.7310  1.0485
14213TIP3   OH264129   1.788   2.614  14.695  0.8605 -0.0490 -0.0201
14213TIP3    H164130   1.695   2.613  14.670  1.2380 -0.2835 -1.5519
14213TIP3    H264131   1.792   2.567  14.778 -0.2762 -0.7976 -0.3743
14214TIP3   OH264132   2.445   4.719   4.559 -0.6225 -0.3905 -0.0791
14214TIP3    H164133   2.439   4.648   4.622 -2.5175  0.9796  1.4044
14214TIP3    H264134   2.465   4.676   4.476  1.9448 -2.2774  1.3504
14215TIP3   OH264135   2.421   3.970  11.576 -0.7420 -0.2064  0.0487
14215TIP3    H164136   2.413   3.878  11.602  0.5480 -1.1838 -2.5785
14215TIP3    H264137   2.334   3.995  11.547 -0.6457 -1.3946 -1.3760
14216TIP3   OH264138   4.604   4.651   3.947 -0.0611  0.4296  0.3160
14216TIP3    H164139   4.672   4.584   3.945  0.5356  1.0435 -0.9150
14216TIP3    H264140   4.651   4.733   3.962 -0.7497  0.6518  1.4704
14217TIP3   OH264141   6.687   5.306   3.906  0.0289  0.4152  0.2325
14217TIP3    H164142   6.666   5.325   3.814  0.3984 -0.8465 -0.1413
14217TIP3    H264143   6.640   5.372   3.956  1.5484  2.5245 -0.9544
14218TIP3   OH264144   3.177   0.398  11.976  0.1976  0.6339  0.3715
14218TIP3    H164145   3.158   0.354  12.059 -0.7883  0.2723 -0.0266
14218TIP3    H264146   3.265   0.434  11.987  1.0055 -1.3446  0.7447
14219TIP3   OH264147   0.798   4.877  11.295  0.6836 -0.1148  0.2121
14219TIP3    H164148   0.740   4.801  11.301  1.8235 -1.0126  0.3072
14219TIP3    H264149   0.741   4.949  11.269 -0.2871 -1.1844 -0.7639
14220TIP3   OH264150   5.146   3.356  17.266  0.5534 -0.0063 -0.2078
14220TIP3    H164151   5.075   3.292  17.260 -0.5943  1.1395  0.5410
14220TIP3    H264152   5.207   3.320  17.330 -0.4586 -0.0305  0.7617
14221TIP3   OH264153   6.657   1.569  15.403 -0.1729  0.1035 -0.7313
14221TIP3    H164154   6.595   1.499  15.380  0.9912 -2.3240  2.6559
14221TIP3    H264155   6.608   1.627  15.460 -0.0966 -0.3369 -0.2006
14222TIP3   OH264156   4.188   1.173   3.975  0.3057 -0.2714 -0.2299
14222TIP3    H164157   4.238   1.228   4.036 -0.1529  2.1682 -1.9117
14222TIP3    H264158   4.128   1.234   3.932 -2.0387 -2.5672 -0.4361
14223TIP3   OH264159   2.480   1.366   4.336 -0.0429 -0.6438 -0.0819
14223TIP3    H164160   2.434   1.287   4.365 -1.5325 -0.9550 -2.9432
14223TIP3    H264161   2.557   1.333   4.290  1.4509 -0.2038  1.9342
14224TIP3   OH264162   2.245   6.245  14.215  0.0318  0.4191 -0.1805
14224TIP3    H164163   2.302   6.199  14.154 -0.2780 -0.0190 -0.1454
14224TIP3    H264164   2.284   6.231  14.301  0.1852  0.6036 -0.2191
14225TIP3   OH264165   2.922   1.468   2.343  0.0035  0.1818  0.7689
14225TIP3    H164166   2.896   1.427   2.260  1.2495 -0.1775  0.5269
14225TIP3    H264167   2.869   1.424   2.409 -0.2844 -0.2424  0.2678
14226TIP3   OH264168   0.805   2.336   0.447  0.8413  0.3114 -0.0584
14226TIP3    H164169   0.712   2.331   0.466  1.2417 -0.3347  1.9031
14226TIP3    H264170   0.813   2.411   0.387 -0.9272  0.2758 -0.3850
14227TIP3   OH264171   5.103   4.976  11.123 -0.4731  0.7559  0.2120
14227TIP3    H164172   5.044   4.907  11.095 -0.1900  0.1257  1.1156
14227TIP3    H264173   5.155   4.936  11.193 -0.3039  1.8782  0.7494
14228TIP3   OH264174   5.367   2.397  15.858  0.1960  0.5245 -0.4816
14228TIP3    H164175   5.344   2.446  15.938 -0.4153 -0.3008 -0.1360
14228TIP3    H264176   5.462   2.403  15.853  0.1149  2.0666 -0.6610
14229TIP3   OH264177   1.493   1.242   5.095  0.6910  0.2108  0.0452
14229TIP3    H164178   1.550   1.275   5.164  1.7786 -0.0232 -0.6994
14229TIP3    H264179   1.510   1.147   5.093 -1.9350 -0.3927  1.7584
14230TIP3   OH264180   6.344   2.894  12.447  0.1169  0.0960  0.1555
14230TIP3    H164181   6.269   2.904  12.390 -0.0480 -1.0183  0.1542
14230TIP3    H264182   6.419   2.923  12.394  0.0263 -1.3123 -0.7933
14231TIP3   OH264183   5.360   4.140   0.253 -0.0756  0.1255  0.0196
14231TIP3    H164184   5.267   4.127   0.272 -0.1913  0.5255 -0.2652
14231TIP3    H264185   5.402   4.136   0.339 -0.1172 -1.8890 -0.0154
14232TIP3   OH264186   3.086   6.034   1.558 -0.2259  0.3047 -0.0503
14232TIP3    H164187   3.018   6.101   1.542  0.9392  1.6698  0.4499
14232TIP3    H264188   3.166   6.085   1.572  1.1359 -1.2906 -1.5994
14233TIP3   OH264189   0.794   2.462   4.173 -0.0590  0.0834 -0.3094
14233TIP3    H164190   0.839   2.394   4.122  1.1390 -0.7742  1.7718
14233TIP3    H264191   0.701   2.444   4.157  0.2137 -2.0508  0.1181
14234TIP3   OH264192   2.519   2.292   0.485  0.5298  0.4056 -0.3715
14234TIP3    H164193   2.563   2.207   0.487  0.5353  0.4219  0.2197
14234TIP3    H264194   2.548   2.331   0.402 -1.3658 -1.1614 -1.8615
14235TIP3   OH264195   0.241   1.405   2.508 -0.0242 -0.1455  0.0093
14235TIP3    H164196   0.210   1.485   2.550 -0.6972  0.7323 -2.0178
14235TIP3    H264197   0.162   1.366   2.470  0.8025  0.3982 -2.4636
14236TIP3   OH264198   1.094   6.006  13.462  0.2265 -0.1595  0.5556
14236TIP3    H164199   1.066   6.086  13.506  1.0638  0.0114  0.8066
14236TIP3    H264200   1.043   5.937  13.503  0.8407  0.0233  1.6812
14237TIP3   OH264201   4.965   2.477  12.449 -0.1486  0.0953 -0.4493
14237TIP3    H164202   4.900   2.472  12.379 -0.1985 -0.1555 -0.3860
14237TIP3    H264203   4.981   2.571  12.460 -0.1154  0.1321 -0.8202
14238TIP3   OH264204   1.861   6.196   3.421 -0.0896  0.4449 -0.1552
14238TIP3    H164205   1.885   6.191   3.514  0.8909  0.9366 -0.3580
14238TIP3    H264206   1.796   6.266   3.417  0.5532  1.0739  0.0525
14239TIP3   OH264207   4.984   2.194  12.504 -0.0538 -0.2864  0.3214
14239TIP3    H164208   5.025   2.146  12.576 -0.9414  1.0941  1.8132
14239TIP3    H264209   5.014   2.284  12.514 -0.2681 -0.0383 -0.9984
14240TIP3   OH264210   6.105   4.480   4.068  0.5207  0.2326  0.4610
14240TIP3    H164211   6.015   4.476   4.101  0.6515  0.1250  0.8118
14240TIP3    H264212   6.143   4.556   4.111 -0.0050  1.5095 -1.2529
14241TIP3   OH264213   6.161   3.622  14.690 -0.1687  0.0129  0.2606
14241TIP3    H164214   6.172   3.544  14.636 -4.2097 -0.4497 -0.2109
14241TIP3    H264215   6.095   3.674  14.644 -1.3329  1.2227  3.0449
14242TIP3   OH264216   4.385   5.670   4.569 -0.2166 -0.0501 -0.1163
14242TIP3    H164217   4.331   5.716   4.505 -1.5410 -0.2777  0.7964
14242TIP3    H264218   4.324   5.644   4.638  1.1251  0.0686  1.1870
14243TIP3   OH264219   1.812   5.242  12.659  0.1322  0.3486 -0.2551
14243TIP3    H164220   1.776   5.322  12.622 -1.2300  0.5240  1.3031
14243TIP3    H264221   1.904   5.262  12.675 -0.1544  1.5583 -0.0295
14244TIP3   OH264222   5.528   0.352  15.284 -0.0004 -0.2751  0.0664
14244TIP3    H164223   5.544   0.311  15.369 -1.0456  1.4544  1.1661
14244TIP3    H264224   5.568   0.292  15.221  1.8389 -1.0454  1.8351
14245TIP3   OH264225   6.046   0.399   0.527 -0.5418  0.1162  0.2325
14245TIP3    H164226   6.108   0.331   0.550 -0.8113  0.3064  1.6244
14245TIP3    H264227   6.060   0.415   0.434  0.9933 -0.3398  0.3660
14246TIP3   OH264228   4.683   0.153   2.725 -0.1064  0.1213 -0.1308
14246TIP3    H164229   4.620   0.165   2.796  0.7433 -1.2681  0.9264
14246TIP3    H264230   4.768   0.164   2.767  0.4113 -0.3809 -1.0142
14247TIP3   OH264231   3.940   4.959   5.731  0.3920 -0.2099  0.0844
14247TIP3    H164232   3.878   4.975   5.660  0.6137 -1.2557 -0.3706
14247TIP3    H264233   4.019   5.007   5.706  0.4964 -0.6359 -0.4292
14248TIP3   OH264234   5.119   2.717  16.261  0.0106 -0.5589  0.1678
14248TIP3    H164235   5.141   2.625  16.275  2.2407 -0.1304 -0.0332
14248TIP3    H264236   5.156   2.738  16.175 -1.6292  0.2140 -0.3799
14249TIP3   OH264237   1.999   2.302  11.578 -0.1210  0.1983 -0.0668
14249TIP3    H164238   2.033   2.374  11.524  0.3129 -0.6533 -0.9443
14249TIP3    H264239   2.035   2.223  11.538  0.2968 -0.4554  1.5418
14250TIP3   OH264240   5.945   0.617  14.420 -0.0176 -0.5323  0.0746
14250TIP3    H164241   5.987   0.645  14.501 -1.2032  1.9910 -0.1117
14250TIP3    H264242   5.864   0.575  14.448  0.1904 -0.8288  0.2362
14251TIP3   OH264243   1.654   0.980   1.436  0.5666  0.2874 -0.2456
14251TIP3    H164244   1.601   1.001   1.513  1.5694  3.0157 -0.2047
14251TIP3    H264245   1.594   0.991   1.362  0.6423  1.8407 -0.1015
14252TIP3   OH264246   0.204   6.452  13.245  0.1016 -0.4751  0.3490
14252TIP3    H164247   0.249   6.470  13.162 -0.0073  1.4279  0.6592
14252TIP3    H264248   0.273   6.456  13.311 -0.2238  0.7622  0.6352
14253TIP3   OH264249   3.418   5.939  14.614  0.8722  0.2733  0.0982
14253TIP3    H164250   3.328   5.906  14.623  0.4316  1.1371 -0.8553
14253TIP3    H264251   3.420   6.018  14.667  0.3043  1.5881 -1.7143
14254TIP3   OH264252   1.092   5.575   4.324 -0.3184 -0.1929  0.0361
14254TIP3    H164253   1.152   5.504   4.349 -0.6949 -0.6290 -0.2804
14254TIP3    H264254   1.007   5.547   4.358 -0.0234  1.3751  2.2908
14255TIP3   OH264255   2.202   5.057  12.069  0.1565  0.2853  0.1055
14255TIP3    H164256   2.258   5.088  11.999 -1.2462 -0.9177 -1.6350
14255TIP3    H264257   2.113   5.074  12.039 -0.6061 -2.8373  0.2009
14256TIP3   OH264258   4.818   2.779  15.832  0.0235  0.0159  0.4968
14256TIP3    H164259   4.827   2.733  15.916  0.3615 -0.6730  0.0913
14256TIP3    H264260   4.751   2.729  15.785 -0.5590  0.7200  0.5644
14257TIP3   OH264261   6.813   0.829  11.057 -0.3647  0.6703  0.0084
14257TIP3    H164262   6.758   0.905  11.039 -1.5634 -0.4292 -1.1795
14257TIP3    H264263   6.837   0.796  10.970  0.3751 -0.1392  0.5059
14258TIP3   OH264264   1.134   2.268  11.130  0.0526 -0.4770 -0.3709
14258TIP3    H164265   1.093   2.253  11.044 -2.1903 -2.7441  0.9199
14258TIP3    H264266   1.085   2.341  11.167 -0.4920 -0.9052 -0.2197
14259TIP3   OH264267   1.636   1.580   5.493  0.3321  0.1506  0.4025
14259TIP3    H164268   1.657   1.673   5.485  1.4781  0.0338  1.7273
14259TIP3    H264269   1.543   1.574   5.470  0.0520  1.7401  1.0199
14260TIP3   OH264270   2.812   3.768  15.503 -0.0040 -0.1145 -0.1415
14260TIP3    H164271   2.770   3.732  15.581 -0.6010  0.6932 -0.0796
14260TIP3    H264272   2.832   3.691  15.449  2.1283 -0.8763  1.5956
14261TIP3   OH264273   5.328   0.732   4.930 -0.0355 -0.6089 -0.6745
14261TIP3    H164274   5.265   0.767   4.993  0.8481 -0.5308  0.2025
14261TIP3    H264275   5.284   0.735   4.846 -0.8900  0.2235 -0.2031
14262TIP3   OH264276   1.306   5.885   2.516 -0.2038 -0.1200  0.2281
14262TIP3    H164277   1.245   5.928   2.456 -1.7230  0.5753  2.1369
14262TIP3    H264278   1.339   5.956   2.572 -0.1104 -0.9398  1.2443
14263TIP3   OH264279   4.738   6.712  11.373 -0.8176  0.1081 -0.1669
14263TIP3    H164280   4.757   6.785  11.432 -1.2354  0.5135 -0.5156
14263TIP3    H264281   4.644   6.719  11.357 -1.1100 -1.2950  0.8132
14264TIP3   OH264282   4.677   2.784  14.971 -0.1267 -0.2342 -0.0330
14264TIP3    H164283   4.661   2.744  14.886 -0.4785 -1.3640  0.5503
14264TIP3    H264284   4.604   2.756  15.026  0.0941  0.4778  0.6523
14265TIP3   OH264285   2.211   5.313  13.152 -0.0669 -0.1134 -0.3225
14265TIP3    H164286   2.140   5.266  13.109  1.5490 -0.9760 -2.1739
14265TIP3    H264287   2.274   5.245  13.177  0.7149  0.7415  0.1065
14266TIP3   OH264288   4.832   6.218  14.134 -0.1920 -0.0436 -0.2052
14266TIP3    H164289   4.812   6.130  14.166  1.4098 -0.2686  0.2247
14266TIP3    H264290   4.826   6.273  14.212  0.7474 -0.1014 -0.0879
14267TIP3   OH264291   0.183   1.119   4.296 -0.8413 -0.4073 -0.1859
14267TIP3    H164292   0.134   1.045   4.260 -2.8349  0.0015  1.4959
14267TIP3    H264293   0.124   1.194   4.287  0.4733  0.6674 -0.3265
14268TIP3   OH264294   1.375   2.091  16.277  0.1754  0.1628 -0.0329
14268TIP3    H164295   1.400   2.080  16.185  0.1756  0.7081 -0.1011
14268TIP3    H264296   1.450   2.055  16.326  1.4353  2.3454 -0.2281
14269TIP3   OH264297   6.340   2.256   0.590  0.5505 -0.5112 -0.3510
14269TIP3    H164298   6.266   2.226   0.536  0.9798 -0.2004 -1.1170
14269TIP3    H264299   6.309   2.338   0.628  0.3708 -0.5555 -0.3967
14270TIP3   OH264300   0.321   1.635   2.917  0.2354 -0.0885 -0.4407
14270TIP3    H164301   0.394   1.574   2.924  3.7003  3.7454  2.1771
14270TIP3    H264302   0.348   1.696   2.848  0.6321  2.3615  1.6847
14271TIP3   OH264303   4.076   3.807   3.353 -0.2211  0.4016  0.4772
14271TIP3    H164304   3.992   3.817   3.308 -0.2222  1.5271  0.7007
14271TIP3    H264305   4.110   3.896   3.361  1.1767 -0.0678  0.0658
14272TIP3   OH264306   1.483   4.263   5.372  0.3784 -0.6064 -0.0471
14272TIP3    H164307   1.455   4.172   5.386  1.8557 -0.6918  3.7251
14272TIP3    H264308   1.575   4.255   5.346  1.3411 -0.3171  2.9109
14273TIP3   OH264309   1.336   6.556  10.916  0.8854 -0.1015 -0.5222
14273TIP3    H164310   1.383   6.529  10.837 -0.5524 -1.3633 -1.0030
14273TIP3    H264311   1.392   6.622  10.956  1.9803  0.0662 -2.2303
14274TIP3   OH264312   2.606   5.608  13.528  0.3543  0.3600  0.9446
14274TIP3    H164313   2.634   5.601  13.619  1.0770 -1.9603  0.6032
14274TIP3    H264314   2.574   5.698  13.520 -0.9997  0.2705  3.8363
14275TIP3   OH264315   3.485   5.470  11.833  0.0350  0.3192  0.4336
14275TIP3    H164316   3.512   5.550  11.787 -0.2510 -0.1244 -0.5293
14275TIP3    H264317   3.443   5.501  11.913  2.0911  1.0648  1.2759
14276TIP3   OH264318   3.754   2.494   6.571 -0.1144  0.9159 -0.5793
14276TIP3    H164319   3.716   2.528   6.652 -2.3003  0.7410 -1.4793
14276TIP3    H264320   3.708   2.541   6.501 -0.4631 -1.1028 -1.7754
14277TIP3   OH264321   2.732   0.817   3.679 -0.2503  0.0759  0.5609
14277TIP3    H164322   2.699   0.906   3.669  0.8749  0.3508 -1.0427
14277TIP3    H264323   2.823   0.822   3.652  0.0003 -1.4653  1.0266
14278TIP3   OH264324   2.802   2.049   3.766 -0.2744 -0.2867 -0.4575
14278TIP3    H164325   2.840   2.133   3.741 -0.4506 -0.5596 -1.7411
14278TIP3    H264326   2.722   2.043   3.715 -1.5945 -0.1426  1.5137
14279TIP3   OH264327   5.299   1.483  14.659  0.0473  0.5385  0.0216
14279TIP3    H164328   5.252   1.461  14.578 -1.4864  0.3719  0.9208
14279TIP3    H264329   5.259   1.428  14.726  1.0981  0.8871  0.9596
14280TIP3   OH264330   5.913   2.644  16.911 -0.1307  0.6584 -0.5743
14280TIP3    H164331   5.955   2.695  16.981 -0.6402 -1.0082  1.0530
14280TIP3    H264332   5.822   2.634  16.941 -0.1476 -0.8002 -1.0177
14281TIP3   OH264333   0.852   3.382   5.173 -0.0794 -0.8379 -0.1153
14281TIP3    H164334   0.840   3.315   5.106  0.8485  0.0329 -1.2052
14281TIP3    H264335   0.795   3.355   5.245  0.0333 -2.6058 -0.6474
14282TIP3   OH264336   2.021   1.386  17.018  0.0100 -0.4008  0.5640
14282TIP3    H164337   2.037   1.311  17.076  2.0162 -0.0134  0.5744
14282TIP3    H264338   2.048   1.355  16.932 -2.1866 -0.6983 -0.0811
14283TIP3   OH264339   3.541   2.141   3.050  0.2849  0.0343 -0.3837
14283TIP3    H164340   3.615   2.136   2.990  1.1041  1.5230  0.4269
14283TIP3    H264341   3.546   2.061   3.101  1.9671  0.5203  0.3028
14284TIP3   OH264342   6.533   4.792   2.101 -0.4188 -0.5880  0.2187
14284TIP3    H164343   6.505   4.735   2.030  1.5105 -1.1560 -0.1409
14284TIP3    H264344   6.575   4.733   2.164 -0.5783  0.1269  1.0095
14285TIP3   OH264345   6.550   1.330   5.019  0.1682  0.4027  0.4744
14285TIP3    H164346   6.527   1.400   5.080  1.3942  1.3373 -0.0750
14285TIP3    H264347   6.625   1.365   4.971  0.8452 -1.3276  0.2116
14286TIP3   OH264348   3.824   3.813   3.844 -0.0341 -0.0703  0.6708
14286TIP3    H164349   3.835   3.775   3.931  2.1942 -0.2786  0.3609
14286TIP3    H264350   3.914   3.823   3.811 -0.7968  0.6516 -1.3244
14287TIP3   OH264351   1.982   2.195  16.324 -0.4001 -0.3121  0.1300
14287TIP3    H164352   2.040   2.197  16.400 -2.3553  3.2903  1.7708
14287TIP3    H264353   1.951   2.285  16.315 -4.0803 -1.5813 -1.9330
14288TIP3   OH264354   2.342   0.615   4.442 -0.2589  0.4059 -0.2987
14288TIP3    H164355   2.333   0.695   4.493 -0.4574 -0.4010  0.9885
14288TIP3    H264356   2.436   0.606   4.428  0.0314 -0.4871  1.8732
14289TIP3   OH264357   0.091   6.630  12.325 -0.1643 -0.4577 -0.2229
14289TIP3    H164358   0.130   6.710  12.291  1.2136 -0.0610  2.0810
14289TIP3    H264359   0.009   6.658  12.365  1.1478  0.2183  2.1696
14290TIP3   OH264360   2.973   1.011  11.769  0.4494  0.4695  0.2081
14290TIP3    H164361   3.047   0.988  11.713 -1.0354  0.8133 -2.0125
14290TIP3    H264362   3.010   1.071  11.834  2.1291  0.5433 -0.7583
14291TIP3   OH264363   5.295   0.518   1.676  0.2648  0.5199 -0.4563
14291TIP3    H164364   5.298   0.483   1.587  1.4334 -0.2958 -0.1157
14291TIP3    H264365   5.335   0.451   1.730 -1.2002  0.6237  0.8448
14292TIP3   OH264366   1.480   1.631  11.682  0.4597 -0.2860  1.1800
14292TIP3    H164367   1.545   1.653  11.615  0.4397 -0.6801  1.0283
14292TIP3    H264368   1.494   1.696  11.750  1.7997 -1.0555  1.6782
14293TIP3   OH264369   6.196   4.353  15.335  0.0342  0.4085 -0.1029
14293TIP3    H164370   6.165   4.278  15.285 -0.7916  1.0095 -0.5240
14293TIP3    H264371   6.262   4.317  15.395  1.8631 -0.1816 -2.3259
14294TIP3   OH264372   2.201   6.649  16.228 -0.2344 -0.2869  0.5376
14294TIP3    H164373   2.160   6.678  16.147 -0.9878  0.0058  1.0153
14294TIP3    H264374   2.160   6.564  16.247 -0.2684 -0.2235  0.7564
14295TIP3   OH264375   0.101   2.181   5.221  0.6590 -0.4375  0.0229
14295TIP3    H164376   0.187   2.210   5.252  1.1343  0.1340 -1.7277
14295TIP3    H264377   0.041   2.206   5.291  1.8208 -0.2237  0.9772
14296TIP3   OH264378   2.248   2.396  14.718  0.2899  0.1371  0.2699
14296TIP3    H164379   2.180   2.422  14.780 -0.4345 -0.9744 -0.0252
14296TIP3    H264380   2.286   2.479  14.688 -1.9839  0.9221 -0.7135
14297TIP3   OH264381   5.043   5.969   3.472  0.8981 -0.1595 -0.4885
14297TIP3    H164382   5.030   5.996   3.563 -0.2922 -0.5584 -0.5209
14297TIP3    H264383   5.008   6.041   3.420 -1.3741 -1.2306 -0.5793
14298TIP3   OH264384   0.088   4.478  15.163  1.2136  0.1624 -0.2356
14298TIP3    H164385   0.042   4.432  15.233  0.2278 -0.2824 -1.1360
14298TIP3    H264386   0.049   4.566  15.164  0.7845 -0.0159 -0.5716
14299TIP3   OH264387   1.911   3.169  14.392 -0.8901  0.2665 -0.7323
14299TIP3    H164388   1.912   3.077  14.420 -1.0653  0.5968  0.4006
14299TIP3    H264389   1.986   3.209  14.436 -1.5522  0.9424 -0.1877
14300TIP3   OH264390   4.751   6.222   2.914 -0.5278  0.0198  0.3519
14300TIP3    H164391   4.697   6.260   2.845 -0.9260  0.1569  0.7301
14300TIP3    H264392   4.736   6.279   2.990  0.8081  0.5519  0.2383
14301TIP3   OH264393   5.837   5.842   3.781 -0.6513  0.4018 -0.1529
14301TIP3    H164394   5.765   5.782   3.798 -0.3709 -0.3076 -1.3255
14301TIP3    H264395   5.896   5.793   3.723  0.3108  1.2939  0.0383
14302TIP3   OH264396   1.856   3.739  14.212  0.1779 -0.8898  0.0332
14302TIP3    H164397   1.879   3.795  14.138 -0.8360 -2.2588 -1.3842
14302TIP3    H264398   1.761   3.744  14.217  0.2138 -1.1432  0.9851
14303TIP3   OH264399   3.101   4.567  14.683  0.3004 -0.0747  0.0946
14303TIP3    H164400   3.181   4.563  14.736 -0.1416 -0.1440  0.7745
14303TIP3    H264401   3.030   4.562  14.747 -0.2572  0.9092 -0.4313
14304TIP3   OH264402   1.655   5.779   5.504 -0.0938  0.3509  0.5503
14304TIP3    H164403   1.723   5.832   5.546 -0.1747  3.0341 -2.3211
14304TIP3    H264404   1.581   5.781   5.564  0.6239  1.8246  1.4147
14305TIP3   OH264405   6.017   1.054   0.346 -0.5207  0.0105 -0.1053
14305TIP3    H164406   6.007   1.129   0.288  0.2350  0.2345  0.0528
14305TIP3    H264407   6.069   0.991   0.295  3.9718  1.8456  1.7164
14306TIP3   OH264408   2.482   4.313   3.236  0.0806 -0.4025 -0.2449
14306TIP3    H164409   2.551   4.341   3.176 -0.2742  1.2319  0.0473
14306TIP3    H264410   2.450   4.231   3.199 -1.8433  1.7118 -3.8187
14307TIP3   OH264411   6.442   2.684   3.703  0.1096 -0.1386 -0.7669
14307TIP3    H164412   6.386   2.758   3.680 -0.6200 -0.8952 -1.5333
14307TIP3    H264413   6.395   2.639   3.773  0.2280 -0.2274 -0.7440
14308TIP3   OH264414   2.335   5.566   5.262 -0.2944 -0.5489  0.0145
14308TIP3    H164415   2.345   5.542   5.354  0.8254  0.2479  0.1194
14308TIP3    H264416   2.424   5.582   5.232 -0.7442  0.3583 -0.8897
14309TIP3   OH264417   0.566   5.624   6.438  0.2485  0.2724 -0.1039
14309TIP3    H164418   0.662   5.626   6.439  0.4362 -3.0394  0.0273
14309TIP3    H264419   0.541   5.659   6.523  1.5166 -0.6874  0.7105
14310TIP3   OH264420   2.828   2.276  16.440 -0.0879  0.0989  0.1756
14310TIP3    H164421   2.841   2.369  16.421  1.8100 -0.0950  0.3088
14310TIP3    H264422   2.901   2.253  16.497  0.2923 -1.7891 -0.9903
14311TIP3   OH264423   2.896   6.437   4.427  0.3023  0.1804 -0.0019
14311TIP3    H164424   2.887   6.418   4.334 -0.0742  1.3733 -0.2201
14311TIP3    H264425   2.876   6.530   4.435  2.1408  0.5487  0.9979
14312TIP3   OH264426   1.730   1.651  17.220 -0.0345 -1.1175 -0.2951
14312TIP3    H164427   1.737   1.745  17.235 -1.7273 -0.7805 -1.2421
14312TIP3    H264428   1.703   1.615  17.304 -0.6737 -0.5542 -0.2496
14313TIP3   OH264429   3.019   3.947  12.250  0.2855  0.2720 -0.2960
14313TIP3    H164430   3.089   3.923  12.190 -0.5971  1.2039 -1.7559
14313TIP3    H264431   2.939   3.931  12.202 -0.4623  0.9330  0.6850
14314TIP3   OH264432   0.636   4.192   5.584  0.1038 -0.2430  0.3587
14314TIP3    H164433   0.636   4.215   5.491 -0.0709 -0.3493  0.3317
14314TIP3    H264434   0.553   4.226   5.618  0.4325  0.3186  0.6087
14315TIP3   OH264435   6.267   4.576   4.782 -0.4122  0.0605 -0.5720
14315TIP3    H164436   6.336   4.597   4.719  0.6818 -0.7096  0.3586
14315TIP3    H264437   6.187   4.572   4.728  0.2306  1.0211 -1.6456
14316TIP3   OH264438   0.376   5.245   4.414 -0.3804  0.7207  0.0426
14316TIP3    H164439   0.316   5.319   4.424 -0.9551  0.0748  1.7592
14316TIP3    H264440   0.319   5.168   4.421  0.5110  0.1121  0.7707
14317TIP3   OH264441   6.581   3.431   4.167  0.7101 -0.3685  0.1189
14317TIP3    H164442   6.518   3.359   4.164 -1.2336  1.2733 -2.9808
14317TIP3    H264443   6.532   3.504   4.206  1.0332  0.5903 -1.2162
14318TIP3   OH264444   2.446   0.585  16.472  0.0889 -0.3836  0.0619
14318TIP3    H164445   2.503   0.602  16.397 -1.0454  0.5655 -0.6132
14318TIP3    H264446   2.506   0.566  16.544  1.2861  1.1527 -0.4825
14319TIP3   OH264447   5.426   0.887  16.602  0.8001  0.0091 -0.2099
14319TIP3    H164448   5.360   0.821  16.624  1.2434  0.3149  2.3323
14319TIP3    H264449   5.509   0.842  16.614  1.0925  0.7887  0.8230
14320TIP3   OH264450   0.303   1.785   5.222 -0.1793  0.4579 -0.6948
14320TIP3    H164451   0.334   1.764   5.134  0.3210 -0.5535 -0.2938
14320TIP3    H264452   0.208   1.779   5.215 -0.0974 -1.2823 -0.7971
14321TIP3   OH264453   3.570   6.049  14.125  0.1656  0.2865  0.4160
14321TIP3    H164454   3.554   6.143  14.133  1.6564  0.5895  0.2816
14321TIP3    H264455   3.646   6.043  14.066 -1.2909 -1.1284 -1.4575
14322TIP3   OH264456   6.535   3.664  12.780 -0.0604 -0.2070  0.9285
14322TIP3    H164457   6.568   3.714  12.854  1.3270  0.8812 -0.3838
14322TIP3    H264458   6.513   3.578  12.818  1.8236 -0.1205  2.3540
14323TIP3   OH264459   4.151   6.761   1.167 -0.1749  0.1987 -0.1406
14323TIP3    H164460   4.178   6.819   1.096 -0.8859 -1.4884 -1.8828
14323TIP3    H264461   4.232   6.717   1.194  0.2901  1.6146  0.9023
14324TIP3   OH264462   3.881   3.057   5.668 -0.0689 -0.4855  0.1682
14324TIP3    H164463   3.916   3.035   5.754  0.1018 -2.1629 -0.2861
14324TIP3    H264464   3.955   3.095   5.621 -0.3586  1.1770  0.9625
14325TIP3   OH264465   0.534   3.476  16.622 -0.0825  0.0861 -0.3440
14325TIP3    H164466   0.608   3.520  16.580  1.6174 -1.5895  0.7489
14325TIP3    H264467   0.501   3.416  16.555 -0.7854  1.1248 -0.9726
14326TIP3   OH264468   5.565   2.343   2.165 -0.3674  0.7509  0.1474
14326TIP3    H164469   5.590   2.355   2.074 -1.1198  1.1140 -0.0160
14326TIP3    H264470   5.515   2.262   2.167  1.4901 -0.4586  0.6231
14327TIP3   OH264471   3.829   1.196  10.644  0.0451 -0.3030  0.2677
14327TIP3    H164472   3.910   1.244  10.626  0.3836 -0.7506  0.5616
14327TIP3    H264473   3.793   1.177  10.557 -1.0996  2.1036  0.1547
14328TIP3   OH264474   4.111   4.210   2.300 -0.2310  0.2498 -0.7252
14328TIP3    H164475   4.190   4.256   2.270  0.9627 -1.0017  0.4031
14328TIP3    H264476   4.130   4.188   2.391 -1.5950 -0.7333 -0.6678
14329TIP3   OH264477   0.490   4.110  12.787  0.1794  0.7988  0.3154
14329TIP3    H164478   0.465   4.164  12.711  1.1261 -0.8324 -1.2186
14329TIP3    H264479   0.526   4.031  12.749 -1.5942 -1.1879  2.4766
14330TIP3   OH264480   0.400   6.607  15.037  0.1737 -0.1007  0.0923
14330TIP3    H164481   0.407   6.613  14.942  0.6154 -2.5925 -0.1006
14330TIP3    H264482   0.391   6.514  15.054 -0.8220  0.3697  2.4674
14331TIP3   OH264483   5.117   1.337  15.894 -0.6565  0.7017  0.2377
14331TIP3    H164484   5.180   1.394  15.938 -0.7835  1.8193 -0.9906
14331TIP3    H264485   5.074   1.393  15.830  0.7016 -1.2099 -2.5388
14332TIP3   OH264486   3.443   1.790  12.744  0.0605 -0.5733 -0.5688
14332TIP3    H164487   3.523   1.809  12.695  0.4631  1.1265  0.6689
14332TIP3    H264488   3.448   1.846  12.822 -1.5819 -1.5989  0.3363
14333TIP3   OH264489   5.839   0.521  12.462  0.4047  0.3243 -0.5937
14333TIP3    H164490   5.834   0.540  12.368  2.8105 -1.1168 -1.1054
14333TIP3    H264491   5.923   0.476  12.473  0.6710  1.3527  2.4475
14334TIP3   OH264492   0.704   1.627   3.781 -0.7123  0.6738  0.0431
14334TIP3    H164493   0.726   1.657   3.693 -0.1229  0.6593  0.1812
14334TIP3    H264494   0.750   1.687   3.839 -1.6095  1.0691  0.3527
14335TIP3   OH264495   5.253   2.202  15.384 -0.3435  0.3551  0.4120
14335TIP3    H164496   5.320   2.260  15.420  0.3815  0.3581 -0.8859
14335TIP3    H264497   5.216   2.158  15.460  0.8487  0.6576  1.1946
14336TIP3   OH264498   3.442   4.954   2.875 -0.5979  0.6599 -0.0577
14336TIP3    H164499   3.383   4.978   2.947  1.5655  0.3743  1.9420
14336TIP3    H264500   3.507   4.896   2.916  0.3385 -0.0714 -2.4263
14337TIP3   OH264501   6.260   5.252   0.212  0.4314 -0.4422 -0.5626
14337TIP3    H164502   6.342   5.209   0.237 -0.1941 -1.2983  0.0859
14337TIP3    H264503   6.198   5.180   0.201 -0.5575  0.2692  0.2219
14338TIP3   OH264504   4.609   6.552   5.445 -0.1694  0.1401  0.2830
14338TIP3    H164505   4.617   6.486   5.376 -0.8429 -1.4927  1.6928
14338TIP3    H264506   4.694   6.552   5.488 -0.1206  0.3062  0.1867
14339TIP3   OH264507   4.997   0.918  11.412 -0.5608 -0.0496 -0.1343
14339TIP3    H164508   5.035   0.850  11.466 -0.7461 -0.2983 -0.3142
14339TIP3    H264509   4.942   0.871  11.349  2.3391 -0.1463 -2.8834
14340TIP3   OH264510   6.457   3.995   5.472  0.4435 -0.3770 -0.3226
14340TIP3    H164511   6.517   4.059   5.510 -1.1591  1.5347 -0.8424
14340TIP3    H264512   6.407   3.962   5.547  0.7935 -0.5220 -0.1483
14341TIP3   OH264513   4.758   4.421  16.763 -0.0488 -0.0126 -0.3372
14341TIP3    H164514   4.815   4.467  16.824  0.0466  0.0476 -0.4710
14341TIP3    H264515   4.693   4.378  16.818 -0.2939  0.4903 -0.2280
14342TIP3   OH264516   6.359   5.935  11.703  0.1359 -0.0202  0.1935
14342TIP3    H164517   6.385   5.844  11.688  0.8637  0.3692 -1.0379
14342TIP3    H264518   6.294   5.930  11.774 -0.5801 -1.5945 -0.5288
14343TIP3   OH264519   3.227   5.066  16.976  0.0919  0.7267 -0.2235
14343TIP3    H164520   3.161   5.050  17.043  0.4151  0.9365  0.1453
14343TIP3    H264521   3.206   5.153  16.941  0.0055  0.6745 -0.3027
14344TIP3   OH264522   5.041   3.616  16.795  0.5260  0.0255  0.2638
14344TIP3    H164523   5.101   3.676  16.751  0.0459  0.0021 -0.4394
14344TIP3    H264524   4.977   3.674  16.837  0.3408  0.0134 -0.0054
14345TIP3   OH264525   3.887   6.262  11.238 -0.4377 -0.1162 -0.4859
14345TIP3    H164526   3.959   6.323  11.220 -0.4022  0.5149  1.4571
14345TIP3    H264527   3.892   6.197  11.169  0.2248  1.4727 -2.0217
14346TIP3   OH264528   6.028   2.465  12.702 -0.3285 -0.0481  0.5995
14346TIP3    H164529   5.945   2.513  12.707  0.5393  1.5408  0.3318
14346TIP3    H264530   6.093   2.532  12.682  0.8259 -1.4749 -0.6911
14347TIP3   OH264531   0.941   1.012  15.273  0.1443 -0.6782 -0.0357
14347TIP3    H164532   0.846   0.999  15.274 -0.1187  0.8306 -1.4220
14347TIP3    H264533   0.955   1.093  15.322  0.3699  0.6578 -2.1788
14348TIP3   OH264534   3.460   1.436  11.652 -0.4778  0.3284  0.2566
14348TIP3    H164535   3.392   1.459  11.589 -0.6090  0.3312  0.4008
14348TIP3    H264536   3.484   1.346  11.629  1.0074  1.0366 -1.1995
14349TIP3   OH264537   0.474   1.798   4.361  0.5349  0.1553 -0.0700
14349TIP3    H164538   0.484   1.859   4.288  0.7452  0.4267  0.1842
14349TIP3    H264539   0.479   1.852   4.439 -0.7032  0.0027  0.1327
14350TIP3   OH264540   6.644   0.371  15.214  0.3521 -0.1443 -0.0750
14350TIP3    H164541   6.609   0.410  15.294  0.9059  1.2030 -0.4660
14350TIP3    H264542   6.569   0.366  15.155 -0.0435 -1.0837  0.5015
14351TIP3   OH264543   0.034   1.014  13.869 -0.3740 -0.5450  0.4424
14351TIP3    H164544  -0.048   1.059  13.850 -0.2452 -0.2017  0.6880
14351TIP3    H264545   0.036   1.007  13.965 -0.4705 -1.2207  0.3990
14352TIP3   OH264546   3.943   5.340   5.918  0.0788 -0.3342 -0.0406
14352TIP3    H164547   3.932   5.434   5.934  1.7539 -0.1500  0.2064
14352TIP3    H264548   3.854   5.305   5.919 -0.5544  1.2017  0.1651
14353TIP3   OH264549   6.450   5.165   3.738 -0.0310  0.7601 -0.1902
14353TIP3    H164550   6.380   5.212   3.691 -2.3372 -0.7824  1.4954
14353TIP3    H264551   6.512   5.141   3.670 -2.2793  0.2708 -2.2254
14354TIP3   OH264552   0.815   5.930  14.521 -0.3110  0.0877 -0.8429
14354TIP3    H164553   0.810   5.972  14.607 -0.7192 -1.7961  0.1118
14354TIP3    H264554   0.845   6.000  14.462 -0.0442  1.4391  0.8006
14355TIP3   OH264555   2.847   6.728  12.441 -0.2083  0.2559 -0.2997
14355TIP3    H164556   2.913   6.774  12.493  0.1934  2.3928 -2.5000
14355TIP3    H264557   2.855   6.636  12.467  0.3813  1.0955  2.8384
14356TIP3   OH264558   6.526   3.991   2.110  0.6162  0.3406 -0.1704
14356TIP3    H164559   6.493   4.036   2.188  0.5214  1.0949 -0.6345
14356TIP3    H264560   6.566   4.060   2.058  1.0214 -0.2214 -0.6169
14357TIP3   OH264561   1.910   4.577   2.051  0.0530 -0.4279  0.1680
14357TIP3    H164562   1.915   4.577   1.955 -1.0022 -0.4386  0.1096
14357TIP3    H264563   1.853   4.651   2.072  2.0822  1.0335  0.9117
14358TIP3   OH264564   2.513   1.468  12.291  0.2525  0.6349  0.7731
14358TIP3    H164565   2.509   1.374  12.305 -0.4462  0.2942 -1.3794
14358TIP3    H264566   2.433   1.502  12.330  1.2329  0.6052  2.9597
14359TIP3   OH264567   0.037   3.440   0.781  0.5928 -0.2112 -0.0739
14359TIP3    H164568   0.063   3.408   0.696 -1.1126  0.7900 -1.0412
14359TIP3    H264569   0.112   3.492   0.812  1.5270 -1.2347 -0.5830
14360TIP3   OH264570   4.546   0.191  11.703  0.1989 -0.4126  0.4592
14360TIP3    H164571   4.593   0.274  11.712  0.0689 -0.3153  0.2498
14360TIP3    H264572   4.501   0.198  11.619 -0.7273 -0.2299  0.9519
14361TIP3   OH264573   3.224   3.211  17.241  0.2044 -0.0276 -0.0350
14361TIP3    H164574   3.294   3.164  17.196 -0.3075  0.4344 -1.3708
14361TIP3    H264575   3.264   3.294  17.269  0.6231 -0.4730  0.7242
14362TIP3   OH264576   2.084   2.706  13.097  0.2194 -0.1741 -0.2937
14362TIP3    H164577   2.087   2.717  13.002  0.0670  0.7062 -0.1982
14362TIP3    H264578   2.164   2.749  13.129 -0.8309  1.5156  0.1571
14363TIP3   OH264579   3.761   3.046   1.482 -0.0374 -0.3242  0.2258
14363TIP3    H164580   3.838   3.058   1.427  0.5330 -2.9059  0.3460
14363TIP3    H264581   3.796   3.021   1.568 -0.9828  0.6918  0.9386
14364TIP3   OH264582   0.862   0.872   1.258  0.3126  0.0670 -0.0086
14364TIP3    H164583   0.821   0.795   1.298  2.1759 -0.8575  0.2400
14364TIP3    H264584   0.819   0.881   1.173 -0.7551 -0.5107  0.4504
14365TIP3   OH264585   1.406   0.437  13.368  0.2770  0.4025 -0.0075
14365TIP3    H164586   1.480   0.483  13.329 -0.5394  2.0531  0.3162
14365TIP3    H264587   1.434   0.416  13.457  1.2962 -1.3498 -0.6878
14366TIP3   OH264588   4.646   2.400   0.614  0.7987  0.3951 -0.0747
14366TIP3    H164589   4.572   2.341   0.627 -0.1823  1.8655  1.2806
14366TIP3    H264590   4.716   2.344   0.581  0.1649 -1.6890  1.9027
14367TIP3   OH264591   4.037   0.862  11.394  0.4926 -0.5806 -0.1492
14367TIP3    H164592   4.126   0.897  11.404  0.2634  0.3064 -1.1298
14367TIP3    H264593   4.023   0.812  11.475  0.6846  1.9088  1.5469
14368TIP3   OH264594   2.749   4.894  10.392  0.1476 -0.3599 -0.4347
14368TIP3    H164595   2.802   4.814  10.402  0.4789 -0.0458  0.3211
14368TIP3    H264596   2.669   4.876  10.442  0.1259 -0.2983 -0.4485
14369TIP3   OH264597   0.240   2.445  13.582  0.5102  0.6225 -0.0924
14369TIP3    H164598   0.202   2.532  13.595 -0.9512 -0.0473  0.3702
14369TIP3    H264599   0.296   2.432  13.658 -2.1901 -0.2729  1.9141
14370TIP3   OH264600   1.769   2.197   7.064  0.3066 -0.1351  0.1813
14370TIP3    H164601   1.797   2.110   7.094  0.2489 -0.1140  0.3013
14370TIP3    H264602   1.691   2.180   7.012  1.7464 -0.4054 -1.9904
14371TIP3   OH264603   3.159   5.046   6.056 -0.0735 -0.7917 -0.1916
14371TIP3    H164604   3.178   5.018   6.146  0.7378  0.8858  0.1991
14371TIP3    H264605   3.233   5.102   6.032 -1.1492  0.2436 -1.2297
14372TIP3   OH264606   3.016   6.016   4.735  0.6051  0.4209  0.2214
14372TIP3    H164607   2.987   6.075   4.665  4.2302  2.0626 -0.0993
14372TIP3    H264608   2.972   5.933   4.716 -1.8391  1.9714 -1.4421
14373TIP3   OH264609   4.704   5.123   2.457  0.3895 -0.1440 -0.3298
14373TIP3    H164610   4.795   5.118   2.487  0.4985  0.4111 -0.5470
14373TIP3    H264611   4.711   5.139   2.363  0.0663 -0.1253 -0.3522
14374TIP3   OH264612   5.439   0.553   5.581 -0.0384 -0.1488  0.0661
14374TIP3    H164613   5.474   0.637   5.611 -2.2119  0.8831 -0.0719
14374TIP3    H264614   5.472   0.544   5.492 -0.7224  1.1649 -0.3468
14375TIP3   OH264615   0.263   6.422   1.976  0.1451 -0.5717 -0.1937
14375TIP3    H164616   0.318   6.387   2.045  1.5173 -1.6139 -1.7449
14375TIP3    H264617   0.316   6.415   1.896 -0.6830  2.2267 -1.1097
14376TIP3   OH264618   1.952   2.485   3.040 -0.4993  0.0462 -0.0934
14376TIP3    H164619   1.870   2.467   3.086 -0.0384 -2.0309  0.0055
14376TIP3    H264620   1.925   2.513   2.952 -1.3093  0.5597  0.3063
14377TIP3   OH264621   0.347   3.585   4.457  0.3125  0.6660  0.5156
14377TIP3    H164622   0.265   3.634   4.447 -0.0117 -0.1019 -1.0277
14377TIP3    H264623   0.393   3.628   4.529 -1.0814  1.6260  0.8703
14378TIP3   OH264624   4.774   0.321  11.300  0.0531 -0.4814  0.5012
14378TIP3    H164625   4.868   0.329  11.283 -0.1378 -1.0783 -1.0441
14378TIP3    H264626   4.736   0.396  11.254 -0.3839 -1.4575 -0.7987
14379TIP3   OH264627   4.961   1.552   3.295  0.8527 -0.2200 -0.4804
14379TIP3    H164628   4.963   1.553   3.199  1.7519  1.2435 -0.4882
14379TIP3    H264629   4.881   1.599   3.318 -0.3773 -2.2117 -0.4650
14380TIP3   OH264630   2.517   6.364  17.277 -0.0665  0.3796  0.6288
14380TIP3    H164631   2.516   6.457  17.255 -1.2395  0.1554 -0.3947
14380TIP3    H264632   2.548   6.360  17.367 -1.1066  1.8526  1.0747
14381TIP3   OH264633   5.472   4.121  14.029  0.2604  0.5674  0.5791
14381TIP3    H164634   5.400   4.110  14.092 -0.4389  2.0546  0.0860
14381TIP3    H264635   5.537   4.057  14.056 -1.3065 -0.9470  0.9561
14382TIP3   OH264636   0.456   5.869   4.454 -0.2855 -0.0767 -0.0498
14382TIP3    H164637   0.391   5.930   4.488 -0.7246  0.7545 -2.1806
14382TIP3    H264638   0.416   5.782   4.464 -0.4623  0.1446  1.2859
14383TIP3   OH264639   5.673   5.138  12.203  0.1903 -0.6085 -0.3120
14383TIP3    H164640   5.591   5.188  12.212 -1.1506 -2.6571 -0.3766
14383TIP3    H264641   5.717   5.149  12.288 -0.9385 -0.7389  0.3179
14384TIP3   OH264642   1.077   4.070   5.487  0.3994  0.4499  0.2709
14384TIP3    H164643   1.122   4.010   5.426 -0.8668  0.1903 -0.4403
14384TIP3    H264644   1.000   4.099   5.438 -1.3519 -0.7351  2.1865
14385TIP3   OH264645   5.073   4.892   1.808 -0.5753  0.1324 -0.4087
14385TIP3    H164646   5.145   4.914   1.748 -0.7957  0.2773 -0.6220
14385TIP3    H264647   5.117   4.858   1.886 -0.3119 -0.9037 -0.9940
14386TIP3   OH264648   3.806   3.787  16.462 -0.0385  0.4492 -0.3654
14386TIP3    H164649   3.794   3.824  16.374  2.8219  1.6105 -0.3686
14386TIP3    H264650   3.725   3.740  16.479 -1.4141  1.6999 -2.8862
14387TIP3   OH264651   1.297   5.768  13.792 -0.2883 -0.1457  0.3527
14387TIP3    H164652   1.343   5.852  13.789  0.5837 -0.5830  0.9157
14387TIP3    H264653   1.348   5.712  13.733 -1.8812  0.1759 -1.4288
14388TIP3   OH264654   5.669   6.341  12.738 -0.0047  0.4805  0.1409
14388TIP3    H164655   5.580   6.359  12.708 -0.8336 -1.1215  1.4936
14388TIP3    H264656   5.659   6.274  12.805  2.2630  0.0872  0.1693
14389TIP3   OH264657   2.436   5.895   5.294  0.6075 -0.6106  0.2226
14389TIP3    H164658   2.350   5.888   5.335 -0.0969  1.0694 -0.8587
14389TIP3    H264659   2.493   5.842   5.350 -0.8086 -0.5440  1.8273
14390TIP3   OH264660   0.839   2.153   1.092  0.4434  0.2383 -0.1532
14390TIP3    H164661   0.913   2.171   1.034  1.1317  1.0986  0.9589
14390TIP3    H264662   0.762   2.156   1.036  1.2061 -0.2511 -1.2519
14391TIP3   OH264663   3.618   3.947   2.037  0.1367  0.0448 -0.0779
14391TIP3    H164664   3.607   4.032   1.996  0.3554  0.2799  0.3506
14391TIP3    H264665   3.532   3.925   2.071  0.7319  1.5451  2.6155
14392TIP3   OH264666   3.866   4.136  12.923 -0.1822 -0.7887  0.5423
14392TIP3    H164667   3.926   4.093  12.983  0.2886  1.1728  1.5415
14392TIP3    H264668   3.780   4.126  12.964 -0.0601 -0.6323  0.8334
14393TIP3   OH264669   0.752   0.573   0.000  0.0929  0.8538  0.5880
14393TIP3    H164670   0.754   0.484   0.037 -1.6182 -0.1391 -1.4913
14393TIP3    H264671   0.832   0.580  -0.051 -0.0005  0.3223  0.3674
14394TIP3   OH264672   5.497   2.669   2.936 -0.2952  0.1181  0.2785
14394TIP3    H164673   5.546   2.716   3.004 -0.5041  1.3816 -0.4152
14394TIP3    H264674   5.411   2.653   2.975  0.0865 -0.5684  0.8709
14395TIP3   OH264675   2.058   4.376   5.860 -0.1243  0.0089  0.0755
14395TIP3    H164676   2.110   4.450   5.894  0.8200 -0.9233  0.7199
14395TIP3    H264677   2.108   4.299   5.885  0.0897 -0.7847 -2.5395
14396TIP3   OH264678   1.954   4.289   2.938 -0.0667 -0.3628  0.5137
14396TIP3    H164679   1.944   4.384   2.950 -1.6067 -0.5214  0.7110
14396TIP3    H264680   1.901   4.269   2.861  0.1242 -1.0877  0.5631
14397TIP3   OH264681   1.644   1.102  13.274 -0.1729 -0.5748  0.0748
14397TIP3    H164682   1.718   1.139  13.226 -0.8538 -0.9506 -1.3135
14397TIP3    H264683   1.571   1.161  13.257  0.1343  0.8077  2.8970
14398TIP3   OH264684   0.780   4.025  11.660  0.1566 -0.0959  0.6268
14398TIP3    H164685   0.806   4.101  11.608 -1.2445  1.4764  2.0801
14398TIP3    H264686   0.739   4.063  11.738  0.7558 -2.3467  2.1399
14399TIP3   OH264687   4.704   4.319  17.170  0.5270  0.4878 -0.3498
14399TIP3    H164688   4.657   4.319  17.087  2.2780 -0.2496 -1.3990
14399TIP3    H264689   4.672   4.242  17.216 -0.1455  0.6635 -0.5220
14400TIP3   OH264690   1.337   0.747   6.073 -0.2263 -0.2974  0.5958
14400TIP3    H164691   1.302   0.770   6.158 -0.2863 -2.9662  1.3833
14400TIP3    H264692   1.268   0.695   6.031  0.7410 -1.1388 -0.0098
14401TIP3   OH264693   3.414   5.807   2.749 -0.1035  0.3297  0.3095
14401TIP3    H164694   3.334   5.831   2.702 -1.4163 -0.1505  2.1654
14401TIP3    H264695   3.392   5.820   2.841  1.2913 -1.6451  0.9990
14402TIP3   OH264696   3.532   3.587  15.588 -0.4557  0.2713  0.3474
14402TIP3    H164697   3.509   3.680  15.591 -0.8856  0.1694  0.3525
14402TIP3    H264698   3.570   3.574  15.501  0.1263  0.5655  0.5524
14403TIP3   OH264699   3.319   5.680  11.052  0.1121  0.1441 -0.1222
14403TIP3    H164700   3.410   5.659  11.071  0.0138  0.3248  0.5843
14403TIP3    H264701   3.299   5.634  10.971  0.5685 -0.6116  0.1935
14404TIP3   OH264702   4.895   4.247   0.176 -0.3765  0.3646 -0.0275
14404TIP3    H164703   4.826   4.308   0.205  1.1067  2.5344 -0.7962
14404TIP3    H264704   4.948   4.232   0.255 -0.1209  0.9870 -0.0711
14405TIP3   OH264705   0.178   2.587  14.578  0.2862 -0.8090 -0.1536
14405TIP3    H164706   0.130   2.587  14.495  0.4558 -3.1823 -0.2992
14405TIP3    H264707   0.151   2.507  14.622  0.2573  0.3610  2.0943
14406TIP3   OH264708   6.205   5.671  13.392 -0.6386  0.0548  0.8197
14406TIP3    H164709   6.247   5.739  13.445  0.1224 -1.5098  2.3548
14406TIP3    H264710   6.130   5.643  13.444 -0.9007 -0.3104  0.2458
14407TIP3   OH264711   5.290   4.649  14.139  0.2989  0.1380 -0.0413
14407TIP3    H164712   5.276   4.565  14.183  1.4193  0.2397  0.5538
14407TIP3    H264713   5.278   4.630  14.046  0.4641 -0.6543  0.0913
14408TIP3   OH264714   3.539   5.317   2.659 -0.1402 -0.7409  0.0107
14408TIP3    H164715   3.555   5.223   2.665  0.9760 -0.4858  1.2456
14408TIP3    H264716   3.457   5.330   2.707 -0.1950 -1.0424  0.0029
14409TIP3   OH264717   1.431   5.720  10.980  0.7987  0.3286  0.0005
14409TIP3    H164718   1.424   5.739  10.886 -0.8594 -0.8425 -0.1526
14409TIP3    H264719   1.443   5.625  10.984 -0.0846  0.2378  0.9691
14410TIP3   OH264720   3.097   1.478   4.014  0.0020  0.3553  0.1228
14410TIP3    H164721   3.115   1.542   3.945 -0.6885  0.0942 -0.3075
14410TIP3    H264722   3.050   1.528   4.081  0.1752  0.4792  0.1536
14411TIP3   OH264723   5.737   6.386  15.266  0.4733  0.2580 -0.5749
14411TIP3    H164724   5.698   6.382  15.354 -0.2180 -2.1269 -0.9262
14411TIP3    H264725   5.804   6.318  15.266  0.6815  0.4387 -1.8147
14412TIP3   OH264726   3.885   6.800  16.236  0.7765 -0.2678  0.0445
14412TIP3    H164727   3.842   6.785  16.152 -0.2199  3.5404 -0.3115
14412TIP3    H264728   3.815   6.796  16.301  0.5147  1.8729 -0.0312
14413TIP3   OH264729   6.000   3.193  14.413 -0.0146 -0.1498  0.1991
14413TIP3    H164730   6.094   3.175  14.408  0.1514  0.9197 -1.1179
14413TIP3    H264731   5.963   3.148  14.337 -0.7129 -1.1624  1.0936
14414TIP3   OH264732   6.199   2.621  13.711  0.2363 -0.2291 -0.4447
14414TIP3    H164733   6.269   2.671  13.754  1.3162  1.0893 -3.4947
14414TIP3    H264734   6.139   2.688  13.677  0.7210 -1.0209 -3.0163
14415TIP3   OH264735   5.521   2.337  14.354 -0.7920 -0.3450 -0.5805
14415TIP3    H164736   5.575   2.362  14.279  0.6648  0.7615  0.7883
14415TIP3    H264737   5.583   2.313  14.422 -2.0925 -1.8447  0.1579
14416TIP3   OH264738   3.926   2.609   4.791  0.2029  0.1999 -0.0292
14416TIP3    H164739   3.950   2.516   4.797  2.9722  0.7994 -0.2509
14416TIP3    H264740   4.002   2.655   4.827 -0.8739  2.4097 -0.4317
14417TIP3   OH264741   4.015   3.554   3.743 -0.5389  0.4126 -0.2661
14417TIP3    H164742   4.110   3.554   3.753 -0.4955  1.4360 -0.5540
14417TIP3    H264743   4.001   3.550   3.649 -0.8020 -0.5070 -0.1959
14418TIP3   OH264744   0.542   5.972  12.232 -0.1135  0.2328  0.0971
14418TIP3    H164745   0.568   5.988  12.322  1.9008  0.4086 -0.4680
14418TIP3    H264746   0.555   5.878  12.219  2.8515  0.6564 -0.8678
14419TIP3   OH264747   5.828   2.266   5.419  0.2680 -0.3289  0.3038
14419TIP3    H164748   5.801   2.185   5.376 -2.0263 -1.1846  3.0614
14419TIP3    H264749   5.886   2.238   5.490 -0.0631  0.5015  0.9167
14420TIP3   OH264750   0.220   1.935  10.766 -0.0985  0.6028 -0.5308
14420TIP3    H164751   0.223   1.975  10.679 -2.2771  1.9350 -0.0684
14420TIP3    H264752   0.144   1.877  10.763  0.6872 -0.5061  0.0663
14421TIP3   OH264753   5.770   0.427  16.330  0.5313 -0.0432 -0.6821
14421TIP3    H164754   5.737   0.514  16.354  1.7622  0.1109  0.6055
14421TIP3    H264755   5.862   0.442  16.310  0.5544 -0.9275 -1.2547
14422TIP3   OH264756   6.056   0.834   0.616 -0.7716 -0.0395  0.1173
14422TIP3    H164757   6.012   0.821   0.532 -2.9877  0.7709  1.0918
14422TIP3    H264758   5.990   0.874   0.672 -0.4615 -3.3670  3.2658
14423TIP3   OH264759   4.500   5.471   0.675 -0.0484 -0.3394  0.0471
14423TIP3    H164760   4.551   5.412   0.729  0.2062  1.3620  1.7592
14423TIP3    H264761   4.420   5.487   0.725  0.6772  2.1464  0.5514
14424TIP3   OH264762   3.471   0.688  15.042  0.4541  0.4401 -0.0104
14424TIP3    H164763   3.396   0.707  14.986  0.8742 -1.6724 -1.3717
14424TIP3    H264764   3.541   0.743  15.007  0.5571 -0.4443 -1.2473
14425TIP3   OH264765   6.728   5.960   3.372  0.4613  0.3676 -0.3044
14425TIP3    H164766   6.679   5.879   3.355  1.3506 -0.0638 -0.8619
14425TIP3    H264767   6.817   5.931   3.391  0.6588  1.1881  0.0655
14426TIP3   OH264768   2.200   5.234  14.147  0.1332 -0.3103  0.1504
14426TIP3    H164769   2.276   5.181  14.168  0.4506  0.4114  0.8839
14426TIP3    H264770   2.130   5.199  14.203 -0.1482 -1.1060 -0.6720
14427TIP3   OH264771   0.395   1.937   2.828 -0.1330 -0.2101  0.7621
14427TIP3    H164772   0.369   2.027   2.849 -1.3947 -0.5946  0.9631
14427TIP3    H264773   0.458   1.913   2.895  0.2366  0.5299  0.6889
14428TIP3   OH264774   4.229   5.520  12.971  0.0497  0.0501  0.0450
14428TIP3    H164775   4.204   5.433  13.002 -1.3077  0.2867 -0.3292
14428TIP3    H264776   4.223   5.576  13.048 -0.3656  0.0591  0.0078
14429TIP3   OH264777   3.820   0.111   1.357  0.5791 -0.3774 -0.0919
14429TIP3    H164778   3.885   0.181   1.351 -0.3187  0.4033 -1.1593
14429TIP3    H264779   3.837   0.057   1.280 -0.7335  0.4829 -1.0190
14430TIP3   OH264780   5.487   0.635  12.760  0.3195  0.3182  0.4165
14430TIP3    H164781   5.474   0.546  12.792  0.2628  0.4340  0.7130
14430TIP3    H264782   5.449   0.635  12.672  0.8667 -0.1210  0.1693
14431TIP3   OH264783   3.107   0.781  12.330  0.4223  0.2773 -0.1706
14431TIP3    H164784   3.038   0.839  12.363  2.0575  2.8486 -0.9090
14431TIP3    H264785   3.077   0.756  12.242 -0.7261 -0.8061  0.5099
14432TIP3   OH264786   3.965   6.538   5.783  0.4413  0.1421  0.0263
14432TIP3    H164787   4.021   6.572   5.713 -0.6442  0.8150 -0.5389
14432TIP3    H264788   3.984   6.595   5.858  1.3526 -0.3646  0.1950
14433TIP3   OH264789   2.851   5.068  16.428  0.1502  0.2090 -0.2219
14433TIP3    H164790   2.827   4.976  16.420 -0.0904  0.3180 -0.8565
14433TIP3    H264791   2.936   5.067  16.472 -0.3114 -0.2543  0.6852
14434TIP3   OH264792   6.284   0.220  14.009 -0.4408  0.3290  0.7099
14434TIP3    H164793   6.258   0.134  14.042 -0.8599 -0.5481 -1.7279
14434TIP3    H264794   6.379   0.214  13.997 -0.2105  0.8192  2.1192
14435TIP3   OH264795   5.652   5.428  11.380 -0.5218  0.2460  0.8699
14435TIP3    H164796   5.713   5.481  11.431 -1.3490  0.7642  1.3195
14435TIP3    H264797   5.708   5.385  11.315  0.4662 -0.0111  1.8534
14436TIP3   OH264798   4.860   3.158   1.940 -0.1014  0.3585  0.3287
14436TIP3    H164799   4.901   3.245   1.939  0.1906  0.2266  0.8456
14436TIP3    H264800   4.806   3.157   2.019  0.2576 -0.0938  0.5741
14437TIP3   OH264801   1.986   1.388   3.270 -0.0813 -0.0791 -0.3550
14437TIP3    H164802   2.063   1.423   3.314 -0.9271  2.0251 -0.4334
14437TIP3    H264803   1.912   1.427   3.316 -1.1463 -2.1401 -0.2054
14438TIP3   OH264804   1.573   1.930   1.485 -0.0814 -0.1882  0.5750
14438TIP3    H164805   1.578   2.005   1.544  0.8561  1.1167 -1.0776
14438TIP3    H264806   1.628   1.863   1.526 -0.7338  0.0745  1.9450
14439TIP3   OH264807   1.280   5.559  14.355  0.3470  0.3854 -0.4984
14439TIP3    H164808   1.313   5.494  14.293  0.5528 -0.9395  0.9324
14439TIP3    H264809   1.248   5.631  14.300 -0.3201 -1.1188 -2.1615
14440TIP3   OH264810   2.509   1.717  16.313 -0.0384 -0.3399  0.6639
14440TIP3    H164811   2.597   1.699  16.279 -0.8833 -2.3719 -0.5947
14440TIP3    H264812   2.512   1.691  16.405  0.4285 -1.2758  0.3884
14441TIP3   OH264813   1.272   6.797  10.579  0.1146  0.3204  0.4577
14441TIP3    H164814   1.181   6.803  10.551  0.1758 -0.1355  0.1484
14441TIP3    H264815   1.295   6.886  10.606 -1.2295 -0.0412  3.1254
14442TIP3   OH264816   3.176   2.095  12.946 -0.3283 -0.3818 -0.0695
14442TIP3    H164817   3.172   2.056  12.858 -0.5630 -1.1863  0.2905
14442TIP3    H264818   3.260   2.141  12.947  0.0987 -1.1358 -0.4044
14443TIP3   OH264819   0.678   0.043   3.635  0.1782 -0.0209 -0.4704
14443TIP3    H164820   0.640   0.130   3.623  0.6771  0.1180 -1.1233
14443TIP3    H264821   0.702   0.015   3.546  0.6150 -0.5477 -0.1927
14444TIP3   OH264822   0.893   5.807  13.517  0.2739  0.0582  0.9564
14444TIP3    H164823   0.801   5.815  13.491  0.3548 -0.7835  0.3718
14444TIP3    H264824   0.891   5.807  13.613 -0.5818 -2.0594  1.0085
14445TIP3   OH264825   1.830   4.699   0.821 -0.0260 -0.1242  0.6424
14445TIP3    H164826   1.919   4.690   0.786 -0.0055  0.3601  0.5583
14445TIP3    H264827   1.796   4.610   0.824 -0.3960 -0.1232 -1.6076
14446TIP3   OH264828   6.673   2.527  16.976  0.4246 -0.3336  0.0855
14446TIP3    H164829   6.691   2.445  17.021 -0.9859 -0.5348  0.3382
14446TIP3    H264830   6.759   2.560  16.949  0.9579 -2.3255 -0.7904
14447TIP3   OH264831   4.461   6.068   3.303  0.1448 -0.1455  0.4101
14447TIP3    H164832   4.469   6.096   3.212  0.4984 -0.3969  0.3623
14447TIP3    H264833   4.537   6.105   3.347 -1.0658  1.7108  1.0671
14448TIP3   OH264834   6.673   0.105  16.406 -0.0739  0.0543  0.5204
14448TIP3    H164835   6.674   0.084  16.312  0.5224 -0.4382  0.6259
14448TIP3    H264836   6.641   0.194  16.410 -0.7557 -0.1504 -0.1058
14449TIP3   OH264837   4.971   0.288  13.188  0.2501 -0.4812  0.0960
14449TIP3    H164838   4.923   0.206  13.182  0.7295 -0.7012 -1.3123
14449TIP3    H264839   5.062   0.263  13.204  0.0172 -0.0806  2.4107
14450TIP3   OH264840   5.552   4.336  16.940  0.0985 -0.0362 -0.1902
14450TIP3    H164841   5.629   4.286  16.913  1.4488  1.2032  1.1533
14450TIP3    H264842   5.510   4.282  17.007  1.2181  0.3101  0.8359
14451TIP3   OH264843   1.121   5.988  14.552  0.1348 -0.2694  0.0855
14451TIP3    H164844   1.122   6.022  14.642  0.0199 -1.1928  0.4421
14451TIP3    H264845   1.079   5.902  14.559  0.3367 -0.4518 -0.8209
14452TIP3   OH264846   1.086   3.151  13.766  0.4699  0.1642 -0.9152
14452TIP3    H164847   1.145   3.092  13.718  0.3262  0.4226 -1.4123
14452TIP3    H264848   1.141   3.189  13.835  0.7036 -0.1352 -0.9324
14453TIP3   OH264849   0.917   6.260  12.430  0.1368  0.3103 -0.4381
14453TIP3    H164850   0.942   6.216  12.510  0.2016  1.4639  0.2035
14453TIP3    H264851   0.824   6.240  12.419  0.6048 -1.6568 -1.3021
14454TIP3   OH264852   0.788   4.423   4.960  0.6666 -0.5935  0.1385
14454TIP3    H164853   0.863   4.458   4.913 -0.9649  2.6252 -0.3684
14454TIP3    H264854   0.778   4.334   4.927  2.2177  0.0486 -2.2942
14455TIP3   OH264855   3.070   5.814  16.756 -0.5867 -0.1005 -0.2432
14455TIP3    H164856   3.141   5.824  16.693  0.2611  0.2771  0.7434
14455TIP3    H264857   3.107   5.760  16.826 -1.3525 -0.1071  0.1709
14456TIP3   OH264858   2.925   4.274  16.869 -0.2517  0.4146  0.4141
14456TIP3    H164859   3.011   4.276  16.912 -0.4279 -0.5250  0.8294
14456TIP3    H264860   2.927   4.194  16.817 -0.1931  1.3301 -1.0442
14457TIP3   OH264861   3.993   3.518  14.875 -0.1533 -0.2329 -0.3662
14457TIP3    H164862   3.910   3.477  14.901 -1.0222  1.0127 -1.0612
14457TIP3    H264863   4.025   3.560  14.954 -0.8374  0.3363 -0.3805
14458TIP3   OH264864   3.884   2.907   6.400 -0.5252 -0.3126 -0.0333
14458TIP3    H164865   3.944   2.975   6.430  0.6621 -2.3325  2.5511
14458TIP3    H264866   3.803   2.923   6.449 -0.1453 -0.8820  0.8053
14459TIP3   OH264867   3.350   5.513  14.134 -0.2684 -0.0925 -0.0769
14459TIP3    H164868   3.432   5.488  14.176 -0.5983  0.1614  0.7342
14459TIP3    H264869   3.377   5.558  14.054  0.4081  0.4498  0.4431
14460TIP3   OH264870   6.512   3.305   2.346  0.2718  0.4124  0.4547
14460TIP3    H164871   6.579   3.237   2.341 -0.3654 -0.1678 -0.6965
14460TIP3    H264872   6.557   3.381   2.380  1.3903 -0.1303  0.2252
14461TIP3   OH264873   5.540   0.448   3.453  0.0280 -0.1951 -0.7132
14461TIP3    H164874   5.541   0.439   3.548 -1.2560 -1.8476 -0.8205
14461TIP3    H264875   5.610   0.511   3.434  0.6879 -0.2830  1.2648
14462TIP3   OH264876   2.918   0.443  17.320 -0.2557  0.0151  0.1209
14462TIP3    H164877   2.824   0.422  17.324 -0.3592  0.2302 -0.8624
14462TIP3    H264878   2.959   0.363  17.289  0.0288 -0.4095  1.5415
14463TIP3   OH264879   5.050   6.735   4.290  0.1536 -0.5334 -0.3653
14463TIP3    H164880   5.143   6.733   4.314 -0.0214  0.1508  0.3982
14463TIP3    H264881   5.004   6.751   4.372 -0.6755 -1.2042 -0.6820
14464TIP3   OH264882   0.580   3.872   0.438 -0.3941 -0.1411  0.2057
14464TIP3    H164883   0.664   3.852   0.480 -0.0107  1.4291  0.2577
14464TIP3    H264884   0.600   3.945   0.380 -1.5167 -0.4598 -0.6058
14465TIP3   OH264885   1.611   2.422   5.488  0.0893 -0.2654 -0.2443
14465TIP3    H164886   1.604   2.382   5.574 -3.1737  0.5361 -0.0131
14465TIP3    H264887   1.598   2.515   5.503 -0.0136 -0.0518 -1.5302
14466TIP3   OH264888   6.132   2.847  15.964 -0.2047 -0.2121  0.0175
14466TIP3    H164889   6.132   2.927  15.911 -0.6186  0.3919  0.9106
14466TIP3    H264890   6.158   2.876  16.051 -2.6365 -0.6265  0.9431
14467TIP3   OH264891   5.718   5.938  14.336 -0.3830  0.1281  0.4981
14467TIP3    H164892   5.651   5.877  14.307 -0.2045  0.2062 -0.0908
14467TIP3    H264893   5.801   5.892  14.319 -0.2534  0.4641  0.2041
14468TIP3   OH264894   1.095   0.053   0.219 -0.3677 -0.2891 -0.1158
14468TIP3    H164895   1.114  -0.033   0.255 -1.6669 -0.5638 -0.0390
14468TIP3    H264896   1.034   0.093   0.282  1.0265  1.1228  0.4039
14469TIP3   OH264897   5.424   2.726   3.973 -0.2294 -0.4189 -0.3900
14469TIP3    H164898   5.452   2.636   3.954 -2.3454 -1.3913  0.7113
14469TIP3    H264899   5.445   2.738   4.065 -0.7515 -0.1245 -0.3058
14470TIP3   OH264900   5.681   4.956  11.287 -0.1735  0.0933  0.1201
14470TIP3    H164901   5.619   4.893  11.323  0.4612 -0.3175  0.5189
14470TIP3    H264902   5.679   5.030  11.349 -0.3313  0.1222  0.0810
14471TIP3   OH264903   3.876   3.960  13.876 -0.6531  0.6118  0.3057
14471TIP3    H164904   3.923   3.927  13.799 -1.5017 -0.3136  0.1605
14471TIP3    H264905   3.941   4.012  13.923  0.7243 -1.0770  0.4070
14472TIP3   OH264906   1.866   5.233  16.492  0.0568 -0.2593  0.0206
14472TIP3    H164907   1.816   5.240  16.573 -0.2984  2.5660 -0.3662
14472TIP3    H264908   1.806   5.265  16.424  1.0304 -0.6913 -1.0677
14473TIP3   OH264909   0.146   2.477  11.299 -0.0736 -0.0028 -0.0142
14473TIP3    H164910   0.215   2.468  11.232 -0.0433 -1.3669  0.1732
14473TIP3    H264911   0.150   2.395  11.349  0.3053  1.2387  2.0725
14474TIP3   OH264912   0.955   3.965   1.980 -0.2525  0.0383 -0.4274
14474TIP3    H164913   1.022   3.940   2.044 -0.2875 -0.9127 -0.7456
14474TIP3    H264914   0.910   3.883   1.959 -1.6320  0.7007 -0.1038
14475TIP3   OH264915   5.892   0.300   0.125  0.1497  0.1407 -0.1118
14475TIP3    H164916   5.874   0.223   0.179  0.5571 -0.4555 -0.8199
14475TIP3    H264917   5.875   0.271   0.035  2.7034  0.1180 -0.6546
14476TIP3   OH264918   2.536   6.131  15.149  0.4939 -0.4827 -0.4298
14476TIP3    H164919   2.573   6.075  15.080  1.8184 -1.7159  1.1705
14476TIP3    H264920   2.462   6.174  15.109  1.4778 -0.8171 -2.7424
14477TIP3   OH264921   6.125   4.512   3.263 -0.2518  0.3733 -0.3446
14477TIP3    H164922   6.148   4.424   3.237 -0.2897  1.5469 -5.1764
14477TIP3    H264923   6.208   4.560   3.266 -0.2462  0.3640  2.0682
14478TIP3   OH264924   5.214   3.894   0.308  0.2098 -0.6601 -0.0017
14478TIP3    H164925   5.173   3.852   0.233  0.3378 -1.7863  0.5277
14478TIP3    H264926   5.200   3.832   0.380 -1.9819  1.4208  1.4915
14479TIP3   OH264927   5.145   4.775  14.906 -0.3152  0.2769 -0.5905
14479TIP3    H164928   5.121   4.718  14.979 -0.7432  0.4325 -0.6093
14479TIP3    H264929   5.231   4.809  14.930 -1.4203  2.1910  1.0065
14480TIP3   OH264930   5.173   6.647  13.329  0.6527  0.2494  0.1557
14480TIP3    H164931   5.143   6.725  13.281  1.5636 -0.5960 -1.8918
14480TIP3    H264932   5.113   6.641  13.404  0.7277  3.0492  0.5529
14481TIP3   OH264933   3.689   2.779  12.713 -0.1900 -0.2315  0.2204
14481TIP3    H164934   3.634   2.802  12.638  0.0342 -2.5928 -0.7404
14481TIP3    H264935   3.629   2.736  12.775 -0.4173  1.8620  1.5771
14482TIP3   OH264936   2.102   0.642   1.165  0.2009 -0.5240 -0.0896
14482TIP3    H164937   2.085   0.720   1.113 -0.8111 -0.1789  0.7217
14482TIP3    H264938   2.029   0.639   1.228  1.6453 -0.6224  1.6458
14483TIP3   OH264939   0.667   4.109   3.730  0.0163 -0.0483  0.0830
14483TIP3    H164940   0.659   4.132   3.637  0.8860  0.0181  0.0093
14483TIP3    H264941   0.750   4.061   3.735  0.0389  0.0615  0.8424
14484TIP3   OH264942   5.109   2.889  14.738 -0.3439  0.2083 -0.3447
14484TIP3    H164943   5.095   2.928  14.824 -2.3891 -1.4334  0.1413
14484TIP3    H264944   5.178   2.824  14.752 -0.8872 -0.2713  0.1498
14485TIP3   OH264945   4.454   1.899  17.018  0.3168 -0.3876 -0.2153
14485TIP3    H164946   4.516   1.832  16.990  0.0166 -0.2177 -1.3297
14485TIP3    H264947   4.377   1.886  16.962  0.0469  0.5467 -0.0807
14486TIP3   OH264948   0.644   3.697   2.193 -0.1107  0.3809  0.3224
14486TIP3    H164949   0.704   3.625   2.174  0.6903  0.9443  0.6988
14486TIP3    H264950   0.684   3.744   2.266 -2.4628 -0.9935  2.7134
14487TIP3   OH264951   5.143   0.771   2.988 -0.2208 -0.0177 -0.4113
14487TIP3    H164952   5.209   0.755   3.055 -1.2826 -3.9395 -0.0696
14487TIP3    H264953   5.108   0.857   3.009  2.5331  0.8218  1.2831
14488TIP3   OH264954   5.839   5.894   3.260 -0.8609 -0.0313 -0.1377
14488TIP3    H164955   5.932   5.904   3.282 -1.3136  0.7968  1.5619
14488TIP3    H264956   5.807   5.831   3.325 -1.4947 -0.2962 -0.7073
14489TIP3   OH264957   4.826   0.490   5.606  0.5264 -0.1413 -0.3356
14489TIP3    H164958   4.863   0.529   5.527  0.1714 -1.0036 -0.9536
14489TIP3    H264959   4.756   0.432   5.573 -1.0334  1.0526  0.7584
14490TIP3   OH264960   4.440   0.238  15.153 -0.2974  0.1676  0.4538
14490TIP3    H164961   4.507   0.304  15.138 -0.1657  0.0311  0.4290
14490TIP3    H264962   4.480   0.157  15.121 -0.6411  0.1629  0.0299
14491TIP3   OH264963   5.700   2.910  11.628  0.4620 -0.1416  0.3321
14491TIP3    H164964   5.700   2.993  11.675 -3.3069  0.7499 -0.8583
14491TIP3    H264965   5.629   2.919  11.564  2.6578 -2.7371 -2.7999
14492TIP3   OH264966   4.125   2.157   1.712 -0.1871 -0.0042  0.2707
14492TIP3    H164967   4.094   2.067   1.702  0.2895  0.0339 -2.2436
14492TIP3    H264968   4.202   2.162   1.656 -0.1695  1.9526  0.4118
14493TIP3   OH264969   2.357   4.709   4.197 -0.2771  0.5130 -0.2834
14493TIP3    H164970   2.273   4.679   4.163  0.4952 -0.0909 -1.7732
14493TIP3    H264971   2.398   4.631   4.231 -1.2672  1.1956  2.7578
14494TIP3   OH264972   3.305   4.435  13.924 -0.4004 -0.3135 -0.4692
14494TIP3    H164973   3.243   4.506  13.907 -1.0909 -1.1893 -1.8690
14494TIP3    H264974   3.349   4.460  14.005 -2.5629  0.3526  0.5795
14495TIP3   OH264975   6.241   6.017   5.324 -0.0616  0.3943  0.3537
14495TIP3    H164976   6.274   5.930   5.301  1.6192  0.5006  2.0854
14495TIP3    H264977   6.147   6.011   5.313  0.1169 -1.3468 -0.5254
14496TIP3   OH264978   4.953   3.573   2.976 -0.3239  0.3294 -0.3442
14496TIP3    H164979   4.923   3.627   2.903  2.4886  0.9733 -1.1496
14496TIP3    H264980   5.019   3.515   2.937 -0.0619 -0.5639  1.3589
14497TIP3   OH264981   1.021   3.732   2.697  0.2267  0.6278  0.0141
14497TIP3    H164982   1.111   3.715   2.725  0.4608  0.4528 -0.8381
14497TIP3    H264983   1.002   3.820   2.730  1.4919  1.5895 -1.7194
14498TIP3   OH264984   2.545   0.471  12.108 -0.1002  0.2520  0.1923
14498TIP3    H164985   2.625   0.484  12.159  0.0236 -2.4244  0.8404
14498TIP3    H264986   2.559   0.388  12.062 -1.8444  0.5874 -1.0575
14499TIP3   OH264987   0.250   0.366   2.259 -0.5585  0.6279  0.1033
14499TIP3    H164988   0.200   0.446   2.274  0.0773  1.0952 -0.2052
14499TIP3    H264989   0.312   0.389   2.189 -2.0130 -0.8408 -1.8003
14500TIP3   OH264990   6.517   6.168  11.694  0.7121  0.7509  0.1112
14500TIP3    H164991   6.520   6.207  11.781  0.3619 -2.0856  1.5182
14500TIP3    H264992   6.435   6.118  11.693  1.1975 -0.0885 -1.4657
14501TIP3   OH264993   1.062   6.659   3.647 -0.0753 -0.1023  0.1761
14501TIP3    H164994   1.008   6.671   3.725  0.4009  0.9663  0.3629
14501TIP3    H264995   1.028   6.723   3.584 -1.1270 -1.6544 -0.8924
14502TIP3   OH264996   5.370   4.120   4.165 -0.1551  0.0591  0.5680
14502TIP3    H164997   5.423   4.080   4.233 -0.3389  0.4395  0.9395
14502TIP3    H264998   5.279   4.099   4.188 -0.1698 -0.7363 -0.1592
14503TIP3   OH264999   4.802   3.464  12.720  0.4259 -0.3213 -0.6120
14503TIP3    H165000   4.788   3.546  12.767  1.1141  0.6105 -1.9448
14503TIP3    H265001   4.881   3.426  12.759 -0.2416 -0.6667  0.4166
14504TIP3   OH265002   6.047   4.951  11.912  0.8307 -0.1566  0.2750
14504TIP3    H165003   6.075   5.006  11.985 -0.9452 -0.1417  0.9846
14504TIP3    H265004   6.018   4.870  11.954  1.0653 -0.6785 -0.5475
14505TIP3   OH265005   4.404   5.796   4.127  0.0863 -0.2162 -0.3166
14505TIP3    H165006   4.349   5.817   4.202  1.6228 -1.3233  1.1968
14505TIP3    H265007   4.420   5.702   4.134  1.1252 -0.1518 -1.4423
14506TIP3   OH265008   1.811   3.965   5.211  0.1467  0.2889 -0.0866
14506TIP3    H165009   1.825   4.060   5.211 -1.2882  0.5130 -0.1381
14506TIP3    H265010   1.797   3.942   5.303  0.8487  0.0555 -0.0293
14507TIP3   OH265011   3.090   3.098   2.432  0.3649  0.0134  0.7099
14507TIP3    H165012   3.023   3.103   2.500 -2.2099 -1.5576 -1.5064
14507TIP3    H265013   3.158   3.042   2.470 -2.2469 -3.1502  1.1988
14508TIP3   OH265014   6.598   5.419  11.219 -0.7876 -0.0372 -0.4964
14508TIP3    H165015   6.548   5.353  11.172 -0.4254 -0.8090  0.1882
14508TIP3    H265016   6.651   5.370  11.281  0.3488  0.8115 -0.7609
14509TIP3   OH265017   5.521   5.788  12.713  0.4575 -0.1509 -0.1157
14509TIP3    H165018   5.445   5.744  12.752  0.6496  2.0086  3.1048
14509TIP3    H265019   5.593   5.726  12.723 -0.2303 -0.9807 -0.2211
14510TIP3   OH265020   0.122   3.346   2.538  0.9343 -0.2710 -0.5002
14510TIP3    H165021   0.121   3.354   2.443 -0.3386 -1.6326 -0.6481
14510TIP3    H265022   0.129   3.251   2.553  2.3478  0.0012  0.7881
14511TIP3   OH265023   6.594   6.769  11.164  0.1614 -0.0515  0.7686
14511TIP3    H165024   6.538   6.749  11.089  0.1947  1.2116  0.3862
14511TIP3    H265025   6.646   6.844  11.136  2.4947 -1.5190  0.8894
14512TIP3   OH265026   3.372   1.804  12.475 -0.8924  0.0399  0.2158
14512TIP3    H165027   3.433   1.878  12.475  1.0151 -1.4313 -0.5571
14512TIP3    H265028   3.337   1.801  12.564  1.0972  0.2456  1.0591
14513TIP3   OH265029   1.688   6.753  10.906 -0.1626 -0.3810  0.3181
14513TIP3    H165030   1.744   6.695  10.958 -0.2116 -1.0395 -0.3447
14513TIP3    H265031   1.684   6.711  10.820 -0.0151  0.7330 -0.2480
14514TIP3   OH265032   0.766   6.452  15.186 -0.6005 -0.5693  0.5825
14514TIP3    H165033   0.688   6.421  15.232 -1.4639 -2.3798 -1.8533
14514TIP3    H265034   0.753   6.547  15.180 -1.2648 -0.5026  2.5112
14515TIP3   OH265035   0.230   4.613  13.292 -0.5717  0.3683 -0.7178
14515TIP3    H165036   0.287   4.685  13.319 -0.6625  0.2625 -0.2290
14515TIP3    H265037   0.153   4.621  13.349  0.0816 -1.0104  0.4353
14516TIP3   OH265038   4.019   2.729   1.376 -0.1154 -0.4602  0.7055
14516TIP3    H165039   3.954   2.737   1.446 -1.9330  0.8225 -1.0118
14516TIP3    H265040   4.103   2.727   1.422 -1.1987  0.6223  2.9261
14517TIP3   OH265041   6.823   0.081   4.821 -0.4185 -0.0581 -0.2117
14517TIP3    H165042   6.860   0.151   4.875  1.6361 -2.2729  1.5099
14517TIP3    H265043   6.898   0.025   4.801 -1.6641 -0.8880 -3.0075
14518TIP3   OH265044   4.993   6.231   2.513 -0.5639 -0.0597  0.2802
14518TIP3    H165045   4.897   6.229   2.523 -0.5692  0.2345  0.2789
14518TIP3    H265046   5.017   6.321   2.532 -0.3072 -0.0843  0.0659
14519TIP3   OH265047   3.463   4.780   1.487 -0.4574  0.0455  0.2432
14519TIP3    H165048   3.519   4.857   1.489 -1.9880  1.2145  2.4574
14519TIP3    H265049   3.396   4.799   1.422 -1.4128  1.0756  1.4925
14520TIP3   OH265050   6.426   3.087   5.319 -0.1576  0.3640 -0.2450
14520TIP3    H165051   6.455   3.161   5.372  0.8722  0.6139 -1.0988
14520TIP3    H265052   6.455   3.010   5.367  0.1111  0.5666 -0.0772
14521TIP3   OH265053   2.110   6.150   5.410 -0.3052  0.3316 -0.4271
14521TIP3    H165054   2.104   6.125   5.318 -1.2844  1.0875 -0.5789
14521TIP3    H265055   2.074   6.239   5.413 -1.3821 -0.1201  0.8599
14522TIP3   OH265056   3.191   2.416   5.012 -0.6405  0.2294 -0.2871
14522TIP3    H165057   3.257   2.474   4.974 -1.1741  0.2359 -1.2253
14522TIP3    H265058   3.155   2.467   5.085 -1.0837  1.0959 -1.0833
14523TIP3   OH265059   3.319   1.198  15.964  0.4985 -0.4111 -0.1809
14523TIP3    H165060   3.396   1.242  15.998 -0.2438  0.0674  0.9219
14523TIP3    H265061   3.272   1.265  15.914  0.1270 -0.3371  0.2591
14524TIP3   OH265062   1.680   2.374   2.466  0.6735  0.2940 -0.1885
14524TIP3    H165063   1.703   2.435   2.396  2.1506 -0.0368 -0.0157
14524TIP3    H265064   1.584   2.368   2.462  0.7545 -1.8345 -4.0765
14525TIP3   OH265065   5.329   0.816   0.006 -0.3233  0.1883  0.0883
14525TIP3    H165066   5.340   0.843   0.097 -1.6724 -2.6820  1.2199
14525TIP3    H265067   5.264   0.876  -0.030  0.9859  2.0182  0.6122
14526TIP3   OH265068   3.311   0.704   2.875  0.5352 -0.0230 -0.3560
14526TIP3    H165069   3.337   0.625   2.923  2.8681  0.9535  0.1335
14526TIP3    H265070   3.340   0.688   2.785  0.7827  0.1522 -0.3099
14527TIP3   OH265071   0.550   5.990   3.726 -0.5976  0.6335 -0.3334
14527TIP3    H165072   0.474   5.955   3.773 -0.5169 -0.3181 -0.8794
14527TIP3    H265073   0.592   5.913   3.688  1.1080  1.0359  0.6109
14528TIP3   OH265074   0.966   3.102  13.263 -0.0373  0.5446 -0.3721
14528TIP3    H165075   1.029   3.171  13.284  1.7375 -0.6944 -1.3814
14528TIP3    H265076   0.994   3.028  13.317 -1.0816  0.1718 -0.3278
14529TIP3   OH265077   2.071   0.971   6.480  0.1362  0.5252  0.2320
14529TIP3    H165078   2.072   0.875   6.482  1.0492  0.5085 -0.0702
14529TIP3    H265079   2.161   0.996   6.502 -0.0357  1.3048  0.0859
14530TIP3   OH265080   3.944   1.466  15.464 -0.3336 -0.6896  0.3664
14530TIP3    H165081   3.912   1.507  15.544 -2.5034 -0.4192 -0.5781
14530TIP3    H265082   3.976   1.539  15.410 -0.7706 -0.6420  0.1695
14531TIP3   OH265083   1.064   1.391  10.889  0.6028 -0.7919  0.1280
14531TIP3    H165084   1.105   1.307  10.912  3.1640  0.4502  0.5182
14531TIP3    H265085   0.983   1.393  10.939  1.3315 -2.3032  1.4824
14532TIP3   OH265086   1.457   5.767   5.700  0.5712  0.0386  0.2062
14532TIP3    H165087   1.363   5.763   5.680  0.4023  2.0236  0.4273
14532TIP3    H265088   1.470   5.699   5.765 -0.3151 -1.5622 -1.2101
14533TIP3   OH265089   2.966   4.755   3.579 -0.9359  0.6711  0.0663
14533TIP3    H165090   2.951   4.798   3.495 -1.4284  2.0968  0.8636
14533TIP3    H265091   2.985   4.826   3.640  2.7437 -0.4784  0.5502
14534TIP3   OH265092   2.259   1.735  16.677  0.1357 -0.4544 -0.1509
14534TIP3    H165093   2.166   1.737  16.653  0.1530 -0.4015 -0.2126
14534TIP3    H265094   2.261   1.688  16.761  0.0326 -0.3084 -0.0660
14535TIP3   OH265095   3.742   3.278   5.045 -0.2792 -0.1918 -0.3719
14535TIP3    H165096   3.707   3.246   4.962 -2.1385 -0.0034  0.2915
14535TIP3    H265097   3.664   3.299   5.097  0.8445  1.6949  0.6495
14536TIP3   OH265098   2.409   6.773  11.594  0.1357 -0.0067  0.2236
14536TIP3    H165099   2.377   6.732  11.513  0.5204  1.2521 -0.5922
14536TIP3    H265100   2.455   6.703  11.640 -0.6439 -0.9100 -0.3234
14537TIP3   OH265101   2.033   1.633  16.543  0.0200 -0.0334  0.5437
14537TIP3    H165102   2.040   1.559  16.483 -1.4126  0.6834 -0.5763
14537TIP3    H265103   2.072   1.706  16.496 -0.4593  0.3777  0.7723
14538TIP3   OH265104   6.222   0.926  11.207  0.0247 -0.2610 -0.0922
14538TIP3    H165105   6.161   0.864  11.168 -0.7610  0.6738 -0.3883
14538TIP3    H265106   6.306   0.880  11.209 -0.7175 -1.6150  0.4681
14539TIP3   OH265107   3.705   5.311   3.469  0.6344  0.3588 -0.4293
14539TIP3    H165108   3.615   5.326   3.440  1.5106  3.0317 -2.1087
14539TIP3    H265109   3.733   5.395   3.506  2.3887 -0.4607  0.2064
14540TIP3   OH265110   3.625   3.070   5.314  0.0525 -0.4611 -0.4967
14540TIP3    H165111   3.631   3.022   5.232  1.4673 -1.5972  0.2283
14540TIP3    H265112   3.715   3.093   5.335 -0.3612  0.3806  0.4098
14541TIP3   OH265113   3.264   0.341   4.137  0.7921 -0.2329 -0.3285
14541TIP3    H165114   3.181   0.378   4.105  0.7468  1.3114  1.3970
14541TIP3    H265115   3.238   0.269   4.194  0.6314  0.0879  0.0101
14542TIP3   OH265116   2.007   1.821   4.278  0.3626  0.5673  0.3262
14542TIP3    H165117   2.051   1.757   4.334  1.3327  0.3401 -0.6476
14542TIP3    H265118   1.955   1.768   4.218  0.9246  0.6872 -0.2816
14543TIP3   OH265119   6.296   2.334  12.554 -0.4593 -0.2164  0.5981
14543TIP3    H165120   6.238   2.368  12.485 -0.6856 -1.8417 -0.0493
14543TIP3    H265121   6.271   2.242  12.563  1.3840 -0.7113  0.9810
14544TIP3   OH265122   1.036   5.007   4.528  0.0186 -0.1533  0.2137
14544TIP3    H165123   1.124   4.996   4.562 -0.0252  0.1299  0.4187
14544TIP3    H265124   1.003   5.086   4.571 -0.3649 -0.3085  0.2089
14545TIP3   OH265125   0.836   3.770  10.928 -0.0600 -0.2754  0.1092
14545TIP3    H165126   0.857   3.761  10.835  0.7937  0.7529  0.1767
14545TIP3    H265127   0.817   3.863  10.940  1.1688 -0.1194  1.1938
14546TIP3   OH265128   4.169   2.157   4.103  0.1840 -0.2521 -0.2290
14546TIP3    H165129   4.123   2.074   4.085  1.3766 -0.9666 -0.0824
14546TIP3    H265130   4.140   2.215   4.033 -1.2566 -0.5340  0.0883
14547TIP3   OH265131   6.116   0.091  16.954 -0.2288 -0.0983  0.4110
14547TIP3    H165132   6.176   0.018  16.943 -1.3564 -1.1599  1.0965
14547TIP3    H265133   6.163   0.154  17.008  1.2635  0.3399 -1.2953
14548TIP3   OH265134   1.354   1.278  15.891 -0.0578 -0.1293  0.1727
14548TIP3    H165135   1.400   1.238  15.818 -1.8019 -0.4031 -0.8337
14548TIP3    H265136   1.330   1.365  15.859 -0.6492 -0.1750  0.4770
14549TIP3   OH265137   3.441   3.174   4.403 -0.4057  0.6482  0.0553
14549TIP3    H165138   3.475   3.259   4.431 -0.9799  0.8910  0.0240
14549TIP3    H265139   3.508   3.111   4.431  1.4479  1.3349 -2.4748
14550TIP3   OH265140   6.106   0.074   3.162  0.5333  0.2521  0.0354
14550TIP3    H165141   6.024   0.047   3.202  0.4816 -0.1997 -0.3640
14550TIP3    H265142   6.095   0.168   3.146  0.4023  0.3498  0.6997
14551TIP3   OH265143   0.104   3.213  14.136  0.0683  0.5968 -0.5042
14551TIP3    H165144   0.033   3.265  14.096  0.3643  1.4251  0.0127
14551TIP3    H265145   0.079   3.122  14.120 -0.7000  0.8891 -1.0457
14552TIP3   OH265146   1.306   3.736   3.094 -0.0518  0.1941 -0.3752
14552TIP3    H165147   1.259   3.809   3.135  0.9601 -0.4509  2.1800
14552TIP3    H265148   1.398   3.758   3.105  0.2914  0.0162 -2.5500
14553TIP3   OH265149   0.826   4.970   4.208  0.2151 -0.4517  0.2363
14553TIP3    H165150   0.746   4.962   4.156 -0.9597  1.6799  1.5558
14553TIP3    H265151   0.897   4.949   4.147 -1.1079  1.3883 -2.1202
14554TIP3   OH265152   1.930   3.546   3.331  0.2950  0.0020 -0.1813
14554TIP3    H165153   1.855   3.486   3.327 -0.5479  0.7603  2.2006
14554TIP3    H265154   2.007   3.489   3.322 -0.5132 -1.2502  0.4909
14555TIP3   OH265155   3.170   5.570   2.296  0.2417 -0.1769  0.5580
14555TIP3    H165156   3.103   5.509   2.330 -0.2733 -0.3625 -0.7294
14555TIP3    H265157   3.252   5.539   2.334 -0.1355 -1.1589  0.6077
14556TIP3   OH265158   1.674   4.371  15.513  0.0240  0.1476  0.2654
14556TIP3    H165159   1.674   4.392  15.606 -0.0355  1.2085  0.0346
14556TIP3    H265160   1.624   4.290  15.506 -0.3400  0.2992  1.1010
14557TIP3   OH265161   4.976   2.825  12.890 -0.2893 -0.0738 -0.2328
14557TIP3    H165162   5.046   2.763  12.869 -1.0486 -2.1885  2.7587
14557TIP3    H265163   4.898   2.770  12.901 -1.1187  1.4047  2.1277
14558TIP3   OH265164   0.565   1.664   3.225  0.6882 -0.4372 -0.3141
14558TIP3    H165165   0.657   1.691   3.228  0.7813 -0.8072  0.9025
14558TIP3    H265166   0.525   1.704   3.302  0.1296 -1.2949 -0.1324
14559TIP3   OH265167   0.861   0.857   2.208  0.1492  0.0291  0.0267
14559TIP3    H165168   0.953   0.832   2.202 -0.1082 -0.6160 -1.6225
14559TIP3    H265169   0.820   0.788   2.260  0.4428 -0.1035  0.0819
14560TIP3   OH265170   0.700   6.473   3.627  1.0377  0.7300  0.2628
14560TIP3    H165171   0.635   6.406   3.651 -0.7842  1.3437 -2.3607
14560TIP3    H265172   0.782   6.442   3.665  0.1464 -2.6357 -0.1636
14561TIP3   OH265173   6.624   4.359  14.248  0.2468 -0.1143  0.1358
14561TIP3    H165174   6.529   4.366  14.246  0.2949  0.3857 -0.9383
14561TIP3    H265175   6.643   4.277  14.202  0.3284 -0.4057  0.6759
14562TIP3   OH265176   1.323   1.011   4.784 -0.3729  1.1311  0.1485
14562TIP3    H165177   1.244   1.034   4.734  0.0023  0.4475 -0.7764
14562TIP3    H265178   1.328   0.916   4.778  0.4776  1.1650  0.2800
14563TIP3   OH265179   0.041   2.579   3.877  0.3030 -0.0921 -0.3286
14563TIP3    H165180  -0.036   2.559   3.930 -1.0252  0.4915 -1.9551
14563TIP3    H265181   0.006   2.615   3.796  2.2967  0.0276 -1.2007
14564TIP3   OH265182   4.130   6.272   3.850 -0.4707 -0.8280 -0.2088
14564TIP3    H165183   4.186   6.294   3.775 -1.2426  0.1855 -0.5113
14564TIP3    H265184   4.042   6.292   3.820 -0.7725 -0.1905  1.0555
14565TIP3   OH265185   3.522   6.221   5.907 -1.0405  0.0068  0.0150
14565TIP3    H165186   3.449   6.277   5.934 -1.1811  1.2949 -2.6313
14565TIP3    H265187   3.595   6.281   5.897 -0.4254 -0.7637 -0.2069
14566TIP3   OH265188   0.783   5.702   5.849 -0.5592 -0.2946 -0.3371
14566TIP3    H165189   0.733   5.708   5.930  1.9269 -1.5727  1.4369
14566TIP3    H265190   0.851   5.770   5.858 -0.2610 -0.4395 -1.3581
14567TIP3   OH265191   1.857   3.113  16.540 -0.3083 -0.1342 -0.2734
14567TIP3    H165192   1.926   3.132  16.478 -0.6209  1.1089 -0.2725
14567TIP3    H265193   1.796   3.057  16.493 -0.7352  1.1041 -1.2403
14568TIP3   OH265194   1.248   2.604  14.430 -0.4414  0.9627 -0.3638
14568TIP3    H165195   1.159   2.574  14.411  0.0682 -1.0603  0.1689
14568TIP3    H265196   1.273   2.655  14.354 -2.5672  2.8553  0.1091
14569TIP3   OH265197   4.344   0.230   3.356 -0.4139 -0.3971 -0.5881
14569TIP3    H165198   4.322   0.217   3.449 -0.5711  1.2947 -0.3580
14569TIP3    H265199   4.269   0.278   3.320 -0.1861 -0.7106 -1.5058
14570TIP3   OH265200   3.924   0.244  15.172  0.1604 -0.8738 -0.4845
14570TIP3    H165201   3.866   0.184  15.218 -1.9752  1.3495 -0.0330
14570TIP3    H265202   3.952   0.307  15.239  2.4050 -1.3206 -0.9103
14571TIP3   OH265203   1.299   1.057  12.558  0.0654 -0.3692 -0.8181
14571TIP3    H165204   1.316   1.150  12.548 -0.7396 -0.3244 -2.0071
14571TIP3    H265205   1.218   1.053  12.610 -0.2935 -0.3633 -1.3596
14572TIP3   OH265206   3.262   2.562   1.267 -0.3809 -0.0833  0.9568
14572TIP3    H165207   3.246   2.515   1.349 -1.6316 -0.4560  0.5350
14572TIP3    H265208   3.344   2.524   1.233  0.0645 -0.0251  1.9502
14573TIP3   OH265209   0.611   2.807   5.243  0.4526 -0.3624 -0.0950
14573TIP3    H165210   0.643   2.730   5.289 -0.1224  0.4807  1.8239
14573TIP3    H265211   0.611   2.782   5.150 -0.3667 -2.8874  0.5253
14574TIP3   OH265212   4.761   3.641   1.936  0.6321  0.8595  0.0918
14574TIP3    H165213   4.721   3.728   1.932 -0.4638  0.3632  0.1151
14574TIP3    H265214   4.689   3.581   1.952  0.9217 -0.3813 -2.6812
14575TIP3   OH265215   2.215   3.433   4.053  0.5511 -0.4579 -0.6905
14575TIP3    H165216   2.174   3.401   3.973  1.5705 -2.8725 -0.3252
14575TIP3    H265217   2.297   3.384   4.060  0.8418  0.2201  1.4306
14576TIP3   OH265218   2.176   6.453   3.913 -0.2088 -0.0113 -0.2613
14576TIP3    H165219   2.098   6.475   3.964  1.4907  1.2741  1.9962
14576TIP3    H265220   2.149   6.378   3.859 -2.7497 -0.1293  1.0162
14577TIP3   OH265221   4.708   3.600  16.574  0.5935  0.1759 -0.1066
14577TIP3    H165222   4.781   3.539  16.587  1.3903  0.6933 -1.7579
14577TIP3    H265223   4.749   3.678  16.535 -0.9389  0.0840 -2.0995
14578TIP3   OH265224   3.354   6.758  12.484 -0.1774  0.6758  0.6522
14578TIP3    H165225   3.449   6.752  12.479  0.0087  0.9982  2.9899
14578TIP3    H265226   3.323   6.683  12.432  1.3054  0.6964 -0.3283
14579TIP3   OH265227   3.643   5.091  12.918 -0.1513  0.2794 -0.2105
14579TIP3    H165228   3.683   5.111  12.834 -0.9758  1.6130 -0.3135
14579TIP3    H265229   3.715   5.054  12.970  1.0149  1.7315 -0.6931
14580TIP3   OH265230   3.848   5.424  14.576  0.0842 -0.3183  0.0718
14580TIP3    H165231   3.806   5.483  14.513  0.1222  0.9718  1.2188
14580TIP3    H265232   3.781   5.408  14.642  0.6422 -0.0962  0.7069
14581TIP3   OH265233   1.418   3.963   1.890 -0.1685  0.1596  0.3684
14581TIP3    H165234   1.398   4.027   1.959 -0.6007  0.9485 -0.4661
14581TIP3    H265235   1.340   3.964   1.834  1.0553  1.2749 -1.4341
14582TIP3   OH265236   1.712   4.247   1.768 -0.3180 -0.5520 -0.0421
14582TIP3    H165237   1.626   4.281   1.791 -0.4025 -0.9945  0.2834
14582TIP3    H265238   1.728   4.176   1.829 -0.0247 -0.9376 -0.5540
14583TIP3   OH265239   2.835   1.439   2.928 -0.2634  0.1002  0.0976
14583TIP3    H165240   2.919   1.394   2.941 -0.8137 -1.1508 -0.4560
14583TIP3    H265241   2.843   1.480   2.842  0.0519  0.6400  0.3790
14584TIP3   OH265242   1.515   5.646  11.679 -0.0938  0.1210 -0.0592
14584TIP3    H165243   1.480   5.640  11.590  2.3951 -0.8649 -1.0482
14584TIP3    H265244   1.467   5.719  11.718  0.0706  1.8696 -2.8379
14585TIP3   OH265245   2.416   2.895   5.729 -0.6918 -0.4443  0.2074
14585TIP3    H165246   2.321   2.896   5.722 -0.7207  0.0335  0.6060
14585TIP3    H265247   2.436   2.812   5.773 -0.8829 -0.7699 -0.3082
14586TIP3   OH265248   0.997   2.829  15.611  0.6635  0.3348  0.3409
14586TIP3    H165249   0.958   2.867  15.690  0.6828  0.1717  0.4285
14586TIP3    H265250   0.951   2.746  15.599 -0.3629  0.9974 -0.6296
14587TIP3   OH265251   3.323   4.770  11.785  0.2486  0.1067  0.1271
14587TIP3    H165252   3.276   4.853  11.779  0.4256  0.1358 -0.9771
14587TIP3    H265253   3.257   4.704  11.765  1.0159  0.2510 -3.5079
14588TIP3   OH265254   1.163   2.050   5.741  0.5281 -0.1639  0.2343
14588TIP3    H165255   1.133   2.064   5.830  0.1597  0.8961 -0.0458
14588TIP3    H265256   1.254   2.080   5.741  0.5335 -0.1812  0.2609
14589TIP3   OH265257   2.644   1.857  16.826 -0.0181  0.0880  0.2307
14589TIP3    H165258   2.614   1.912  16.898  0.2860  2.5319 -1.3902
14589TIP3    H265259   2.661   1.771  16.866 -1.4542  0.8659  2.6901
14590TIP3   OH265260   1.545   0.824   2.616 -0.0041  0.0597 -0.4665
14590TIP3    H165261   1.489   0.845   2.690  2.7435 -1.8925  2.4217
14590TIP3    H265262   1.491   0.769   2.560 -1.0428 -1.8344  2.2139
14591TIP3   OH265263   3.216   2.871  15.538  0.1896 -0.1018  0.3541
14591TIP3    H165264   3.286   2.921  15.494 -0.8573  2.3912  1.3155
14591TIP3    H265265   3.258   2.836  15.616  0.8042 -0.1593  0.0067
14592TIP3   OH265266   0.787   1.841  16.364  0.3158  0.4551  0.5424
14592TIP3    H165267   0.712   1.844  16.423 -0.2794  1.3540 -0.2301
14592TIP3    H265268   0.765   1.903  16.294 -0.5649 -2.9313 -2.4699
14593TIP3   OH265269   2.705   2.318   5.263  0.3810  0.1520  0.1759
14593TIP3    H165270   2.720   2.371   5.341 -0.1618 -1.3834  1.3808
14593TIP3    H265271   2.767   2.246   5.271  1.9554  1.1594 -2.0442
14594TIP3   OH265272   4.996   0.082  12.110 -0.2291 -0.2653  0.3540
14594TIP3    H165273   4.973   0.038  12.192 -1.8197 -0.0094  0.0838
14594TIP3    H265274   4.958   0.027  12.042 -1.5357  1.0638 -0.0335
14595TIP3   OH265275   5.925   5.457  10.854 -0.1780 -0.1462 -0.2198
14595TIP3    H165276   5.879   5.540  10.865  2.2867  1.4952 -1.2354
14595TIP3    H265277   5.919   5.439  10.760  1.5678  0.3968 -0.4766
14596TIP3   OH265278   6.722   1.675  11.366  0.2207 -1.2617 -0.2948
14596TIP3    H165279   6.726   1.652  11.273 -2.4944  3.7545 -1.9920
14596TIP3    H265280   6.799   1.730  11.381 -0.1796 -0.7745 -0.0156
14597TIP3   OH265281   5.956   2.920  12.529 -0.3937 -0.0862  0.5825
14597TIP3    H165282   5.860   2.924  12.532 -0.3590  0.5292  1.1840
14597TIP3    H265283   5.979   2.963  12.447 -0.6264 -0.1205  0.4970
14598TIP3   OH265284   1.279   1.532  15.221  0.1122  0.1782 -0.4025
14598TIP3    H165285   1.291   1.438  15.212 -0.6937  0.0170  0.0671
14598TIP3    H265286   1.186   1.542  15.241  0.1852  1.0765 -0.4754
14599TIP3   OH265287   4.504   5.105   3.307 -0.5271 -0.5559 -0.1426
14599TIP3    H165288   4.456   5.154   3.374 -0.5057  0.8326 -1.1133
14599TIP3    H265289   4.572   5.059   3.356  0.3157  1.4642  0.6984
14600TIP3   OH265290   1.618   1.232   3.592  0.8375  0.2658 -0.0211
14600TIP3    H165291   1.624   1.180   3.512 -3.6979 -0.1445 -0.4036
14600TIP3    H265292   1.660   1.315   3.570  1.3802 -0.5108 -2.1466
14601TIP3   OH265293   3.760   4.937  13.496 -0.0130 -0.2792  0.3937
14601TIP3    H165294   3.731   4.846  13.494 -0.2929 -0.2703  2.2884
14601TIP3    H265295   3.831   4.939  13.559  1.4633  0.4689 -1.2093
14602TIP3   OH265296   0.473   0.566   3.246 -0.9542 -0.7453 -0.9780
14602TIP3    H165297   0.482   0.494   3.309  0.6606 -2.0651 -2.6000
14602TIP3    H265298   0.428   0.635   3.295 -2.1155 -2.6439  0.8127
14603TIP3   OH265299   5.947   2.656  13.081  0.2990  0.0815 -0.0187
14603TIP3    H165300   5.986   2.714  13.146  0.3127 -0.0677  0.1051
14603TIP3    H265301   5.907   2.585  13.131  0.4764 -0.1352 -0.1792
14604TIP3   OH265302   3.922   1.605  13.059 -0.6494 -0.0821 -0.3644
14604TIP3    H165303   3.996   1.666  13.053 -1.4971  0.9298 -0.6681
14604TIP3    H265304   3.961   1.525  13.096  0.4446  0.6732  0.1819
14605TIP3   OH265305   0.153   0.290   4.549  0.0226 -0.1599  0.2112
14605TIP3    H165306   0.058   0.282   4.546  0.0397 -0.1646 -1.4083
14605TIP3    H265307   0.183   0.204   4.579 -0.5188  0.6347  3.4192
14606TIP3   OH265308   0.533   4.150  11.096 -0.4878 -0.4831  0.3250
14606TIP3    H165309   0.620   4.185  11.076 -0.5229  0.0997  1.1360
14606TIP3    H265310   0.549   4.059  11.123 -0.2383 -0.6594 -0.3906
14607TIP3   OH265311   5.583   2.311   1.707 -0.4647  0.2141 -0.0180
14607TIP3    H165312   5.616   2.304   1.618  2.0326  1.0240  0.7738
14607TIP3    H265313   5.618   2.234   1.752 -0.9547  0.2865  0.4963
14608TIP3   OH265314   3.547   2.667   2.686 -0.4650  0.0079  0.2345
14608TIP3    H165315   3.562   2.747   2.737 -1.8229  1.0199 -0.8747
14608TIP3    H265316   3.504   2.697   2.606 -1.2591 -1.8713 -0.1006
14609TIP3   OH265317   1.879   2.074   4.632 -0.2183  0.5993 -0.1114
14609TIP3    H165318   1.843   2.011   4.569 -1.8553  1.5072 -0.1175
14609TIP3    H265319   1.857   2.038   4.718  1.0047 -0.0479 -0.0419
14610TIP3   OH265320   3.208   3.395  10.399 -0.2987 -0.0297 -0.0173
14610TIP3    H165321   3.259   3.431  10.471  0.3730 -2.4878  0.8280
14610TIP3    H265322   3.272   3.355  10.341 -0.9961  0.1996 -0.9851
14611TIP3   OH265323   3.434   1.439  14.876  0.3596  0.1035 -0.1343
14611TIP3    H165324   3.483   1.450  14.958 -0.8369  1.5027  0.4333
14611TIP3    H265325   3.368   1.373  14.896  0.9471 -0.5869 -0.4164
14612TIP3   OH265326   5.909   3.559  13.829  0.4061 -0.1843 -0.3137
14612TIP3    H165327   5.927   3.653  13.822 -0.2074 -0.0069  0.4202
14612TIP3    H265328   5.813   3.552  13.821  0.4117 -0.7107  0.0200
14613TIP3   OH265329   5.091   3.800  10.980 -0.6629  0.1868 -1.0512
14613TIP3    H165330   5.125   3.797  11.069  0.0068 -1.6693 -1.3384
14613TIP3    H265331   5.002   3.766  10.987 -0.4648 -0.3571 -1.1446
14614TIP3   OH265332   0.819   2.214  14.428 -0.2104  0.7493  0.2869
14614TIP3    H165333   0.881   2.174  14.366 -1.0208  1.1908 -0.8400
14614TIP3    H265334   0.755   2.146  14.445  0.3032  0.4461  1.0994
14615TIP3   OH265335   0.172   4.066   0.131  0.1345  0.3105  0.7850
14615TIP3    H165336   0.109   3.993   0.134  0.8912 -0.3386  1.3002
14615TIP3    H265337   0.254   4.028   0.163  0.5030  1.4320  1.2074
14616TIP3   OH265338   2.212   3.042   4.506 -0.5501  0.0551 -0.0174
14616TIP3    H165339   2.306   3.029   4.497 -0.3774  1.8953 -1.3976
14616TIP3    H265340   2.192   3.117   4.450 -2.8094 -0.1363  0.4200
14617TIP3   OH265341   4.000   4.248   0.463 -0.3372  0.7406  0.6229
14617TIP3    H165342   4.002   4.206   0.549 -0.0508 -0.5712  0.0003
14617TIP3    H265343   3.923   4.211   0.419  0.9373 -0.5999 -0.6129
14618TIP3   OH265344   5.343   4.731   5.631 -0.2055 -0.1081 -0.1148
14618TIP3    H165345   5.438   4.734   5.625 -0.1313  2.3331  0.9420
14618TIP3    H265346   5.321   4.639   5.619  2.5098 -1.2399  2.3755
14619TIP3   OH265347   2.017   4.007   2.808 -0.5211  0.3151  0.5242
14619TIP3    H165348   1.947   3.946   2.784 -0.4102  0.5421 -0.4005
14619TIP3    H265349   2.028   4.062   2.731  2.0268 -0.9622 -0.1308
14620TIP3   OH265350   1.728   6.135   4.136 -0.4405  0.1500 -0.3432
14620TIP3    H165351   1.696   6.217   4.173 -0.8343 -0.1075 -0.1065
14620TIP3    H265352   1.775   6.093   4.207  1.2644  0.9483 -0.9409
14621TIP3   OH265353   4.194   0.213  13.052 -0.2423 -0.0086  0.3437
14621TIP3    H165354   4.261   0.164  13.100 -0.4768 -0.6079  0.0641
14621TIP3    H265355   4.131   0.238  13.120 -0.5379 -0.7971  0.3691
14622TIP3   OH265356   5.608   1.018   1.416  0.0654  0.5199 -0.0769
14622TIP3    H165357   5.578   1.105   1.440  1.4953  0.6772  1.3245
14622TIP3    H265358   5.584   1.008   1.324 -5.6573 -0.0405  1.1295
14623TIP3   OH265359   4.423   4.709  11.118 -0.0030  0.0877 -0.1941
14623TIP3    H165360   4.503   4.693  11.169 -0.4509 -1.5338  0.0767
14623TIP3    H265361   4.451   4.764  11.045  1.2841 -0.1138  0.1287
14624TIP3   OH265362   1.684   4.211  13.071  0.0830  0.2602  0.8371
14624TIP3    H165363   1.696   4.260  12.989 -0.4577  0.9746  1.1764
14624TIP3    H265364   1.616   4.259  13.118  0.1611 -0.3298  1.5694
14625TIP3   OH265365   4.938   5.630   4.433 -0.3537  0.0164 -0.0607
14625TIP3    H165366   5.014   5.687   4.428  1.1815 -1.9154 -0.0565
14625TIP3    H265367   4.901   5.646   4.520 -0.9121  2.0526 -0.6112
14626TIP3   OH265368   0.913   3.100  11.914  0.2616 -0.1244 -0.1976
14626TIP3    H165369   0.961   3.018  11.907  1.5597  0.4741  1.0925
14626TIP3    H265370   0.845   3.083  11.980 -1.2544 -0.9150 -1.8889
14627TIP3   OH265371   2.881   5.362   2.263  0.1141 -0.0453  0.6592
14627TIP3    H165372   2.881   5.291   2.327  0.9602 -0.7322 -0.0629
14627TIP3    H265373   2.804   5.344   2.208 -1.1132  1.0365  1.9637
14628TIP3   OH265374   2.799   0.908  16.677  0.8383 -0.3137 -0.0937
14628TIP3    H165375   2.860   0.980  16.660 -1.1678  1.6253  0.4305
14628TIP3    H265376   2.798   0.858  16.595  2.8350 -0.2158 -0.2251
14629TIP3   OH265377   6.331   4.464   3.645  0.0130 -0.7135  0.5328
14629TIP3    H165378   6.405   4.465   3.584 -0.4782  0.2791 -0.0554
14629TIP3    H265379   6.305   4.372   3.648 -0.7218 -0.6414 -1.7028
14630TIP3   OH265380   4.543   1.657   1.454 -0.3073  0.2684  0.2056
14630TIP3    H165381   4.467   1.683   1.507 -1.2282 -1.7951  0.0031
14630TIP3    H265382   4.506   1.607   1.382  1.2290 -0.3654 -0.1851
14631TIP3   OH265383   5.177   5.234   0.340  0.1200 -0.2832 -0.4047
14631TIP3    H165384   5.164   5.295   0.413  2.6844 -0.2691  0.1131
14631TIP3    H265385   5.128   5.156   0.365 -0.3334  0.2829  0.5562
14632TIP3   OH265386   6.692   0.106  15.240 -0.4787 -0.0171  0.0760
14632TIP3    H165387   6.635   0.089  15.164 -0.3241 -1.0503  0.1697
14632TIP3    H265388   6.690   0.201  15.251 -1.3965  0.0484 -0.5344
14633TIP3   OH265389   1.804   2.986   6.153 -0.1549  0.4850  0.7259
14633TIP3    H165390   1.742   3.011   6.222  0.3450  1.4906  0.8356
14633TIP3    H265391   1.851   3.068   6.133 -0.9839  0.4837 -1.5177
14634TIP3   OH265392   3.479   1.211   6.352  0.9037  0.9016 -0.1583
14634TIP3    H165393   3.444   1.153   6.284  3.1786 -0.9838  0.1467
14634TIP3    H265394   3.429   1.292   6.342  0.2990  0.3001 -3.2853
14635TIP3   OH265395   2.203   0.303  11.121  0.5076  0.1228 -0.1418
14635TIP3    H165396   2.203   0.313  11.216 -1.2539 -0.4834 -0.0330
14635TIP3    H265397   2.110   0.294  11.098  0.9537 -0.6402 -1.8146
14636TIP3   OH265398   6.204   2.652   1.438 -0.2273 -0.0824  0.6585
14636TIP3    H165399   6.239   2.565   1.419  0.0981  0.0537  0.6287
14636TIP3    H265400   6.156   2.676   1.358  0.6417  0.2398  0.2208
14637TIP3   OH265401   3.242   3.717  13.879 -0.4074 -0.1137  0.0705
14637TIP3    H165402   3.319   3.761  13.844 -1.2051  1.3333  0.0432
14637TIP3    H265403   3.241   3.740  13.972 -1.7294  1.3668 -0.2724
14638TIP3   OH265404   1.896   2.636  11.217  0.5068 -0.2817 -0.1571
14638TIP3    H165405   1.894   2.551  11.174  1.6224 -0.1819 -0.4254
14638TIP3    H265406   1.856   2.696  11.154  0.1157 -0.5225 -0.1426
14639TIP3   OH265407   2.457   5.493  11.932 -0.2189 -0.0392 -0.2418
14639TIP3    H165408   2.508   5.441  11.995 -0.7872  1.2513  1.3468
14639TIP3    H265409   2.522   5.525  11.869  0.6267 -0.0395  0.6076
14640TIP3   OH265410   1.022   2.840   3.539  0.0204  0.6424 -0.2760
14640TIP3    H165411   0.956   2.847   3.470 -2.0118 -1.0293  1.3913
14640TIP3    H265412   1.034   2.930   3.570  1.2209  1.4914 -2.9015
14641TIP3   OH265413   2.927   6.358  10.918 -0.1845  0.3083 -0.2095
14641TIP3    H165414   2.949   6.282  10.865  0.2408  0.7120 -0.6131
14641TIP3    H265415   2.998   6.364  10.982 -0.9089 -0.4298  0.6956
14642TIP3   OH265416   2.207   5.643   0.221 -0.1161  0.5392  0.3269
14642TIP3    H165417   2.206   5.737   0.207  2.3832  0.4085 -1.5680
14642TIP3    H265418   2.289   5.626   0.267  0.9351 -0.8627 -1.8669
14643TIP3   OH265419   6.739   3.715  12.584 -0.1346 -0.6479 -0.4564
14643TIP3    H165420   6.679   3.725  12.509 -0.5828 -0.7079 -0.1096
14643TIP3    H265421   6.681   3.709  12.660  0.3169 -0.7271 -0.1179
14644TIP3   OH265422   3.033   2.687   1.131 -0.0428  0.2749  0.4783
14644TIP3    H165423   3.104   2.650   1.185  0.4902  0.6645  0.0491
14644TIP3    H265424   2.988   2.610   1.095 -0.0161  0.0214  0.9761
14645TIP3   OH265425   0.839   3.736   2.378 -0.5459  0.1964  0.3378
14645TIP3    H165426   0.924   3.693   2.385  0.0505  1.1190 -0.9168
14645TIP3    H265427   0.857   3.828   2.394 -1.1814  0.4954 -0.5728
14646TIP3   OH265428   2.822   1.258  16.470 -0.1224 -0.3758  0.1457
14646TIP3    H165429   2.867   1.309  16.537 -1.0586 -0.1268  0.5998
14646TIP3    H265430   2.781   1.324  16.414  0.2171 -0.5952 -0.3699
14647TIP3   OH265431   6.294   2.471  11.198  0.3443  0.4520  0.3179
14647TIP3    H165432   6.259   2.392  11.240  0.3732  0.2368 -0.0538
14647TIP3    H265433   6.269   2.462  11.106  1.0818  0.4506  0.1090
14648TIP3   OH265434   4.305   5.010  14.043  0.2642  0.0478  1.0862
14648TIP3    H165435   4.261   5.025  13.959  1.1841 -0.9246  0.4048
14648TIP3    H265436   4.258   5.066  14.105  0.3661  1.7757 -0.3074
14649TIP3   OH265437   1.136   5.301   2.711 -0.0957  0.5106  0.6367
14649TIP3    H165438   1.103   5.384   2.747 -1.4628 -0.2546  1.2386
14649TIP3    H265439   1.130   5.239   2.784  0.3774 -0.2604  0.0374
14650TIP3   OH265440   1.677   2.837   4.455  0.1882  0.3757 -0.2285
14650TIP3    H165441   1.703   2.915   4.504  0.2242 -2.1202  4.2896
14650TIP3    H265442   1.742   2.771   4.479 -0.9161 -1.6166 -2.3224
14651TIP3   OH265443   4.581   6.145   0.945  0.3695 -0.8237  0.6577
14651TIP3    H165444   4.551   6.070   0.996 -1.4391  0.3522  1.3986
14651TIP3    H265445   4.536   6.137   0.861  0.7668 -0.9545  0.4512
14652TIP3   OH265446   3.294   4.971  13.857  0.4234  0.3991  0.3898
14652TIP3    H165447   3.342   4.927  13.927  0.5011 -1.6119 -0.8608
14652TIP3    H265448   3.361   5.018  13.808  0.8257 -0.6838 -0.1141
14653TIP3   OH265449   2.411   6.670  16.419  0.6398 -0.6090  0.2226
14653TIP3    H165450   2.349   6.618  16.369  0.1564  0.2299 -0.0814
14653TIP3    H265451   2.412   6.630  16.506 -2.1390  0.7098  0.9782
14654TIP3   OH265452   1.302   2.004   0.514 -0.5701 -0.6953  0.4676
14654TIP3    H165453   1.308   1.936   0.447 -1.8229  0.0382 -0.4343
14654TIP3    H265454   1.208   2.022   0.521 -0.4192 -0.4277  2.1040
14655TIP3   OH265455   2.703   5.716  15.334  0.2023  0.1479 -0.6786
14655TIP3    H165456   2.611   5.740  15.320  0.1794 -0.6130 -1.9080
14655TIP3    H265457   2.702   5.621  15.344  0.8128  0.1807 -0.2680
14656TIP3   OH265458   2.224   0.337  11.408  0.0797 -0.4889 -0.0295
14656TIP3    H165459   2.132   0.316  11.423  0.2508 -0.7861  0.6272
14656TIP3    H265460   2.254   0.374  11.491  0.5307 -0.3208 -0.2659
14657TIP3   OH265461   1.730   3.369   4.402  0.0339  0.2209  0.2414
14657TIP3    H165462   1.779   3.370   4.320 -0.3230  0.0270  0.0227
14657TIP3    H265463   1.781   3.425   4.461  0.2030  0.4969 -0.1624
14658TIP3   OH265464   1.445   5.667  12.095  0.3730 -0.3267  0.2878
14658TIP3    H165465   1.423   5.579  12.066  2.0293 -0.3941 -0.8686
14658TIP3    H265466   1.505   5.655  12.168  0.3317 -0.1617  0.3510
14659TIP3   OH265467   0.598   1.111  14.353 -0.1526 -0.7695  0.1287
14659TIP3    H165468   0.538   1.053  14.399 -1.2275 -1.2868 -1.8072
14659TIP3    H265469   0.591   1.195  14.399 -1.0327 -1.3007  0.9963
14660TIP3   OH265470   6.431   3.238   5.972  0.2516  0.4002  0.4382
14660TIP3    H165471   6.347   3.284   5.974 -0.8395 -1.3214 -1.5554
14660TIP3    H265472   6.446   3.213   6.064 -1.5825  0.4929  0.8173
14661TIP3   OH265473   4.274   5.788  15.043 -0.4671  0.4662  0.3517
14661TIP3    H165474   4.191   5.788  14.996 -0.6973 -0.6912  0.7309
14661TIP3    H265475   4.258   5.846  15.118 -1.7090 -1.4097  1.6586
14662TIP3   OH265476   4.629   5.432  13.026 -0.1396  0.1931  0.2776
14662TIP3    H165477   4.703   5.468  12.977 -0.4950  1.2822  0.5194
14662TIP3    H265478   4.576   5.388  12.960 -0.2154  0.9817 -0.1939
14663TIP3   OH265479   1.035   3.539  11.275 -0.2601 -0.5532 -0.2144
14663TIP3    H165480   1.090   3.608  11.310  0.6812  0.3028 -3.0656
14663TIP3    H265481   1.079   3.458  11.300  0.7760  0.0394 -0.0675
14664TIP3   OH265482   1.644   1.384  12.513 -0.5834  0.6279  0.4367
14664TIP3    H165483   1.672   1.306  12.561  0.6140  0.9557  0.3007
14664TIP3    H265484   1.635   1.451  12.579 -1.8339  0.3283  0.5837
14665TIP3   OH265485   1.625   2.623  14.290 -0.0338  0.2254 -0.5033
14665TIP3    H165486   1.537   2.638  14.254 -0.4432 -0.1996  0.2767
14665TIP3    H265487   1.612   2.551  14.353  0.8596  0.2228 -0.3215
14666TIP3   OH265488   6.760   6.314  14.515  0.8057  0.1174 -0.1661
14666TIP3    H165489   6.681   6.263  14.496  1.4767 -0.6303 -1.0400
14666TIP3    H265490   6.728   6.390  14.564 -0.3444 -0.6019  0.2512
14667TIP3   OH265491   5.219   2.009   1.857  0.0664  0.0341 -0.0549
14667TIP3    H165492   5.190   2.078   1.797  0.4320 -1.2612 -1.8234
14667TIP3    H265493   5.310   2.032   1.877  0.0157  0.3606 -0.1856
14668TIP3   OH265494   5.616   4.320   4.057 -0.6436  0.0719  0.0401
14668TIP3    H165495   5.602   4.298   4.149  0.3971  2.7840  0.9586
14668TIP3    H265496   5.563   4.257   4.008 -1.2962 -1.3837  2.4877
14669TIP3   OH265497   3.205   4.400   0.060 -0.1492  0.4391  0.0503
14669TIP3    H165498   3.263   4.476   0.064  1.3398 -0.6408 -0.2082
14669TIP3    H265499   3.156   4.412  -0.021 -1.4520  2.1323  1.0056
14670TIP3   OH265500   5.736   1.517  11.123 -0.2970  0.2905  0.4024
14670TIP3    H165501   5.742   1.602  11.080  1.6821  0.2191  0.4527
14670TIP3    H265502   5.781   1.456  11.064  0.3223 -0.2606  1.4066
14671TIP3   OH265503   4.435   1.562  13.893  0.0894  0.7765 -0.6586
14671TIP3    H165504   4.529   1.551  13.900 -0.0912  0.0445  1.1938
14671TIP3    H265505   4.420   1.590  13.803  1.9509 -0.4474 -1.3918
14672TIP3   OH265506   5.520   5.642  15.628  0.1369  0.5642 -0.0117
14672TIP3    H165507   5.461   5.717  15.631  0.4678  0.7975  1.2066
14672TIP3    H265508   5.464   5.567  15.610 -0.1921  1.0862 -1.2941
14673TIP3   OH265509   4.783   1.097  13.358  0.4751  0.2218  0.3274
14673TIP3    H165510   4.702   1.046  13.358 -0.4751  1.6186  1.4428
14673TIP3    H265511   4.846   1.043  13.406  0.0107 -0.5970  0.0310
14674TIP3   OH265512   6.225   2.643   2.645 -0.4774 -0.1303  0.2728
14674TIP3    H165513   6.242   2.685   2.560 -1.8474 -1.9093 -0.9634
14674TIP3    H265514   6.282   2.566   2.644  0.7317  0.7060  1.7453
14675TIP3   OH265515   1.868   6.211   3.704 -0.0259  0.5668 -0.5537
14675TIP3    H165516   1.907   6.159   3.774  0.4034  0.7152 -0.6789
14675TIP3    H265517   1.846   6.294   3.745  1.2383  1.0661 -0.8342
14676TIP3   OH265518   0.412   3.944   0.199  0.1366  0.2173  0.3207
14676TIP3    H165519   0.460   4.006   0.254  1.5610 -0.4960 -0.0747
14676TIP3    H265520   0.436   3.858   0.233 -1.7887 -0.1599  0.8319
14677TIP3   OH265521   2.986   4.853  16.128 -0.0273  0.0347  0.0005
14677TIP3    H165522   2.910   4.851  16.186  0.5313  0.9198  0.7848
14677TIP3    H265523   2.964   4.917  16.061  0.2791  0.7791  0.6013
14678TIP3   OH265524   1.280   3.559  17.192  0.3945 -0.3865 -0.1835
14678TIP3    H165525   1.265   3.648  17.224  0.5793 -0.6900  0.7557
14678TIP3    H265526   1.338   3.571  17.116 -2.7197  0.6246 -2.6117
14679TIP3   OH265527   4.526   3.708  13.846 -0.1073  0.3582  0.1542
14679TIP3    H165528   4.446   3.655  13.839 -0.0028  0.3704 -1.3875
14679TIP3    H265529   4.597   3.645  13.845 -0.0717  0.3690  1.1938
14680TIP3   OH265530   5.119   3.036  14.979  0.1250 -0.4750  0.7347
14680TIP3    H165531   5.107   3.128  15.003 -0.4057  0.2200 -1.8754
14680TIP3    H265532   5.213   3.027  14.965  0.1000 -0.0732  0.2419
14681TIP3   OH265533   2.690   0.221  10.946  0.1104  0.4505  0.2923
14681TIP3    H165534   2.772   0.180  10.919 -0.5182 -0.1095 -0.8784
14681TIP3    H265535   2.711   0.267  11.027  2.1958  2.3886 -1.2119
14682TIP3   OH265536   6.677   3.784   2.274  0.2845 -0.0656 -0.0920
14682TIP3    H165537   6.733   3.850   2.313  0.6233  0.0205 -0.7007
14682TIP3    H265538   6.601   3.832   2.242  0.5993  0.0589 -0.6664
14683TIP3   OH265539   0.869   6.166  13.781 -0.2526 -0.0914  0.1880
14683TIP3    H165540   0.800   6.232  13.789 -0.3656 -0.2223  0.2859
14683TIP3    H265541   0.930   6.203  13.717 -0.1167  0.2855  0.5275
14684TIP3   OH265542   0.261   2.739   2.604  0.2516  0.1262  0.6662
14684TIP3    H165543   0.230   2.756   2.515  3.5170  1.5748 -0.3665
14684TIP3    H265544   0.276   2.645   2.607 -1.9326 -0.2763  0.4996
14685TIP3   OH265545   3.436   1.544   0.763  0.1771 -0.0843  0.1103
14685TIP3    H165546   3.424   1.631   0.801 -0.9447 -0.5507  0.8977
14685TIP3    H265547   3.381   1.544   0.685 -1.0614 -0.5711  0.9571
14686TIP3   OH265548   5.075   6.699   2.684  0.7385  0.0466  0.0109
14686TIP3    H165549   5.079   6.768   2.750 -1.0723 -1.1633  1.4803
14686TIP3    H265550   4.982   6.685   2.669  1.0038 -2.5090  0.2951
14687TIP3   OH265551   3.697   2.974   4.173  0.1272 -0.5681 -0.1189
14687TIP3    H165552   3.682   2.887   4.135 -0.5836  0.0868 -1.4161
14687TIP3    H265553   3.730   3.026   4.099 -0.6392  0.5813  0.3331
14688TIP3   OH265554   2.462   6.547   0.690 -0.7961 -0.2265  0.0032
14688TIP3    H165555   2.384   6.510   0.732 -1.1379  0.8354  0.3490
14688TIP3    H265556   2.527   6.550   0.760 -1.2734  1.2710  0.4159
14689TIP3   OH265557   3.918   2.474   0.276  0.4664  0.0136  0.1516
14689TIP3    H165558   4.001   2.521   0.267  0.6560 -0.1496  0.9308
14689TIP3    H265559   3.856   2.540   0.306  0.0713  0.3432 -1.3015
14690TIP3   OH265560   5.040   5.277  14.428  0.6752  0.9622  0.0469
14690TIP3    H165561   5.028   5.310  14.339  1.4438  1.6896  0.2045
14690TIP3    H265562   5.011   5.348  14.485 -0.2020  0.3482  0.3939
14691TIP3   OH265563   5.935   0.414   6.117 -0.0817 -0.6549 -0.4893
14691TIP3    H165564   5.928   0.319   6.126  0.8792 -0.8286 -1.3746
14691TIP3    H265565   6.013   0.437   6.167 -0.1113 -0.3850 -0.5652
14692TIP3   OH265566   4.266   2.445   6.498  0.6718 -0.1770 -0.0726
14692TIP3    H165567   4.284   2.356   6.470 -1.1533 -0.4596 -0.4699
14692TIP3    H265568   4.177   2.463   6.468 -0.0723  0.7710  2.4052
14693TIP3   OH265569   0.819   3.511   2.060 -0.0124  0.2747 -0.0025
14693TIP3    H165570   0.839   3.476   2.147 -1.7517 -2.2027 -0.4752
14693TIP3    H265571   0.903   3.543   2.026  0.7159  1.2523  2.5021
14694TIP3   OH265572   3.042   0.696  16.260 -0.2243  0.2435  0.6293
14694TIP3    H165573   3.105   0.767  16.253  0.0152 -0.0393 -0.1631
14694TIP3    H265574   3.061   0.639  16.185 -0.9596 -0.2096  0.7742
14695TIP3   OH265575   0.577   5.598  15.495 -0.3681 -0.0488  0.0769
14695TIP3    H165576   0.632   5.585  15.418 -0.1803  0.2083  0.1652
14695TIP3    H265577   0.625   5.662  15.548  0.2477 -1.3628  1.1427
14696TIP3   OH265578   5.713   5.936  11.306  0.2606  0.3113 -0.2781
14696TIP3    H165579   5.694   5.877  11.379 -0.8079 -1.5399 -1.9578
14696TIP3    H265580   5.808   5.942  11.304  0.4339 -1.8931 -0.4347
14697TIP3   OH265581   2.497   4.158  14.372 -0.4408 -0.0206 -0.3352
14697TIP3    H165582   2.557   4.221  14.331  0.0280 -0.8490 -0.9388
14697TIP3    H265583   2.554   4.094  14.414 -0.8859 -0.8082 -0.9036
14698TIP3   OH265584   4.014   5.399  12.189 -0.9030  0.4504  0.2865
14698TIP3    H165585   3.969   5.315  12.178 -1.0330  0.3348  1.5823
14698TIP3    H265586   3.959   5.448  12.250  0.0212  0.8414  0.8210
14699TIP3   OH265587   1.554   2.986   3.747  0.7285 -0.3727 -0.6233
14699TIP3    H165588   1.601   2.930   3.809 -0.2264  0.8379  1.3188
14699TIP3    H265589   1.537   2.930   3.671  2.8939 -1.6046 -0.2672
14700TIP3   OH265590   4.500   4.416   5.152  0.1008 -0.2697 -0.0461
14700TIP3    H165591   4.405   4.404   5.159  0.2624 -1.9051 -0.3625
14700TIP3    H265592   4.520   4.482   5.218 -1.2075 -0.1619  0.2781
14701TIP3   OH265593   3.656   4.099   2.278 -0.1232 -0.2574 -0.5129
14701TIP3    H165594   3.598   4.139   2.213 -0.7812 -1.9679 -1.0413
14701TIP3    H265595   3.694   4.024   2.232  1.6363  0.1543  0.2002
14702TIP3   OH265596   4.846   0.759   4.555 -0.4217  0.2183 -0.1994
14702TIP3    H165597   4.759   0.797   4.571 -0.3161  0.5576 -0.4258
14702TIP3    H265598   4.881   0.809   4.482  0.4882  0.9405  0.7043
14703TIP3   OH265599   3.595   4.410   0.629 -0.3869 -0.3116  0.0524
14703TIP3    H165600   3.569   4.340   0.570 -0.3044 -0.3766  0.0929
14703TIP3    H265601   3.595   4.489   0.574  0.6563 -0.5314 -0.2852
14704TIP3   OH265602   4.344   4.990  11.277 -0.2164 -0.4389 -0.1893
14704TIP3    H165603   4.322   4.930  11.348  1.6175 -0.6718  0.2437
14704TIP3    H265604   4.280   4.970  11.208 -1.0841 -1.2666  0.8151
14705TIP3   OH265605   1.674   3.118  16.030 -0.0620 -0.5908 -0.0308
14705TIP3    H165606   1.592   3.165  16.041  0.8894  0.7144  2.1887
14705TIP3    H265607   1.650   3.026  16.038 -1.6354 -0.4666 -2.2132
14706TIP3   OH265608   0.565   6.457   0.394  0.1101  0.1674 -0.0454
14706TIP3    H165609   0.493   6.394   0.386  1.0851 -1.0206  0.3594
14706TIP3    H265610   0.622   6.421   0.461  2.1305  0.0611 -1.7263
14707TIP3   OH265611   3.890   1.107  13.667 -0.7370  0.2762  0.0420
14707TIP3    H165612   3.883   1.045  13.595 -2.8556  0.8784 -0.3520
14707TIP3    H265613   3.965   1.162  13.645 -0.8026 -0.1204 -1.2482
14708TIP3   OH265614   4.858   5.160  10.905  0.1201  0.5222 -0.0943
14708TIP3    H165615   4.953   5.170  10.912  0.3552 -1.3232 -0.1534
14708TIP3    H265616   4.846   5.081  10.853 -1.4265  0.0052  0.9751
14709TIP3   OH265617   5.572   3.701   0.754  0.4144 -0.1712 -0.2608
14709TIP3    H165618   5.624   3.627   0.723  0.6762  0.8997 -2.5998
14709TIP3    H265619   5.498   3.705   0.693  0.5645  1.6436 -0.3745
14710TIP3   OH265620   0.681   2.287   2.744  0.2538 -0.3256  0.0906
14710TIP3    H165621   0.613   2.256   2.684  0.5068 -1.6219  0.4426
14710TIP3    H265622   0.713   2.207   2.786  0.2152  0.5313  1.8199
14711TIP3   OH265623   0.775   6.138   0.389 -0.1411  0.4551 -0.0975
14711TIP3    H165624   0.684   6.153   0.415 -0.1213 -0.7681  0.7512
14711TIP3    H265625   0.824   6.134   0.471  0.3453 -0.8708 -0.4117
14712TIP3   OH265626   6.694   0.611  11.297  0.0982 -0.2081 -0.4603
14712TIP3    H165627   6.767   0.651  11.344 -0.0902  1.1293 -1.2629
14712TIP3    H265628   6.729   0.591  11.210 -0.5595  0.7016 -0.9422
14713TIP3   OH265629   0.413   5.406  17.262 -0.3523  0.0296 -0.0270
14713TIP3    H165630   0.424   5.421  17.169  1.0890  3.1021  0.5167
14713TIP3    H265631   0.502   5.398  17.296 -0.8058  0.0879  1.2415
14714TIP3   OH265632   2.746   3.989  12.157  0.0594  0.0158 -0.8618
14714TIP3    H165633   2.686   3.999  12.083 -0.4709 -0.6185 -0.5325
14714TIP3    H265634   2.733   4.068  12.209 -1.2406 -0.5236 -0.2890
14715TIP3   OH265635   5.469   3.731   4.562  0.2790 -0.0629  0.4996
14715TIP3    H165636   5.548   3.687   4.595  1.6248  2.4744  0.9235
14715TIP3    H265637   5.415   3.746   4.639  0.0885 -0.4319  0.4403
14716TIP3   OH265638   0.310   2.948   3.343 -0.0924  0.1672 -0.0099
14716TIP3    H165639   0.280   3.040   3.345  1.7450  0.8633 -1.7917
14716TIP3    H265640   0.336   2.933   3.252  2.0712 -1.3038  0.7780
14717TIP3   OH265641   2.492   4.395   0.008 -0.0103 -0.1833 -0.3538
14717TIP3    H165642   2.482   4.480  -0.035 -0.8904 -0.6686 -1.1520
14717TIP3    H265643   2.426   4.395   0.077 -0.7097 -0.6007 -1.0088
14718TIP3   OH265644   0.173   6.359  14.877  0.2860 -0.3422 -0.2148
14718TIP3    H165645   0.144   6.425  14.815  1.2484 -0.3194 -0.6575
14718TIP3    H265646   0.154   6.276  14.834 -1.0784 -0.3835  0.4120
14719TIP3   OH265647   1.522   1.615   2.758  0.5521 -0.3790  0.3691
14719TIP3    H165648   1.515   1.707   2.735  0.9875 -0.5233 -0.3721
14719TIP3    H265649   1.616   1.601   2.773  0.3638 -0.4563  1.5558
14720TIP3   OH265650   6.044   2.616   3.551 -0.4174 -0.0456  0.1184
14720TIP3    H165651   6.092   2.627   3.633 -0.5276  1.4353  0.0012
14720TIP3    H265652   6.099   2.559   3.498  0.6950  0.7468  0.4002
14721TIP3   OH265653   3.110   5.095  13.364  0.6204  0.1996  1.0694
14721TIP3    H165654   3.055   5.020  13.385  1.1919 -0.1935  1.1632
14721TIP3    H265655   3.197   5.059  13.349  1.0848  0.9235  1.9073
14722TIP3   OH265656   2.745   5.280   5.720  0.1215 -0.8145 -0.3380
14722TIP3    H165657   2.759   5.228   5.641  1.1514 -3.1167  1.2448
14722TIP3    H265658   2.830   5.280   5.764 -0.6598 -0.4327  1.2541
14723TIP3   OH265659   1.207   6.579   5.063  0.1145  0.2523  0.0728
14723TIP3    H165660   1.251   6.589   5.147  1.4838  0.3721 -0.6357
14723TIP3    H265661   1.263   6.625   5.000 -0.5738 -0.3178 -1.0014
14724TIP3   OH265662   1.397   4.809  16.500 -0.4126 -0.4368 -0.1883
14724TIP3    H165663   1.371   4.900  16.487  1.5183  0.3531  0.9959
14724TIP3    H265664   1.345   4.779  16.575  1.3915  0.8751  1.6835
14725TIP3   OH265665   3.435   5.817  14.127 -0.1600 -0.5178  0.8714
14725TIP3    H165666   3.459   5.909  14.121  0.6499 -0.7543  0.4285
14725TIP3    H265667   3.447   5.794  14.219  1.6190 -0.7105  0.6087
14726TIP3   OH265668   4.185   1.202   2.132  0.9604 -0.1227 -0.0121
14726TIP3    H165669   4.279   1.196   2.149  0.9687 -0.7222 -0.2441
14726TIP3    H265670   4.178   1.267   2.062  1.3090 -0.9291 -0.8151
14727TIP3   OH265671   0.061   5.854  14.630  0.1049  0.2607  0.3893
14727TIP3    H165672   0.154   5.877  14.635  0.1100  0.0435  1.6279
14727TIP3    H265673   0.051   5.782  14.692 -0.4417 -1.3216 -1.4067
14728TIP3   OH265674   0.225   0.940  12.945 -0.1810  0.2177 -0.0892
14728TIP3    H165675   0.259   0.861  12.903 -1.4098 -0.1785 -0.3925
14728TIP3    H265676   0.302   0.995  12.959  0.5790 -0.6630 -0.6686
14729TIP3   OH265677   5.983   3.771   6.431  0.3737  0.0052  0.1611
14729TIP3    H165678   6.040   3.699   6.458  1.1854 -0.2231 -1.9588
14729TIP3    H265679   5.898   3.751   6.471  0.6092 -2.0740 -0.2528
14730TIP3   OH265680   3.197   3.666  12.260  0.1744  0.9872 -0.0928
14730TIP3    H165681   3.164   3.585  12.297 -0.3384  0.7658 -0.9994
14730TIP3    H265682   3.161   3.668  12.171  2.7748  0.6218 -1.2361
14731TIP3   OH265683   6.716   6.040  12.891 -0.1683 -0.0696  0.0185
14731TIP3    H165684   6.670   6.098  12.952 -0.7358  1.4526 -1.7913
14731TIP3    H265685   6.799   6.083  12.875 -0.8245  0.5987 -1.7792
14732TIP3   OH265686   6.649   5.103  16.056 -0.1233 -0.4725  0.1340
14732TIP3    H165687   6.714   5.113  15.987 -0.2972 -0.3550 -0.0124
14732TIP3    H265688   6.588   5.038  16.023 -0.5125 -0.0113 -0.0523
14733TIP3   OH265689   5.995   1.360  12.243 -1.1038  0.0608 -0.2496
14733TIP3    H165690   5.971   1.443  12.201 -1.1912  1.3829  2.2093
14733TIP3    H265691   6.049   1.387  12.318 -1.2757 -2.1093  0.7158
14734TIP3   OH265692   3.637   3.853  10.845  0.2316  0.0931  0.1114
14734TIP3    H165693   3.721   3.810  10.827  0.5255  0.3027  0.9425
14734TIP3    H265694   3.571   3.791  10.815  0.5569 -1.8893  3.1074
14735TIP3   OH265695   0.146   5.945   5.442  0.4576 -0.2616  0.9562
14735TIP3    H165696   0.130   5.905   5.527  2.4654 -0.4135  1.3186
14735TIP3    H265697   0.160   6.038   5.462 -0.5750 -0.0207  0.5871
14736TIP3   OH265698   3.863   1.108  13.197  0.1185  0.2061 -0.9242
14736TIP3    H165699   3.832   1.080  13.111 -1.2296  0.3357 -0.5072
14736TIP3    H265700   3.860   1.204  13.194  1.4814  0.2482 -1.2175
14737TIP3   OH265701   5.059   2.981  16.731 -0.0988  0.2594  0.2613
14737TIP3    H165702   4.972   2.969  16.767 -0.4489  0.9679 -0.3294
14737TIP3    H265703   5.097   2.893  16.730 -0.7452 -0.0290  0.6529
14738TIP3   OH265704   3.796   2.591  16.192  0.2524  0.4205  0.0549
14738TIP3    H165705   3.753   2.565  16.273  1.1469 -1.0536  0.0825
14738TIP3    H265706   3.790   2.687  16.191 -0.9466  0.3803  1.1800
14739TIP3   OH265707   3.340   0.409   3.423  0.9809  0.1539  0.3285
14739TIP3    H165708   3.385   0.479   3.375 -2.5626  1.9205 -0.7609
14739TIP3    H265709   3.360   0.329   3.375  0.1530  1.4188 -2.3005
14740TIP3   OH265710   6.073   1.242   5.830  0.2935 -0.4727 -0.1157
14740TIP3    H165711   6.035   1.155   5.817 -1.2664  0.3318 -1.2889
14740TIP3    H265712   6.166   1.225   5.847  0.2178 -2.3041 -1.2344
14741TIP3   OH265713   3.593   5.365   0.728  0.4886 -0.3246 -0.2468
14741TIP3    H165714   3.623   5.436   0.785 -1.2956  0.3958 -0.1602
14741TIP3    H265715   3.618   5.285   0.775  0.7948  0.2535  0.5985
14742TIP3   OH265716   3.314   5.422   5.600  0.0980  0.5017  0.2515
14742TIP3    H165717   3.312   5.510   5.563  2.0247 -0.0254 -1.2336
14742TIP3    H265718   3.382   5.425   5.667 -1.0013  0.5369  1.4143
14743TIP3   OH265719   3.359   1.477  13.130 -0.0842 -0.0325  0.4050
14743TIP3    H165720   3.395   1.511  13.048 -0.1752  1.2972  0.8788
14743TIP3    H265721   3.310   1.399  13.105 -0.4410  0.5708 -0.8850
14744TIP3   OH265722   1.764   5.794  12.808  0.4037  0.4879 -0.3225
14744TIP3    H165723   1.737   5.845  12.731  1.3903 -0.5624 -1.4049
14744TIP3    H265724   1.683   5.761  12.845 -0.0281  0.0486 -1.6131
14745TIP3   OH265725   3.105   0.081   5.431 -0.3184 -0.8389 -0.5475
14745TIP3    H165726   3.078   0.154   5.487 -0.4991  0.8160 -2.6265
14745TIP3    H265727   3.117   0.007   5.490  0.3301  0.9928  1.7503
14746TIP3   OH265728   0.521   6.155  16.343 -0.1388  0.1927 -0.0559
14746TIP3    H165729   0.595   6.148  16.283  0.4445  1.4522  0.4587
14746TIP3    H265730   0.479   6.238  16.320  0.2727  0.8591  1.4085
14747TIP3   OH265731   0.604   6.115  15.270 -0.6363 -0.3740  0.1219
14747TIP3    H165732   0.597   6.208  15.293  1.5167 -0.3541  0.8578
14747TIP3    H265733   0.588   6.113  15.175 -0.0642  0.8338 -0.0168
14748TIP3   OH265734   6.800   1.249  11.013 -0.2564  0.0192  1.1273
14748TIP3    H165735   6.800   1.175  11.074  0.8201 -1.6642 -0.7843
14748TIP3    H265736   6.874   1.302  11.039  1.4485 -1.7672  0.1585
14749TIP3   OH265737   3.415   4.706  16.749  0.2601 -0.2200 -0.0287
14749TIP3    H165738   3.396   4.720  16.656  0.4094 -1.0781 -0.2014
14749TIP3    H265739   3.504   4.737  16.760  0.3287 -0.3389 -0.2316
14750TIP3   OH265740   6.296   1.985  13.490 -0.6483 -0.8454 -0.4127
14750TIP3    H165741   6.359   1.914  13.479  0.9935  0.5835 -0.6628
14750TIP3    H265742   6.335   2.043  13.554 -0.6063  1.2108 -2.1773
14751TIP3   OH265743   3.018   4.747  15.375 -0.3902  0.6610  0.6105
14751TIP3    H165744   2.968   4.665  15.381 -0.6651  0.8548  1.0428
14751TIP3    H265745   3.085   4.729  15.309 -0.2261 -0.0371  0.9501
14752TIP3   OH265746   2.340   4.789   2.785  0.0015  0.1104 -0.0729
14752TIP3    H165747   2.400   4.729   2.741  0.5344  0.0284  0.7350
14752TIP3    H265748   2.254   4.767   2.749  0.4217  0.1260 -1.1386
14753TIP3   OH265749   5.147   4.266   3.736  0.7488  0.5021 -0.3235
14753TIP3    H165750   5.182   4.302   3.818 -0.7896  0.3421  0.4261
14753TIP3    H265751   5.096   4.190   3.762 -1.3092  1.5096 -1.1942
14754TIP3   OH265752   2.141   5.505  11.313  0.5074  0.4456  0.2910
14754TIP3    H165753   2.184   5.467  11.237  1.4242  0.4688  0.7929
14754TIP3    H265754   2.150   5.600  11.301  0.8882  0.4450  0.5573
14755TIP3   OH265755   2.513   4.726  14.747  0.1316  0.5971  0.0579
14755TIP3    H165756   2.448   4.770  14.692  0.1977 -1.5975 -1.9261
14755TIP3    H265757   2.461   4.681  14.814 -0.0880  1.7909  0.7101
14756TIP3   OH265758   6.089   3.653  16.680  0.8495 -0.0296 -0.4516
14756TIP3    H165759   6.116   3.610  16.761  0.9232  0.5770 -0.1466
14756TIP3    H265760   6.009   3.701  16.704  0.8361  0.1008 -0.7539
14757TIP3   OH265761   6.507   5.836  12.844 -0.4933 -0.1788 -0.6221
14757TIP3    H165762   6.455   5.838  12.763  0.0834 -0.0226 -0.9885
14757TIP3    H265763   6.581   5.894  12.827 -0.3278 -0.1990 -0.0022
14758TIP3   OH265764   6.007   0.301  12.530 -0.0879  0.8487  0.2376
14758TIP3    H165765   6.030   0.249  12.607  1.3317  2.5495  1.0316
14758TIP3    H265766   5.941   0.249  12.485  0.6917 -1.2568  1.3866
14759TIP3   OH265767   2.380   3.121  16.854  0.0407 -0.0161  1.0187
14759TIP3    H165768   2.471   3.111  16.884  0.2628 -1.2518  0.0246
14759TIP3    H265769   2.377   3.075  16.770 -1.4474  0.2343  0.9042
14760TIP3   OH265770   3.056   5.671   6.824  0.2169 -0.1615 -0.2597
14760TIP3    H165771   3.055   5.575   6.816  2.5645 -0.2026 -0.7068
14760TIP3    H265772   3.136   5.698   6.779  0.7916  1.8127  1.7851
14761TIP3   OH265773   4.437   3.278  13.866  0.1113 -0.2905  0.5763
14761TIP3    H165774   4.482   3.295  13.949  1.3801 -0.8397  0.0103
14761TIP3    H265775   4.388   3.358  13.849  1.3370  0.5534  0.9158
14762TIP3   OH265776   1.376   1.826   5.540 -0.4162 -0.5765 -0.0748
14762TIP3    H165777   1.317   1.866   5.476  0.1219  0.4655  0.0695
14762TIP3    H265778   1.462   1.829   5.500 -0.3112 -1.3487  0.0618
14763TIP3   OH265779   3.813   2.323  14.555  0.7492  0.4940  0.6773
14763TIP3    H165780   3.898   2.368  14.551  0.8681  0.3851  1.7513
14763TIP3    H265781   3.833   2.232  14.533  0.8229  0.5655  0.4392
14764TIP3   OH265782   2.185   5.914  12.503 -0.1514 -0.0662 -0.2307
14764TIP3    H165783   2.267   5.904  12.552 -0.1540 -0.8181 -0.3706
14764TIP3    H265784   2.204   5.982  12.438  0.2908 -0.0881 -0.1262
14765TIP3   OH265785   1.777   1.594  15.190 -0.0891  0.7420  0.5638
14765TIP3    H165786   1.799   1.515  15.238  0.1464  1.4453  1.6354
14765TIP3    H265787   1.807   1.666  15.245 -0.6425  1.5967 -0.2089
14766TIP3   OH265788   2.251   6.383   4.918  0.3700 -0.4891  0.0108
14766TIP3    H165789   2.171   6.348   4.878 -0.1813  0.2748  0.4184
14766TIP3    H265790   2.237   6.374   5.012  1.2892 -1.4666  0.0661
14767TIP3   OH265791   1.449   1.968  11.240  0.1023  0.1063 -0.6752
14767TIP3    H165792   1.535   1.950  11.278 -0.9891 -0.3916  1.7479
14767TIP3    H265793   1.408   1.881  11.231 -0.7576  0.4415 -0.1579
14768TIP3   OH265794   2.940   2.568  16.686  0.0109  0.1082 -0.3487
14768TIP3    H165795   3.012   2.551  16.747  0.7204  2.8058 -0.3304
14768TIP3    H265796   2.880   2.495  16.700  1.6873 -1.0769  1.2061
14769TIP3   OH265797   1.412   2.954  14.235  0.0649 -0.2798 -0.1668
14769TIP3    H165798   1.381   3.034  14.192  1.4302  0.1682 -0.3564
14769TIP3    H265799   1.429   2.981  14.326  0.4393 -0.3740 -0.2090
14770TIP3   OH265800   3.145   2.904   4.655  0.3702  0.1615  0.2827
14770TIP3    H165801   3.205   2.978   4.655 -0.3541  0.7619 -0.1808
14770TIP3    H265802   3.116   2.896   4.746  1.3898 -0.3440  0.5750
14771TIP3   OH265803   3.331   1.094   0.039  0.3416  0.4133  0.1331
14771TIP3    H165804   3.359   1.181   0.011  0.1794  0.8615  1.3076
14771TIP3    H265805   3.242   1.107   0.073 -0.1186 -0.4245 -0.7196
14772TIP3   OH265806   1.639   1.237  11.825 -0.0986 -0.2198  0.1000
14772TIP3    H165807   1.640   1.142  11.830  0.4227 -0.2082  0.3292
14772TIP3    H265808   1.682   1.265  11.906 -0.1628  0.2051 -0.0122
14773TIP3   OH265809   0.900   4.470   5.507 -0.1316  0.0437 -0.7598
14773TIP3    H165810   0.953   4.549   5.520 -2.1618  1.4453 -0.5064
14773TIP3    H265811   0.891   4.462   5.412 -2.8989  2.3520 -0.8229
14774TIP3   OH265812   4.585   3.264  13.204  0.5356  0.1730  0.4302
14774TIP3    H165813   4.568   3.183  13.252 -2.4937  0.3136 -0.1970
14774TIP3    H265814   4.512   3.321  13.227  1.7971  2.1834 -0.3314
14775TIP3   OH265815   2.567   0.338  12.766  0.4056  0.7613 -0.2980
14775TIP3    H165816   2.575   0.249  12.802 -0.6800  0.5066 -0.6381
14775TIP3    H265817   2.537   0.324  12.676 -3.1641  1.4909  0.6288
14776TIP3   OH265818   5.399   1.921   4.336  0.0638  0.5624 -0.4764
14776TIP3    H165819   5.467   1.967   4.287 -1.1316  3.2590  0.2029
14776TIP3    H265820   5.446   1.864   4.396  1.6360  0.4465 -1.7659
14777TIP3   OH265821   1.205   2.376   0.479  0.2024 -0.0213  0.0649
14777TIP3    H165822   1.239   2.307   0.536 -1.8160 -1.2809 -0.1767
14777TIP3    H265823   1.149   2.330   0.416 -0.3243  1.7186 -0.7917
14778TIP3   OH265824   2.533   0.127   1.966  0.5131  0.7689 -0.4186
14778TIP3    H165825   2.496   0.137   2.053 -2.0604  0.8427 -1.4299
14778TIP3    H265826   2.579   0.043   1.968  0.2033  0.6145  0.8988
14779TIP3   OH265827   0.753   2.676  15.992  0.5624  0.1584  0.2044
14779TIP3    H165828   0.766   2.584  15.967 -1.1170 -0.3067  0.8896
14779TIP3    H265829   0.785   2.681  16.082  1.2576  0.4157 -0.0529
14780TIP3   OH265830   1.739   0.418   4.933  0.6889 -0.6183 -0.1003
14780TIP3    H165831   1.740   0.361   4.857  0.3790  1.1163 -1.4625
14780TIP3    H265832   1.831   0.430   4.956  1.0907  1.6920 -2.5011
14781TIP3   OH265833   5.309   5.456  16.123  0.1026 -0.3108  0.1935
14781TIP3    H165834   5.219   5.491  16.120  0.5627  0.8651 -1.9657
14781TIP3    H265835   5.307   5.391  16.194 -2.4937 -0.4417  0.1062
14782TIP3   OH265836   6.754   3.046  15.844  0.2152 -0.5830  0.0879
14782TIP3    H165837   6.782   3.033  15.934 -0.2658  1.8743  0.6732
14782TIP3    H265838   6.665   3.082  15.851  0.2161 -0.2263 -1.3454
14783TIP3   OH265839   2.797   4.608   5.760 -0.0613  0.1567  0.5192
14783TIP3    H165840   2.721   4.666   5.757 -0.1789  0.0255  0.8390
14783TIP3    H265841   2.791   4.566   5.846 -0.0523 -0.4246  0.2405
14784TIP3   OH265842   2.897   4.782  16.442 -0.6251 -0.7641 -0.1311
14784TIP3    H165843   2.843   4.703  16.432 -0.4690 -0.6814 -2.1535
14784TIP3    H265844   2.907   4.792  16.536 -1.5407 -2.5545  0.2182
14785TIP3   OH265845   4.409   2.072  15.336 -0.0825  0.0868 -0.3007
14785TIP3    H165846   4.386   2.165  15.334  0.1366  0.1317 -0.8901
14785TIP3    H265847   4.414   2.051  15.429 -1.4617  0.3239 -0.1512
14786TIP3   OH265848   5.303   2.734  11.584 -0.2928  0.3174 -0.5255
14786TIP3    H165849   5.278   2.826  11.592  0.0308  0.6547 -2.6638
14786TIP3    H265850   5.264   2.707  11.501  0.8419 -1.0588 -0.6368
14787TIP3   OH265851   0.401   0.566  14.017 -0.3162 -0.0758 -0.4895
14787TIP3    H165852   0.467   0.498  14.009  0.8360  0.5203  2.5204
14787TIP3    H265853   0.323   0.530  13.976  1.0111 -2.0489 -1.4061
14788TIP3   OH265854   4.736   4.411   4.008 -0.2464 -0.3310 -0.3310
14788TIP3    H165855   4.819   4.364   4.013  0.2910  0.6717  0.6057
14788TIP3    H265856   4.674   4.347   3.974  1.1458 -0.7459 -2.2276
14789TIP3   OH265857   6.641   5.458  14.271 -0.1038  0.2787  0.0922
14789TIP3    H165858   6.715   5.398  14.273 -0.8188 -0.7201 -1.4504
14789TIP3    H265859   6.669   5.528  14.212  0.5161  1.2020  1.4471
14790TIP3   OH265860   6.296   3.793   4.533  0.1237  0.4067 -0.3047
14790TIP3    H165861   6.253   3.878   4.542  0.4103  0.4070  1.4384
14790TIP3    H265862   6.238   3.742   4.477 -0.1772  1.6570 -1.1704
14791TIP3   OH265863   1.862   3.855  16.418  0.0168 -0.1598 -0.3474
14791TIP3    H165864   1.891   3.795  16.349  2.0032  1.9988 -1.5429
14791TIP3    H265865   1.777   3.887  16.387 -0.2356 -1.0083 -0.5661
14792TIP3   OH265866   3.601   2.299   5.169  0.5424  0.0607 -0.3142
14792TIP3    H165867   3.643   2.250   5.098  0.9255  0.6903 -0.5315
14792TIP3    H265868   3.538   2.356   5.124 -1.0044 -1.2904  0.0449
14793TIP3   OH265869   4.830   1.204   0.374  0.4534  0.2394  0.3159
14793TIP3    H165870   4.760   1.148   0.342  0.6118 -0.0412  0.4611
14793TIP3    H265871   4.834   1.276   0.311  0.0488  0.2447  0.2974
14794TIP3   OH265872   4.403   0.514  11.925  0.2523  0.1548  0.2467
14794TIP3    H165873   4.329   0.574  11.926 -0.7684 -1.0547  1.3631
14794TIP3    H265874   4.411   0.485  12.016  1.2202 -0.7732 -0.1211
14795TIP3   OH265875   6.786   0.093   3.996  0.0135  0.1474  0.1676
14795TIP3    H165876   6.779  -0.002   3.983  0.5547  0.3713 -2.1929
14795TIP3    H265877   6.697   0.120   4.019  0.0107 -1.0092  1.6353
14796TIP3   OH265878   1.471   6.544   1.790 -0.2951 -0.2737  0.2617
14796TIP3    H165879   1.501   6.630   1.819 -0.7123  0.3463 -1.0496
14796TIP3    H265880   1.545   6.509   1.740 -0.8474  0.2091 -0.9165
14797TIP3   OH265881   1.708   5.441  16.722  0.4491 -0.1155 -0.0262
14797TIP3    H165882   1.799   5.418  16.737  1.0874  1.2613 -1.5153
14797TIP3    H265883   1.706   5.481  16.635 -1.3119  1.1816  0.5296
14798TIP3   OH265884   0.822   4.424   3.160  0.7969 -0.3028  0.3651
14798TIP3    H165885   0.748   4.390   3.210 -0.1110 -1.8972 -1.9139
14798TIP3    H265886   0.790   4.506   3.124  0.6006 -0.3583  0.4116
14799TIP3   OH265887   1.687   5.567  16.307  0.2640  0.4492 -0.3104
14799TIP3    H165888   1.750   5.599  16.372  1.0984 -0.1333 -0.8181
14799TIP3    H265889   1.696   5.629  16.234 -1.9355  2.1735  0.7468
14800TIP3   OH265890   2.455   4.300  11.250 -0.0542 -0.1625  0.4491
14800TIP3    H165891   2.460   4.395  11.248  0.5843 -0.1975  0.1771
14800TIP3    H265892   2.482   4.276  11.339  1.2270 -0.1538  0.0866
14801TIP3   OH265893   5.678   2.892  11.907  0.2392  0.0110 -0.3710
14801TIP3    H165894   5.737   2.903  11.832  0.6367  0.1158 -0.0414
14801TIP3    H265895   5.591   2.882  11.867  0.5608 -0.8491 -0.8995
14802TIP3   OH265896   6.359   4.997  17.311 -0.1400  0.1481  0.6532
14802TIP3    H165897   6.272   5.003  17.352 -0.7195 -2.3507 -0.0294
14802TIP3    H265898   6.420   5.021  17.380 -1.2785 -0.0865  1.7762
14803TIP3   OH265899   0.787   1.582   6.160  0.5907  0.5348  0.1797
14803TIP3    H165900   0.699   1.549   6.140  1.5745 -2.7321  0.6846
14803TIP3    H265901   0.773   1.646   6.231 -1.2663 -1.0520  1.3423
14804TIP3   OH265902   3.992   3.798  16.687  0.0066 -0.5707 -0.3319
14804TIP3    H165903   4.038   3.721  16.656  0.0924 -0.7134  0.1469
14804TIP3    H265904   3.933   3.821  16.615  1.9025  0.5412 -1.6073
14805TIP3   OH265905   4.091   3.619  15.114  0.2125  0.2119 -0.2930
14805TIP3    H165906   4.118   3.585  15.199  1.2520  1.5097 -0.0758
14805TIP3    H265907   4.164   3.673  15.084  0.0788 -0.5776 -2.2545
14806TIP3   OH265908   3.488   3.567  11.244 -0.1485  0.2141 -0.3123
14806TIP3    H165909   3.458   3.629  11.310 -1.1810 -0.3070 -0.2776
14806TIP3    H265910   3.458   3.603  11.161 -0.3628 -0.0086 -0.3331
14807TIP3   OH265911   6.703   4.761   4.986 -0.5329  0.6088 -0.1859
14807TIP3    H165912   6.798   4.773   4.988 -0.4603  0.1554 -0.6546
14807TIP3    H265913   6.687   4.712   4.905 -1.2445  1.3264 -0.4832
14808TIP3   OH265914   4.961   2.235   5.749 -0.2476  0.1141 -0.6105
14808TIP3    H165915   5.006   2.220   5.667  1.0571 -0.1771  0.1290
14808TIP3    H265916   4.981   2.326   5.771 -0.2030  0.0540 -0.3960
14809TIP3   OH265917   3.612   4.103   5.272  0.0626  0.0172  0.0491
14809TIP3    H165918   3.516   4.098   5.275 -0.1007  2.3127  0.7454
14809TIP3    H265919   3.640   4.088   5.362  0.1682  1.3056  0.2581
14810TIP3   OH265920   0.133   2.168  15.070 -0.0486 -0.1142  0.1245
14810TIP3    H165921   0.085   2.137  15.146 -1.7909  0.6074 -0.6345
14810TIP3    H265922   0.199   2.227  15.105 -1.5692  1.1150  1.0152
14811TIP3   OH265923   5.840   4.503   3.819 -0.5576  0.2037  0.1520
14811TIP3    H165924   5.904   4.431   3.813 -1.8832 -0.9635 -0.5521
14811TIP3    H265925   5.893   4.582   3.809  0.8130 -0.7070 -0.1786
14812TIP3   OH265926   5.317   5.026   3.843  0.3448 -0.8599 -0.2410
14812TIP3    H165927   5.386   5.091   3.834  0.5250 -0.9335  0.5567
14812TIP3    H265928   5.308   5.012   3.937 -3.4302  2.0339  0.0667
14813TIP3   OH265929   2.832   0.717   0.571  0.2319 -0.5872 -0.0460
14813TIP3    H165930   2.910   0.692   0.619 -1.1187 -2.1602  1.4771
14813TIP3    H265931   2.801   0.796   0.615 -0.7759 -1.7958  1.5106
14814TIP3   OH265932   5.794   4.204  16.877 -0.0343  0.4065  0.0423
14814TIP3    H165933   5.860   4.266  16.907 -0.1586  0.2950  0.5523
14814TIP3    H265934   5.820   4.182  16.787  0.4748  0.5566  0.1525
14815TIP3   OH265935   6.757   1.534  11.855  0.3464 -0.5237  0.1798
14815TIP3    H165936   6.821   1.596  11.889  1.1786 -1.3499  0.1922
14815TIP3    H265937   6.797   1.500  11.774 -0.7261 -0.0175 -0.5883
14816TIP3   OH265938   5.730   0.177   3.182 -0.0062 -0.0472  0.2748
14816TIP3    H165939   5.686   0.220   3.108 -1.1141 -0.0174  0.9428
14816TIP3    H265940   5.815   0.221   3.187 -0.7358  1.4051  0.3317
14817TIP3   OH265941   1.876   6.509  15.353  0.3503 -0.8988  0.1946
14817TIP3    H165942   1.928   6.478  15.428  0.8534 -0.4936  0.0164
14817TIP3    H265943   1.821   6.434  15.329 -0.2948 -0.8377  1.3786
14818TIP3   OH265944   3.318   5.075  16.234 -0.6938  0.7890  0.0499
14818TIP3    H165945   3.387   5.127  16.194 -1.0576  0.5374 -0.9403
14818TIP3    H265946   3.308   4.999  16.176 -2.3504  1.2369 -0.3243
14819TIP3   OH265947   3.424   4.414  15.951  0.0514 -0.6961 -0.1238
14819TIP3    H165948   3.335   4.379  15.948 -0.2514  0.1004 -1.6368
14819TIP3    H265949   3.481   4.337  15.948 -0.4988 -1.3685  3.1189
14820TIP3   OH265950   4.217   1.450   4.558 -0.0148 -0.2185 -0.3585
14820TIP3    H165951   4.262   1.437   4.642 -0.3072 -0.0040 -0.1646
14820TIP3    H265952   4.222   1.365   4.515  0.5317 -0.2115 -0.3181
14821TIP3   OH265953   5.588   0.591  14.597 -0.5435 -0.0365  0.2042
14821TIP3    H165954   5.504   0.555  14.629 -0.3284  1.2610  2.4513
14821TIP3    H265955   5.565   0.675  14.559 -0.1750  0.9109  1.9748
14822TIP3   OH265956   2.671   0.123  11.573  0.1335  0.4708  0.0135
14822TIP3    H165957   2.587   0.094  11.536 -1.1605  0.7994  2.4391
14822TIP3    H265958   2.737   0.080  11.520 -1.5500  0.5556 -2.2964
14823TIP3   OH265959   1.861   4.484  10.591  0.1987  0.3811 -0.4624
14823TIP3    H165960   1.765   4.487  10.590  0.2114  2.3228 -1.8796
14823TIP3    H265961   1.882   4.398  10.626 -2.0765 -0.6869 -1.5330
14824TIP3   OH265962   5.114   1.717  13.386 -0.0278  0.0369 -0.5430
14824TIP3    H165963   5.093   1.802  13.346 -0.2247 -0.6194 -1.9164
14824TIP3    H265964   5.186   1.684  13.332  1.4117  0.1808  1.2072
14825TIP3   OH265965   5.972   0.177   6.248  0.0616 -0.2001  0.0050
14825TIP3    H165966   6.013   0.090   6.249  0.2148 -0.1571  2.0880
14825TIP3    H265967   6.024   0.228   6.310  0.4274  1.6364 -1.7135
14826TIP3   OH265968   4.572   3.328   3.282  0.4386 -0.6309 -0.5879
14826TIP3    H165969   4.660   3.306   3.252 -0.1620 -2.3168 -1.2064
14826TIP3    H265970   4.519   3.329   3.203 -0.1099  0.4272 -0.2249
14827TIP3   OH265971   1.265   3.268   3.821 -0.1122 -0.1647  0.1406
14827TIP3    H165972   1.261   3.336   3.888 -1.9742 -1.0616  1.0178
14827TIP3    H265973   1.174   3.255   3.793  0.4292 -0.9471 -1.4059
14828TIP3   OH265974   1.096   5.437  13.522 -0.1756  0.0193  0.4458
14828TIP3    H165975   1.036   5.366  13.549 -1.6286  1.5578  1.4848
14828TIP3    H265976   1.062   5.515  13.567  0.2687  1.7642 -2.0778
14829TIP3   OH265977   2.592   5.724   5.474 -0.1789 -0.2343 -0.0111
14829TIP3    H165978   2.527   5.775   5.523  0.6169  1.6274 -0.7864
14829TIP3    H265979   2.634   5.670   5.541 -0.1532  1.1154  1.1199
14830TIP3   OH265980   1.618   6.462  15.224 -0.1896  0.4841  0.4971
14830TIP3    H165981   1.582   6.385  15.268 -1.9918  0.4181 -0.9645
14830TIP3    H265982   1.570   6.536  15.261  0.1030  0.6901  0.4674
14831TIP3   OH265983   6.719   4.139   3.259  0.6158  0.3911  0.0756
14831TIP3    H165984   6.777   4.208   3.291  1.0264  0.3325 -0.5354
14831TIP3    H265985   6.733   4.137   3.165 -1.7729  1.6673 -0.3995
14832TIP3   OH265986   5.141   6.465   0.486  0.1451 -0.2795  0.6845
14832TIP3    H165987   5.133   6.483   0.579 -3.4446  2.0238  0.1007
14832TIP3    H265988   5.121   6.549   0.443 -0.4262 -1.7457 -2.1670
14833TIP3   OH265989   1.733   1.448  12.787  0.2486 -0.7026 -0.3109
14833TIP3    H165990   1.801   1.423  12.725  0.1140 -0.5727 -0.5096
14833TIP3    H265991   1.728   1.543  12.781 -0.3775 -0.7580 -0.7478
14834TIP3   OH265992   4.470   1.143  14.730  0.5182  0.1284 -0.0666
14834TIP3    H165993   4.445   1.131  14.822  0.4410 -0.8095 -0.2086
14834TIP3    H265994   4.503   1.233  14.727 -0.1862  0.4290  0.7175
14835TIP3   OH265995   5.056   4.928   2.252 -0.1801 -0.6851 -0.0052
14835TIP3    H165996   5.100   5.010   2.227  0.4860 -0.9407  0.3067
14835TIP3    H265997   5.071   4.921   2.347 -0.7712 -0.8590  0.0810
14836TIP3   OH265998   1.108   6.180  15.806  0.2779 -0.1130  0.3757
14836TIP3    H165999   1.125   6.157  15.897  0.4054 -2.3615 -0.1690
14836TIP3    H266000   1.042   6.250  15.811 -0.3265 -0.7551  2.1567
14837TIP3   OH266001   5.518   1.108   2.378 -0.1247 -0.1418  0.1988
14837TIP3    H166002   5.568   1.074   2.304  0.8251 -0.0208  0.7712
14837TIP3    H266003   5.557   1.193   2.396 -0.0428 -0.3658  1.1323
14838TIP3   OH266004   1.713   0.981   1.047 -0.1461 -0.2801  0.2556
14838TIP3    H166005   1.707   0.931   0.965 -1.4186  0.9294 -0.4398
14838TIP3    H266006   1.622   0.985   1.078  0.2706 -0.3725  1.5346
14839TIP3   OH266007   5.558   4.464   5.316  0.0022 -0.1030  0.7626
14839TIP3    H166008   5.570   4.491   5.225 -1.0556  1.6045  1.0764
14839TIP3    H266009   5.629   4.506   5.363 -0.2222  0.1288  0.9006
14840TIP3   OH266010   6.689   3.243   0.830 -0.2593  0.1156 -0.1578
14840TIP3    H166011   6.622   3.277   0.889 -1.5183 -0.3976 -1.2199
14840TIP3    H266012   6.747   3.317   0.814 -0.7081  0.6437  0.5983
14841TIP3   OH266013   0.859   6.362  11.039 -0.1044  0.2664  0.5340
14841TIP3    H166014   0.912   6.441  11.052 -2.7981  2.0192  1.6389
14841TIP3    H266015   0.777   6.394  11.002 -0.3423 -2.3789 -1.5391
14842TIP3   OH266016   4.088   1.060   5.950 -0.3254  0.2552 -0.1765
14842TIP3    H166017   4.130   1.081   5.866 -1.0905 -0.1419 -0.6760
14842TIP3    H266018   4.008   1.113   5.950 -0.6603 -0.2413 -0.0078
14843TIP3   OH266019   4.671   6.627  12.700  0.3181  0.4832 -0.2051
14843TIP3    H166020   4.740   6.671  12.650 -0.4016  1.9926  0.0729
14843TIP3    H266021   4.698   6.634  12.791 -0.7245  2.1113  0.0081
14844TIP3   OH266022   4.703   3.944   3.239  0.5505  0.2536  0.1711
14844TIP3    H166023   4.796   3.931   3.219  0.1473 -1.5949 -0.7153
14844TIP3    H266024   4.657   3.893   3.172 -1.0376 -0.7976  1.9596
14845TIP3   OH266025   1.506   5.558   1.795 -0.3098  0.0045  0.6185
14845TIP3    H166026   1.510   5.653   1.783  1.3081 -0.3042 -2.1097
14845TIP3    H266027   1.452   5.527   1.722  0.1362 -1.2601  0.7981
14846TIP3   OH266028   0.790   6.180   1.069  0.0442 -0.3089  0.0499
14846TIP3    H166029   0.851   6.186   0.995 -0.7262 -2.1003 -0.8096
14846TIP3    H266030   0.708   6.150   1.030 -1.4624  2.0487  1.1754
14847TIP3   OH266031   1.302   0.767  12.924 -0.1378  0.1390 -0.8885
14847TIP3    H166032   1.323   0.681  12.960  0.1221  0.6212  0.1543
14847TIP3    H266033   1.370   0.784  12.859  0.2836 -0.0904 -0.5079
14848TIP3   OH266034   5.079   1.503   4.963 -0.3707 -0.0321  0.0746
14848TIP3    H166035   5.175   1.507   4.968 -0.2184  0.7091 -2.2316
14848TIP3    H266036   5.049   1.546   5.043  1.2416  0.8990  0.2203
14849TIP3   OH266037   5.078   2.656  15.679  0.0601  0.5434  0.0370
14849TIP3    H166038   4.994   2.617  15.657 -0.2574  1.5751 -0.6770
14849TIP3    H266039   5.060   2.750  15.686  1.0345  0.7139  0.4643
14850TIP3   OH266040   1.265   2.621  16.479 -0.4722 -0.2502  0.0786
14850TIP3    H166041   1.192   2.627  16.541  0.3349 -1.4822  1.1961
14850TIP3    H266042   1.260   2.531  16.446  1.8220 -1.1435  1.8853
14851TIP3   OH266043   6.409   3.641  17.079  0.5195 -0.1914 -0.0845
14851TIP3    H166044   6.414   3.550  17.048  0.2636 -0.3914  0.4471
14851TIP3    H266045   6.315   3.658  17.087  0.2227  1.6153 -4.4430
14852TIP3   OH266046   4.372   4.564   3.790  0.5233  0.7965 -0.1031
14852TIP3    H166047   4.319   4.644   3.796 -1.9086 -0.8014  1.8464
14852TIP3    H266048   4.454   4.586   3.834 -0.6296  1.9024  1.6292
14853TIP3   OH266049   4.762   5.351  15.322  0.2897  0.8062 -0.1312
14853TIP3    H166050   4.854   5.365  15.304  0.0816  0.2345 -1.7790
14853TIP3    H266051   4.743   5.265  15.286 -0.6766  0.4629  1.0892
14854TIP3   OH266052   1.997   5.009   4.384 -0.4410 -0.5298 -0.0590
14854TIP3    H166053   2.014   4.965   4.302 -1.2175 -0.7041 -0.1400
14854TIP3    H266054   1.906   4.985   4.405  0.1320 -1.5112  1.4713
14855TIP3   OH266055   2.267   0.986   2.409 -0.4668  0.2231 -0.1855
14855TIP3    H166056   2.209   1.022   2.475  0.9292  2.2967 -0.0068
14855TIP3    H266057   2.354   1.020   2.431  0.7093 -2.0611 -0.9367
14856TIP3   OH266058   2.374   3.002   1.736  0.6525  0.8251  0.1906
14856TIP3    H166059   2.284   3.016   1.709 -0.1341  0.0869  2.2459
14856TIP3    H266060   2.388   2.908   1.723  0.4810  0.5875  1.6178
14857TIP3   OH266061   6.646   0.752   4.509 -0.1820 -0.3526  0.3522
14857TIP3    H166062   6.607   0.811   4.445 -1.6871 -2.5974 -0.9695
14857TIP3    H266063   6.648   0.802   4.590  0.1662  2.0217 -1.0220
14858TIP3   OH266064   2.991   5.161   5.015 -0.1562 -0.1863  0.4424
14858TIP3    H166065   2.913   5.186   4.966 -0.5288  0.4661  1.3341
14858TIP3    H266066   2.968   5.080   5.059 -0.3893  0.0848  0.8236
14859TIP3   OH266067   0.251   0.883   5.375  0.1707  0.4165 -0.0079
14859TIP3    H166068   0.176   0.913   5.426  0.5035 -0.3963  0.9936
14859TIP3    H266069   0.328   0.918   5.422  0.4450  2.2684 -1.6798
14860TIP3   OH266070   3.284   3.127  11.527  0.3796 -0.2759 -0.0420
14860TIP3    H166071   3.192   3.127  11.499  0.3779 -1.0644 -0.0465
14860TIP3    H266072   3.326   3.191  11.469 -0.3737  0.9255  0.6933
14861TIP3   OH266073   0.034   6.333  11.497 -0.5946  0.8191 -0.4618
14861TIP3    H166074   0.125   6.353  11.521 -0.0012 -0.1122 -1.7940
14861TIP3    H266075  -0.018   6.363  11.571  0.9160  0.1658  0.9001
14862TIP3   OH266076   3.206   6.300   6.494  0.0585 -0.3480 -0.0043
14862TIP3    H166077   3.226   6.390   6.468  1.0645 -1.2883 -2.8723
14862TIP3    H266078   3.278   6.274   6.550  0.9227 -0.0431 -0.9492
14863TIP3   OH266079   1.031   6.755   2.009  0.0718 -0.6715 -0.2504
14863TIP3    H166080   0.941   6.786   2.004  0.2566 -0.1601 -0.5228
14863TIP3    H266081   1.028   6.682   2.070 -0.1179  0.8988  1.7151
14864TIP3   OH266082   0.869   2.031   0.708  0.0320  0.6904  0.1706
14864TIP3    H166083   0.876   1.997   0.619  0.2553 -0.2277  0.5270
14864TIP3    H266084   0.901   1.960   0.764 -2.5170  0.1942  1.1667
14865TIP3   OH266085   6.330   1.712  15.429 -0.4694 -0.3046  0.1572
14865TIP3    H166086   6.332   1.624  15.392 -0.7877 -0.2307 -0.0347
14865TIP3    H266087   6.252   1.753  15.392  0.1665  0.3825 -0.4826
14866TIP3   OH266088   1.599   0.681  11.659  0.1001 -0.2076  0.4116
14866TIP3    H166089   1.689   0.684  11.692 -0.1240 -1.9337  1.2524
14866TIP3    H266090   1.568   0.771  11.667  1.9465  0.5749 -0.5161
14867TIP3   OH266091   1.001   4.560   4.852  0.1643 -0.9732  0.1099
14867TIP3    H166092   0.979   4.575   4.760 -0.2544 -1.9122  0.0442
14867TIP3    H266093   0.989   4.646   4.894 -0.3170 -0.6991 -0.5727
14868TIP3   OH266094   3.182   1.638  11.701 -0.3199 -0.0148  0.2680
14868TIP3    H166095   3.187   1.652  11.795 -1.0431  1.0322  0.1631
14868TIP3    H266096   3.246   1.698  11.664 -0.5520  0.1039  0.0556
14869TIP3   OH266097   2.172   3.766  12.724  0.0967 -0.3963 -0.1736
14869TIP3    H166098   2.111   3.835  12.700  0.3282 -0.3612 -0.6796
14869TIP3    H266099   2.117   3.690  12.742 -0.1274 -0.2106 -0.0817
14870TIP3   OH266100   2.522   2.244  16.441 -0.3657 -0.3188 -0.3220
14870TIP3    H166101   2.525   2.149  16.450 -1.0263 -0.2926  0.2868
14870TIP3    H266102   2.608   2.268  16.409  0.3527 -0.9591  1.0634
14871TIP3   OH266103   1.453   3.062  15.348 -0.4386  0.3356 -0.4377
14871TIP3    H166104   1.378   3.031  15.399 -0.0547  1.5494  0.9495
14871TIP3    H266105   1.494   3.128  15.404  1.0383  0.4811 -1.6207
14872TIP3   OH266106   0.002   0.478  16.050  0.1448  0.5464 -0.1258
14872TIP3    H166107  -0.005   0.556  15.996  1.1903  0.6755 -0.0950
14872TIP3    H266108  -0.072   0.423  16.022 -0.0984  1.1715 -0.7420
14873TIP3   OH266109   0.986   0.361   0.210 -0.1791 -0.6683 -0.5236
14873TIP3    H166110   1.016   0.335   0.298 -0.6468 -0.7570 -0.3891
14873TIP3    H266111   1.012   0.453   0.203 -0.7527 -0.4643 -0.0212
14874TIP3   OH266112   2.609   5.618   5.188 -0.2184  0.5514 -0.4348
14874TIP3    H166113   2.695   5.578   5.173 -0.6808 -1.4319  1.5678
14874TIP3    H266114   2.621   5.672   5.265 -1.3409 -2.2955  1.9296
14875TIP3   OH266115   5.290   3.927  15.476  0.1682  0.3528  0.1850
14875TIP3    H166116   5.272   3.907  15.385 -1.0221 -1.2658  0.7373
14875TIP3    H266117   5.378   3.966  15.475 -0.1100  1.0424 -1.6976
14876TIP3   OH266118   1.587   1.386   0.668  0.1581  0.5689 -0.1255
14876TIP3    H166119   1.671   1.414   0.704 -0.8501  0.6589  2.3629
14876TIP3    H266120   1.526   1.456   0.693 -1.0111 -0.4104 -0.1454
14877TIP3   OH266121   3.352   2.724   1.698 -0.2957 -0.3196  0.0534
14877TIP3    H166122   3.315   2.750   1.783 -0.3768 -2.0069  0.5691
14877TIP3    H266123   3.303   2.646   1.673  1.5111 -1.4166 -0.2471
14878TIP3   OH266124   3.275   6.493   2.209 -0.0951 -0.2486  0.8324
14878TIP3    H166125   3.315   6.410   2.232 -1.3555 -0.8966  0.7782
14878TIP3    H266126   3.182   6.481   2.228 -0.7008  0.3012 -1.4217
14879TIP3   OH266127   0.121   3.768  12.756 -0.0149 -0.8407  0.3185
14879TIP3    H166128   0.048   3.781  12.696  0.2207 -0.3464  0.1308
14879TIP3    H266129   0.184   3.716  12.707 -0.6936 -2.2183  0.8574
14880TIP3   OH266130   3.159   1.056  14.008 -0.1812  0.3825  0.2445
14880TIP3    H166131   3.076   1.078  14.050 -0.4195 -0.4132  0.2103
14880TIP3    H266132   3.186   1.137  13.964 -0.6414  0.8137  0.7459
14881TIP3   OH266133   3.439   4.634   0.723 -0.3708 -0.1660 -0.2305
14881TIP3    H166134   3.524   4.649   0.684 -0.0417  1.7130  1.0858
14881TIP3    H266135   3.447   4.548   0.765  0.8695 -0.0114 -0.1191
14882TIP3   OH266136   3.660   0.313   6.027  1.0355 -0.1582  0.3383
14882TIP3    H166137   3.618   0.333   6.110 -0.5096  1.4375 -0.7472
14882TIP3    H266138   3.744   0.359   6.032  1.7855 -1.6065  1.6977
14883TIP3   OH266139   5.773   1.123   1.970 -0.4451  0.0284 -0.0990
14883TIP3    H166140   5.696   1.135   1.914  0.7511 -1.7909 -2.3287
14883TIP3    H266141   5.760   1.038   2.012  0.3652 -0.3724 -0.6162
14884TIP3   OH266142   5.946   3.451  13.492 -0.6505  0.2316  0.5069
14884TIP3    H166143   5.932   3.405  13.410 -2.0144  0.0267  0.8183
14884TIP3    H266144   5.858   3.481  13.518  0.0195  1.9752  0.9146
14885TIP3   OH266145   1.257   4.631  15.893  0.4063 -0.3242  0.1010
14885TIP3    H166146   1.213   4.558  15.936  1.3440 -0.1701  1.3570
14885TIP3    H266147   1.337   4.644  15.943  0.2579  1.5898 -0.0894
14886TIP3   OH266148   2.559   2.824  16.140  0.2885  0.5299  0.3639
14886TIP3    H166149   2.608   2.905  16.148  1.1236 -0.0155  0.9474
14886TIP3    H266150   2.533   2.802  16.230 -0.1277  0.2767  0.1851
14887TIP3   OH266151   4.393   3.200  11.739 -0.2604  0.1852  0.3560
14887TIP3    H166152   4.480   3.178  11.706 -0.7787 -0.1060 -0.8826
14887TIP3    H266153   4.390   3.296  11.736  0.6350  0.3185  2.1392
14888TIP3   OH266154   5.407   6.540   3.600  0.1374 -0.1972 -0.0950
14888TIP3    H166155   5.362   6.470   3.647 -0.0242  0.4282  0.7144
14888TIP3    H266156   5.371   6.620   3.637  0.6301  0.3100 -0.7006
14889TIP3   OH266157   5.223   3.672  15.867 -0.2068 -0.1071 -0.1699
14889TIP3    H166158   5.182   3.647  15.949  0.0416  1.9082  0.6282
14889TIP3    H266159   5.317   3.660  15.882  0.4831  5.2155  1.9711
14890TIP3   OH266160   5.872   1.209  12.653 -0.0602  0.5801 -0.1683
14890TIP3    H166161   5.945   1.261  12.687  0.1307 -0.6482  1.4040
14890TIP3    H266162   5.799   1.229  12.712 -0.2727 -0.1126 -0.1893
14891TIP3   OH266163   3.417   0.809   2.063  0.4605 -0.2906 -0.4454
14891TIP3    H166164   3.398   0.823   2.155 -0.2643 -1.8132 -0.3242
14891TIP3    H266165   3.505   0.844   2.050  0.4805  0.1233  0.7751
14892TIP3   OH266166   2.799   6.694  15.787  0.0263 -0.4598  0.0631
14892TIP3    H166167   2.775   6.764  15.847 -0.4488  1.3535 -2.1189
14892TIP3    H266168   2.894   6.702  15.777 -0.0772  0.1362 -0.4747
14893TIP3   OH266169   3.327   6.426   3.709 -0.1492  0.2430  0.2560
14893TIP3    H166170   3.271   6.364   3.661  0.0910 -0.9936  1.5021
14893TIP3    H266171   3.391   6.371   3.754  0.3973  1.4426  1.0080
14894TIP3   OH266172   6.254   2.850   0.693 -0.5895  0.1630 -0.4491
14894TIP3    H166173   6.312   2.809   0.757  0.3622  0.3929 -1.1426
14894TIP3    H266174   6.168   2.813   0.711  0.3627 -2.9210 -1.6733
14895TIP3   OH266175   6.208   5.230   3.593 -0.1666  0.8268  0.1583
14895TIP3    H166176   6.160   5.203   3.672 -0.0073 -0.4463 -0.1664
14895TIP3    H266177   6.141   5.233   3.525  0.0960 -0.3607 -0.1621
14896TIP3   OH266178   0.034   6.525  14.183  0.2449 -0.4319  0.3898
14896TIP3    H166179   0.087   6.472  14.243  2.4579 -0.2132 -1.2358
14896TIP3    H266180   0.042   6.481  14.099 -2.1991 -0.3271  0.0363
14897TIP3   OH266181   1.869   3.994   3.083  0.9453 -0.2440 -0.3012
14897TIP3    H166182   1.857   3.939   3.160  1.1503 -0.4714 -0.4296
14897TIP3    H266183   1.808   3.959   3.018  1.1642 -0.4002 -0.4247
14898TIP3   OH266184   6.637   3.314   1.194  0.2161 -1.2592  0.0369
14898TIP3    H166185   6.656   3.369   1.270  1.7641 -2.5283  0.6343
14898TIP3    H266186   6.553   3.346   1.161  0.4925  0.6483  1.0503
14899TIP3   OH266187   3.758   0.089  15.728 -0.3893 -0.3479  0.7513
14899TIP3    H166188   3.672   0.123  15.703 -0.4738 -0.8570  0.3470
14899TIP3    H266189   3.747  -0.006  15.731  0.3131 -0.4621  0.0798
14900TIP3   OH266190   1.462   3.068   1.746  0.0092 -0.0185  0.1804
14900TIP3    H166191   1.444   2.977   1.770 -1.1801  0.0812 -0.2622
14900TIP3    H266192   1.448   3.071   1.652  1.5745  0.2947 -0.0651
14901TIP3   OH266193   5.791   3.372   4.291 -0.1222  0.3858 -0.8838
14901TIP3    H166194   5.730   3.320   4.238 -1.7461  0.8131  0.5073
14901TIP3    H266195   5.757   3.367   4.380  1.4112  1.3644 -0.1934
14902TIP3   OH266196   2.643   2.809   1.240 -0.0863 -0.3008 -0.4815
14902TIP3    H166197   2.685   2.833   1.323  0.4751 -0.4650 -0.7120
14902TIP3    H266198   2.692   2.732   1.210 -1.1086 -1.0162 -0.3334
14903TIP3   OH266199   1.353   5.665  12.981  0.1083 -0.6932  0.0026
14903TIP3    H166200   1.325   5.575  12.997  1.3191 -0.5944  3.4060
14903TIP3    H266201   1.278   5.719  13.008 -0.2272 -0.6017 -1.0462
14904TIP3   OH266202   6.297   1.834   1.424  0.2758  0.4021 -0.2492
14904TIP3    H166203   6.352   1.792   1.490  2.1526  0.7757 -1.4818
14904TIP3    H266204   6.356   1.846   1.349 -0.9182  2.7786 -0.8820
14905TIP3   OH266205   2.923   6.085   5.237  0.2980  0.3126 -0.2458
14905TIP3    H166206   2.967   6.008   5.200  0.9727  0.4993  0.1467
14905TIP3    H266207   2.869   6.049   5.308  0.3613  0.1602 -0.2729
14906TIP3   OH266208   4.731   5.140  15.885 -0.1127 -0.1634 -0.0259
14906TIP3    H166209   4.756   5.165  15.796 -0.9288 -1.2971 -0.6024
14906TIP3    H266210   4.710   5.222  15.928 -0.0830  0.3753 -1.0091
14907TIP3   OH266211   1.929   3.631  12.538 -0.6928 -0.4058  0.0203
14907TIP3    H166212   2.018   3.621  12.571 -0.7019  0.4691  0.3176
14907TIP3    H266213   1.913   3.551  12.488  1.1356  0.4314 -2.0735
14908TIP3   OH266214   4.460   2.361  17.172  0.0658  0.2403  0.0889
14908TIP3    H166215   4.410   2.437  17.144  0.3673  0.2618 -0.3957
14908TIP3    H266216   4.438   2.352  17.265 -0.2376  0.7077  0.0695
14909TIP3   OH266217   1.662   1.295   0.138  0.4495 -0.3341 -0.1731
14909TIP3    H166218   1.736   1.327   0.087  0.0027 -0.0029 -0.6190
14909TIP3    H266219   1.692   1.303   0.229  0.9178 -0.0875 -0.3410
14910TIP3   OH266220   4.884   0.219   5.715  0.4056  0.0797  1.0341
14910TIP3    H166221   4.879   0.287   5.647  0.6520 -1.2685 -0.3917
14910TIP3    H266222   4.842   0.258   5.791  0.6332  1.8676  0.3008
14911TIP3   OH266223   4.792   2.892   1.487 -0.0666  0.0641  0.4231
14911TIP3    H166224   4.804   2.982   1.517  0.8442 -0.3823  1.4714
14911TIP3    H266225   4.794   2.898   1.392 -0.8880  1.2581  0.4626
14912TIP3   OH266226   6.747   3.928  13.769  0.3640  0.1367  0.8269
14912TIP3    H166227   6.828   3.911  13.818  1.3798  0.8348 -0.5431
14912TIP3    H266228   6.731   3.848  13.719  0.9967  0.4799  0.0531
14913TIP3   OH266229   3.341   5.756   1.836 -0.1115  0.2413 -0.6933
14913TIP3    H166230   3.349   5.788   1.746 -0.5158 -0.1389 -0.8680
14913TIP3    H266231   3.427   5.718   1.856  0.5816  1.9339 -0.2714
14914TIP3   OH266232   1.045   6.349  16.232  0.3105 -0.0311  0.2829
14914TIP3    H166233   1.037   6.372  16.325 -0.8025  1.5778 -0.1620
14914TIP3    H266234   0.992   6.415  16.187  1.3356 -0.4065 -1.5554
14915TIP3   OH266235   0.393   1.508   3.550 -0.0075  0.5415 -0.1115
14915TIP3    H166236   0.310   1.502   3.502 -1.5626  2.9817  1.9546
14915TIP3    H266237   0.367   1.505   3.643  2.3542  0.3256  0.6153
14916TIP3   OH266238   3.370   0.265  14.332 -0.3106  0.2638  0.2850
14916TIP3    H166239   3.304   0.286  14.399  0.0648  0.1250  0.7029
14916TIP3    H266240   3.367   0.339  14.272  0.2716  1.0437  1.1828
14917TIP3   OH266241   4.280   1.141  12.217  0.6086  0.6328  0.1412
14917TIP3    H166242   4.219   1.200  12.173  2.1478  2.3965  0.2437
14917TIP3    H266243   4.228   1.063  12.237 -0.5958  0.3602 -3.2972
14918TIP3   OH266244   1.611   0.462  15.898 -0.0848 -0.2673 -0.5549
14918TIP3    H166245   1.517   0.482  15.901 -0.0556 -0.2497  0.3612
14918TIP3    H266246   1.624   0.397  15.967  0.6948  0.2072 -0.2459
14919TIP3   OH266247   1.213   5.809   0.011 -0.7205  0.1112 -0.0958
14919TIP3    H166248   1.192   5.818  -0.082 -0.1062  0.8968 -0.1656
14919TIP3    H266249   1.128   5.817   0.055 -0.8796  0.9258 -0.5161
14920TIP3   OH266250   3.251   6.035  11.643  0.1822  0.1663 -0.4611
14920TIP3    H166251   3.267   5.942  11.659 -0.6005  0.0948 -0.0339
14920TIP3    H266252   3.334   6.078  11.666  1.9271 -0.7264 -4.2382
14921TIP3   OH266253   5.900   1.331   3.743 -0.0671 -0.1065  0.5787
14921TIP3    H166254   5.848   1.254   3.768 -0.5302 -0.9055 -2.4345
14921TIP3    H266255   5.970   1.296   3.688  0.9132  1.4699  0.7470
14922TIP3   OH266256   2.033   6.019  15.402  0.0138 -0.0026  0.2953
14922TIP3    H166257   2.122   5.985  15.392 -0.1770 -0.2843 -0.5120
14922TIP3    H266258   1.986   5.983  15.327 -0.4614  1.2012  0.0018
14923TIP3   OH266259   1.255   2.201   5.472  0.3896  0.4608  0.3922
14923TIP3    H166260   1.223   2.239   5.554 -1.4559 -2.1213  1.0007
14923TIP3    H266261   1.177   2.165   5.430  1.7538 -1.4525 -0.6994
14924TIP3   OH266262   4.793   6.778   0.729  0.3277  0.0593  0.0345
14924TIP3    H166263   4.765   6.729   0.651 -0.0619  0.6582 -0.2121
14924TIP3    H266264   4.761   6.867   0.714 -1.0455 -0.1325  1.5402
14925TIP3   OH266265   4.374   5.099  14.512 -0.0494  0.1075 -0.3352
14925TIP3    H166266   4.438   5.168  14.498 -0.1534  0.0008 -1.3977
14925TIP3    H266267   4.308   5.112  14.444 -0.8614 -0.1379  0.3732
14926TIP3   OH266268   5.129   4.013   2.928 -0.1047  0.4428  0.1968
14926TIP3    H166269   5.061   3.989   2.864 -1.0603  4.1677 -0.4385
14926TIP3    H266270   5.159   4.100   2.899  3.8328 -0.3172  1.4311
14927TIP3   OH266271   6.274   1.151   5.572  0.6668  0.1573 -0.0543
14927TIP3    H166272   6.281   1.096   5.650 -0.3482  0.6247  0.3848
14927TIP3    H266273   6.193   1.123   5.530  1.0081  0.1749 -0.7346
14928TIP3   OH266274   5.443   0.179   5.074  0.2301  0.2193 -0.1626
14928TIP3    H166275   5.504   0.196   5.002 -0.1009 -2.4432 -1.1735
14928TIP3    H266276   5.361   0.157   5.031 -0.1289 -0.8838  1.0425
14929TIP3   OH266277   3.728   1.359   0.586  0.0690  0.4354 -0.0183
14929TIP3    H166278   3.708   1.340   0.678 -0.6700  0.9939 -0.0595
14929TIP3    H266279   3.657   1.319   0.537  0.2421  0.4933 -0.3151
14930TIP3   OH266280   4.794   2.209   0.511 -0.0553 -0.1201 -0.4409
14930TIP3    H166281   4.766   2.169   0.429  1.0168 -0.1622 -0.8019
14930TIP3    H266282   4.818   2.135   0.567 -2.0181 -0.1744  0.4238
14931TIP3   OH266283   4.356   4.115  14.210 -0.2921 -0.1127 -0.0700
14931TIP3    H166284   4.333   4.180  14.144 -0.1679  0.4431  0.4257
14931TIP3    H266285   4.434   4.151  14.253 -0.1334 -0.6606  0.1114
14932TIP3   OH266286   1.235   6.466  12.898  0.1506 -0.0722 -0.0775
14932TIP3    H166287   1.265   6.440  12.985 -0.7142 -1.8986 -0.2722
14932TIP3    H266288   1.141   6.481  12.909  0.0516 -0.2376 -0.6574
14933TIP3   OH266289   5.642   5.765  15.323  0.2982 -0.3709 -0.7839
14933TIP3    H166290   5.611   5.783  15.412  2.9341  1.0728 -0.0420
14933TIP3    H266291   5.640   5.669  15.316  0.5572 -0.5463  1.0623
14934TIP3   OH266292   4.360   2.331   4.936  0.0062 -0.0243  0.0179
14934TIP3    H166293   4.295   2.398   4.917  0.0972  0.1527  0.3302
14934TIP3    H266294   4.419   2.371   5.000  2.3442  1.0234 -2.5843
14935TIP3   OH266295   0.259   3.806   5.481 -0.5590 -0.4369 -0.0299
14935TIP3    H166296   0.282   3.777   5.570  0.7547 -1.2430 -0.6035
14935TIP3    H266297   0.295   3.895   5.476 -1.7519  0.1133  0.6434
14936TIP3   OH266298   3.786   3.750   1.079  0.3312 -0.3912 -0.3633
14936TIP3    H166299   3.880   3.760   1.071  0.3988 -1.5034 -1.3384
14936TIP3    H266300   3.753   3.760   0.990 -0.6691  1.4441  0.1518
14937TIP3   OH266301   4.451   5.924  12.517 -0.4014 -0.4148  0.0844
14937TIP3    H166302   4.509   5.981  12.467 -1.1066  1.5335  1.3877
14937TIP3    H266303   4.366   5.932  12.473 -0.3567 -0.9883 -0.1131
14938TIP3   OH266304   6.766   0.476   3.518 -0.5000 -0.1443 -0.5250
14938TIP3    H166305   6.755   0.569   3.535 -0.1467 -0.1512 -0.2554
14938TIP3    H266306   6.695   0.434   3.567  0.2575 -0.1335  0.6121
14939TIP3   OH266307   2.757   3.397  15.008  0.2038  0.7978 -0.3550
14939TIP3    H166308   2.725   3.484  15.033 -0.2509  0.9706 -1.4952
14939TIP3    H266309   2.832   3.415  14.951  0.6342  0.4229  0.0833
14940TIP3   OH266310   4.653   5.222   2.179 -0.1509 -0.1655 -0.2218
14940TIP3    H166311   4.739   5.264   2.176  0.3114 -1.1566 -1.6742
14940TIP3    H266312   4.592   5.295   2.191  0.6394  0.9985 -2.6368
14941TIP3   OH266313   2.546   4.344   5.753 -0.3314  0.0188 -0.0076
14941TIP3    H166314   2.641   4.339   5.736 -0.1546  0.9774  0.6056
14941TIP3    H266315   2.539   4.353   5.848 -0.9803  0.9261 -0.1235
14942TIP3   OH266316   0.352   2.650   4.807  0.3535 -0.9749 -0.2752
14942TIP3    H166317   0.272   2.660   4.755  1.0891  1.8943 -1.0361
14942TIP3    H266318   0.326   2.677   4.895  0.3679 -0.4385 -0.4315
14943TIP3   OH266319   2.064   0.032  11.099  0.2076 -0.2433  0.3889
14943TIP3    H166320   1.977   0.071  11.092  0.0942 -0.6235 -0.4360
14943TIP3    H266321   2.068  -0.031  11.027  0.8688 -0.8119  0.9064
14944TIP3   OH266322   1.000   6.820   3.421  0.2445 -0.4138  0.0960
14944TIP3    H166323   0.946   6.899   3.433 -1.0768 -1.3689  0.7811
14944TIP3    H266324   1.071   6.848   3.363  0.2269  1.4595  0.8861
14945TIP3   OH266325   5.627   6.231   4.037 -0.2415 -0.2807  0.0921
14945TIP3    H166326   5.640   6.147   4.082 -0.6388 -0.4967 -0.1905
14945TIP3    H266327   5.649   6.213   3.946 -1.2397 -0.3270 -0.1536
14946TIP3   OH266328   5.846   1.454   0.445  0.1981 -0.0827 -0.6514
14946TIP3    H166329   5.930   1.409   0.447  0.6191  0.4561 -3.2026
14946TIP3    H266330   5.867   1.546   0.429 -0.8420  0.1416 -0.8212
14947TIP3   OH266331   3.126   0.816   6.019 -0.0581  0.2959 -0.2972
14947TIP3    H166332   3.088   0.834   6.105 -0.2839 -0.5167 -0.2242
14947TIP3    H266333   3.192   0.885   6.007  0.9641 -0.3933  1.1292
14948TIP3   OH266334   1.672   3.584   3.837 -0.4053 -0.0239 -0.0273
14948TIP3    H166335   1.701   3.521   3.903 -0.1171  0.8602  0.7045
14948TIP3    H266336   1.590   3.547   3.804 -0.1683 -0.8577  0.2771
14949TIP3   OH266337   1.348   3.774   2.525 -0.7068  0.0479  0.1759
14949TIP3    H166338   1.323   3.829   2.451 -2.0602 -1.6292 -0.6792
14949TIP3    H266339   1.322   3.825   2.602  0.2679  1.5959 -0.4654
14950TIP3   OH266340   0.592   0.617   3.546  0.3428  0.0958  0.6582
14950TIP3    H166341   0.675   0.638   3.590  1.1680 -1.6828  0.0813
14950TIP3    H266342   0.600   0.658   3.460  0.3004  0.5408  0.8642
14951TIP3   OH266343   5.282   2.340  17.148 -0.1607 -0.1977  0.3902
14951TIP3    H166344   5.322   2.418  17.112  0.1213 -0.5041  0.0362
14951TIP3    H266345   5.309   2.269  17.090 -1.2307 -0.4111  0.1155
14952TIP3   OH266346   4.393   6.017   0.116  0.2141  0.6249 -0.4244
14952TIP3    H166347   4.319   5.965   0.143 -0.0867  1.3334  0.1509
14952TIP3    H266348   4.445   5.959   0.060 -0.8811  0.1956 -1.0155
14953TIP3   OH266349   2.227   0.889  12.689  0.2522  0.6794 -0.6218
14953TIP3    H166350   2.275   0.930  12.617  0.6357 -0.0202 -0.7766
14953TIP3    H266351   2.296   0.852  12.745 -0.0906  0.0540 -0.6079
14954TIP3   OH266352   0.402   4.163  16.783 -0.8964  0.4298  0.1317
14954TIP3    H166353   0.359   4.241  16.818 -1.1831  0.3247  0.0181
14954TIP3    H266354   0.491   4.193  16.761 -1.3163  0.9856 -0.8681
14955TIP3   OH266355   1.978   3.689  16.237 -0.7124  0.3334 -0.0178
14955TIP3    H166356   1.979   3.625  16.165  1.0218  1.0323 -0.6538
14955TIP3    H266357   2.031   3.649  16.305 -2.1221 -0.2007  0.8216
14956TIP3   OH266358   2.606   4.060   5.101 -0.1221 -0.0419  0.4944
14956TIP3    H166359   2.606   3.991   5.168 -0.7100 -0.7531 -0.2167
14956TIP3    H266360   2.693   4.100   5.108  0.2977 -0.9781  0.8093
14957TIP3   OH266361   3.913   1.070  11.727 -0.3430  0.3257  0.7460
14957TIP3    H166362   3.830   1.026  11.709  0.0524  0.1817 -0.8932
14957TIP3    H266363   3.979   1.003  11.713  0.1012  0.6671  1.1785
14958TIP3   OH266364   1.007   4.321   0.055  0.2155 -0.9677 -0.0758
14958TIP3    H166365   1.081   4.269   0.026 -0.8384 -3.0776  0.8240
14958TIP3    H266366   0.930   4.273   0.026 -0.9024  1.5910 -1.7427
14959TIP3   OH266367   5.236   0.256  13.402  0.5487 -0.8321 -0.4901
14959TIP3    H166368   5.183   0.295  13.471  1.2235 -1.8674  0.6678
14959TIP3    H266369   5.303   0.206  13.449  0.9021 -1.7453 -1.8996
14960TIP3   OH266370   2.193   3.721  17.033  0.4984 -0.1408 -0.0581
14960TIP3    H166371   2.249   3.704  16.957  1.1493 -1.1096  0.6081
14960TIP3    H266372   2.104   3.707  17.001  0.5605  1.8201 -1.2433
14961TIP3   OH266373   3.204   2.349  15.186  0.0467  0.3886  0.2625
14961TIP3    H166374   3.257   2.287  15.135 -1.3185  0.2524 -1.0420
14961TIP3    H266375   3.162   2.405  15.121 -1.3952  0.5252  1.2508
14962TIP3   OH266376   0.284   2.155   2.946  0.2750  0.1141 -0.1852
14962TIP3    H166377   0.229   2.233   2.945 -0.5088 -0.4332 -0.6812
14962TIP3    H266378   0.223   2.082   2.956  0.9385 -0.4904 -0.4432
14963TIP3   OH266379   2.322   6.531  14.215  0.5870  0.4151  0.4249
14963TIP3    H166380   2.342   6.535  14.121  1.3000 -0.3035  0.5306
14963TIP3    H266381   2.327   6.437  14.235 -1.4989  0.3427  0.7770
14964TIP3   OH266382   4.955   0.408  14.778 -0.1441  0.1967 -0.5642
14964TIP3    H166383   4.929   0.370  14.694 -1.5082  0.3558 -0.2454
14964TIP3    H266384   5.046   0.382  14.790 -0.5942 -1.7648 -1.0328
14965TIP3   OH266385   1.167   4.731  10.871 -0.4557 -0.5796  0.1055
14965TIP3    H166386   1.216   4.757  10.793 -0.6491 -2.4482 -0.7155
14965TIP3    H266387   1.083   4.777  10.863  0.1717  0.5855  0.1346
14966TIP3   OH266388   3.112   3.793  14.607 -0.6378  0.2242  0.0451
14966TIP3    H166389   3.024   3.805  14.643 -0.2809 -0.0672  1.0574
14966TIP3    H266390   3.098   3.760  14.518 -1.5778  2.6913 -0.8022
14967TIP3   OH266391   3.751   1.661  16.273  0.1175  0.3363  0.1284
14967TIP3    H166392   3.808   1.588  16.297  1.0118  0.8838 -0.3158
14967TIP3    H266393   3.732   1.647  16.180  1.1042  1.1908 -0.2229
14968TIP3   OH266394   0.539   4.624  14.909 -0.4522  0.4781  0.3488
14968TIP3    H166395   0.580   4.570  14.976  0.8360 -0.8612 -1.4156
14968TIP3    H266396   0.611   4.675  14.871 -0.5207 -0.9930 -1.9648
14969TIP3   OH266397   1.248   5.649  17.091  0.3515  1.1770  0.2439
14969TIP3    H166398   1.269   5.619  17.179 -1.4899  0.9143  0.6357
14969TIP3    H266399   1.235   5.569  17.040  3.3995  1.2641 -0.8751
14970TIP3   OH266400   3.116   1.926   5.361  0.4278  0.2255 -0.3914
14970TIP3    H166401   3.054   1.863   5.323  0.7254  1.3159 -2.8657
14970TIP3    H266402   3.173   1.873   5.417 -2.0184 -0.9672  1.1325
14971TIP3   OH266403   6.407   1.805   6.107  0.1570 -0.2609 -0.1867
14971TIP3    H166404   6.442   1.753   6.180  0.0395  1.3521  1.0779
14971TIP3    H266405   6.313   1.810   6.125  0.3823  1.8341  0.7606
14972TIP3   OH266406   4.424   5.426   6.362 -0.0730  0.0385  0.1154
14972TIP3    H166407   4.351   5.468   6.318  0.2131 -2.8190 -3.5010
14972TIP3    H266408   4.387   5.347   6.401  0.3709  0.7846  2.2149
14973TIP3   OH266409   2.966   5.678   1.532 -0.2377  0.6797 -0.6291
14973TIP3    H166410   2.983   5.693   1.625 -0.4949  1.6618 -0.7311
14973TIP3    H266411   2.956   5.583   1.525  1.1645  0.4569  0.0976
14974TIP3   OH266412   6.629   4.106   4.386  0.1362 -0.5441  0.1448
14974TIP3    H166413   6.704   4.117   4.445 -0.1720  0.5674  0.3546
14974TIP3    H266414   6.599   4.017   4.403  0.1716 -0.3219  1.5506
14975TIP3   OH266415   2.804   1.667   5.477  0.3143 -0.2808 -0.8529
14975TIP3    H166416   2.712   1.656   5.454 -0.4810  2.9500  0.2300
14975TIP3    H266417   2.821   1.600   5.544 -0.1959 -3.0472 -3.2991
14976TIP3   OH266418   2.626   6.323   5.294  0.1788 -0.0061 -0.3481
14976TIP3    H166419   2.649   6.251   5.234  0.5833 -0.9888  0.9477
14976TIP3    H266420   2.556   6.286   5.349  0.9528  0.3056  0.8729
14977TIP3   OH266421   5.449   5.190   6.803 -0.1731 -0.4534  0.0760
14977TIP3    H166422   5.446   5.116   6.864  1.6306  0.9814  2.0792
14977TIP3    H266423   5.517   5.167   6.740  1.8181  0.1592  1.8414
14978TIP3   OH266424   1.803   4.218  13.887  0.2691 -0.5957 -0.0513
14978TIP3    H166425   1.709   4.203  13.891  0.5933 -3.0862 -0.2031
14978TIP3    H266426   1.834   4.200  13.976  0.7193 -0.7627 -0.2372
14979TIP3   OH266427   5.570   2.022  16.777  0.4487 -0.1755  0.6295
14979TIP3    H166428   5.637   2.047  16.841 -1.4377  2.3902  1.7847
14979TIP3    H266429   5.494   1.998  16.829 -1.3781  2.6350 -0.4962
14980TIP3   OH266430   5.331   1.774   4.733 -0.1835  0.3061  0.2649
14980TIP3    H166431   5.273   1.849   4.745 -0.5359  0.3393 -1.3837
14980TIP3    H266432   5.273   1.703   4.705  0.1444 -0.6176  1.7987
14981TIP3   OH266433   4.480   1.915  12.710 -0.4244 -0.3390  0.1789
14981TIP3    H166434   4.549   1.980  12.696 -0.9121  0.1715  0.0730
14981TIP3    H266435   4.504   1.842  12.653 -1.7167  1.2032 -2.5624
14982TIP3   OH266436   3.503   1.083   3.469  0.3012 -0.3068 -0.2808
14982TIP3    H166437   3.543   1.052   3.387  2.2950 -0.1015  0.5597
14982TIP3    H266438   3.464   1.004   3.507  1.2743 -0.8508 -0.3880
14983TIP3   OH266439   0.153   3.168   0.731 -0.5145 -0.7008 -0.1363
14983TIP3    H166440   0.119   3.161   0.642 -0.5072  0.2215 -0.2242
14983TIP3    H266441   0.091   3.118   0.784  0.6539 -3.1085 -0.9152
14984TIP3   OH266442   5.344   5.248   6.075  0.5144 -0.1421  0.3739
14984TIP3    H166443   5.294   5.325   6.047 -0.9298 -0.3982  2.0230
14984TIP3    H266444   5.288   5.207   6.141  2.0793 -1.5741  0.8702
14985TIP3   OH266445   5.855   4.471   0.283 -0.0501 -0.1326 -0.3619
14985TIP3    H166446   5.843   4.561   0.313 -0.4356 -0.0340 -0.8095
14985TIP3    H266447   5.897   4.479   0.197  0.4137 -0.3969 -0.1658
14986TIP3   OH266448   1.207   4.327  15.513 -0.5739 -0.2072 -0.4055
14986TIP3    H166449   1.279   4.380  15.479  0.7682 -2.8577 -2.1224
14986TIP3    H266450   1.169   4.286  15.435 -1.4691 -1.7482  0.7788
14987TIP3   OH266451   1.994   3.712   0.668  0.3296  0.1583 -0.4527
14987TIP3    H166452   1.946   3.719   0.585  0.0101  0.9748 -0.2089
14987TIP3    H266453   2.086   3.727   0.643  0.2930 -0.0365 -0.7159
14988TIP3   OH266454   3.286   4.512  14.894  0.5559  0.1541 -0.4801
14988TIP3    H166455   3.265   4.424  14.926  0.4935  0.2014 -0.3898
14988TIP3    H266456   3.382   4.517  14.902  0.4769  0.4592  0.4883
14989TIP3   OH266457   3.375   2.271  12.654  0.1077 -0.1042 -0.5244
14989TIP3    H166458   3.362   2.258  12.748 -0.1921 -0.6945 -0.6403
14989TIP3    H266459   3.468   2.251  12.640 -0.1284 -1.2551 -0.5428
14990TIP3   OH266460   1.738   4.054  16.990 -0.4066 -0.2833 -0.0489
14990TIP3    H166461   1.747   4.013  16.904 -0.8603  0.8427 -0.6688
14990TIP3    H266462   1.690   3.990  17.042  1.2136 -1.6299 -0.1383
14991TIP3   OH266463   0.774   0.295   3.016 -0.5774 -0.6521 -0.0310
14991TIP3    H166464   0.757   0.256   3.102  0.3481 -0.0353  0.4533
14991TIP3    H266465   0.780   0.221   2.956 -0.7048 -1.1242  0.5280
14992TIP3   OH266466   1.296   1.007  16.906  0.2334 -0.3795  1.0200
14992TIP3    H166467   1.298   0.917  16.873 -0.3319 -0.2733  0.6968
14992TIP3    H266468   1.221   1.048  16.862  1.5570  0.8040 -0.2827
14993TIP3   OH266469   4.736   0.878  17.215 -0.1087 -0.3272  0.3946
14993TIP3    H166470   4.642   0.878  17.233 -0.6299  1.1592 -1.9077
14993TIP3    H266471   4.763   0.788  17.234 -1.6393 -0.4424  2.4981
14994TIP3   OH266472   2.624   5.869  13.860 -0.1278  0.1393 -0.0740
14994TIP3    H166473   2.692   5.919  13.815  0.6525 -1.2852 -0.5288
14994TIP3    H266474   2.623   5.784  13.816  0.5186 -1.2657  2.4366
14995TIP3   OH266475   5.796   0.048   0.147  0.3875 -0.1894  0.4140
14995TIP3    H166476   5.825   0.017   0.062 -0.9405 -0.8203  0.1626
14995TIP3    H266477   5.701   0.034   0.147  0.0531  1.7544  1.1876
14996TIP3   OH266478   1.972   1.737  16.170 -0.1485 -0.2013 -0.2176
14996TIP3    H166479   1.897   1.764  16.117 -0.5119 -2.1261 -0.7685
14996TIP3    H266480   2.000   1.654  16.132  1.1208 -0.4404  1.1265
14997TIP3   OH266481   4.184   1.197   4.411  0.4002  0.4809  0.1680
14997TIP3    H166482   4.098   1.207   4.370  0.7751  0.6772 -0.5757
14997TIP3    H266483   4.244   1.178   4.339  0.8147 -0.6967  0.8002
14998TIP3   OH266484   5.189   0.409   0.407  0.2581  0.2461 -0.0917
14998TIP3    H166485   5.197   0.417   0.503 -1.1390  2.3679 -0.0772
14998TIP3    H266486   5.249   0.475   0.373 -0.9062  1.0668 -0.5856
14999TIP3   OH266487   1.139   4.406  10.566  0.4661  0.3828  0.1024
14999TIP3    H166488   1.154   4.343  10.495  0.9768  0.5006  0.1031
14999TIP3    H266489   1.085   4.475  10.526  0.0938  0.0636  0.0433
15000TIP3   OH266490   6.186   5.805  15.522  0.8503 -0.3691 -0.1146
15000TIP3    H166491   6.184   5.729  15.580  0.9992 -1.5515 -1.5816
15000TIP3    H266492   6.094   5.824  15.504  0.6632  1.5517  2.3352
15001TIP3   OH266493   4.067   2.421   0.810  0.4031 -0.4696  0.0749
15001TIP3    H166494   4.072   2.413   0.906  1.2469 -2.6037 -0.0832
15001TIP3    H266495   4.150   2.463   0.786  0.1467  0.1639  0.2571
15002TIP3   OH266496   5.278   1.082  13.335 -0.1726 -0.3174  0.5616
15002TIP3    H166497   5.291   1.112  13.425  1.4092  0.1493  0.1996
15002TIP3    H266498   5.185   1.096  13.319 -0.0685  1.7250  1.3888
15003TIP3   OH266499   5.607   3.612   4.025  0.0694  0.4543  0.4919
15003TIP3    H166500   5.552   3.586   3.951  0.6076  1.6083 -0.3500
15003TIP3    H266501   5.574   3.697   4.051  0.8618  0.7479  0.5659
15004TIP3   OH266502   2.805   5.170   5.465  0.6742 -0.1011 -0.3970
15004TIP3    H166503   2.716   5.169   5.429  1.0708 -0.5764 -1.4046
15004TIP3    H266504   2.857   5.219   5.401  0.5259  3.2904  1.8310
15005TIP3   OH266505   2.683   3.362  15.417 -0.7562 -0.0592  0.3250
15005TIP3    H166506   2.713   3.448  15.386 -3.0992  0.6833 -0.0974
15005TIP3    H266507   2.692   3.305  15.341 -2.7967  0.8118 -0.6495
15006TIP3   OH266508   2.375   4.090   0.132  0.2584  0.2147  0.9462
15006TIP3    H166509   2.386   4.019   0.068 -0.1193 -0.7003  1.8613
15006TIP3    H266510   2.406   4.052   0.214  0.0441  1.1267  1.4523
15007TIP3   OH266511   5.658   4.315   1.624 -0.3999 -0.5372 -0.4254
15007TIP3    H166512   5.586   4.376   1.607 -1.5035 -1.6377  0.1893
15007TIP3    H266513   5.651   4.294   1.717  0.1159 -1.4127 -0.5675
15008TIP3   OH266514   5.367   4.827   2.311 -0.2113  0.1430 -0.0030
15008TIP3    H166515   5.319   4.780   2.243  0.5460 -2.4384  1.1427
15008TIP3    H266516   5.397   4.907   2.268 -2.9915  0.4631 -1.5542
15009TIP3   OH266517   0.588   3.520   1.655 -0.5587 -0.2321  0.5805
15009TIP3    H166518   0.570   3.432   1.623 -0.4733  0.1572 -0.5939
15009TIP3    H266519   0.682   3.520   1.674 -0.3623 -0.1291 -0.3398
15010TIP3   OH266520   3.312   2.948  12.135 -0.1578  0.4708  0.4163
15010TIP3    H166521   3.379   2.975  12.072 -0.4798  0.7360  0.1823
15010TIP3    H266522   3.314   3.015  12.203  0.3225  0.0809  0.7898
15011TIP3   OH266523   2.565   0.990   0.340 -1.1722  0.5545  0.1095
15011TIP3    H166524   2.471   1.009   0.343 -1.3614 -0.1759 -0.8096
15011TIP3    H266525   2.571   0.895   0.342 -0.3893  0.6031  1.2665
15012TIP3   OH266526   6.487   0.883   1.523  0.3606  0.1518  0.3738
15012TIP3    H166527   6.438   0.890   1.605  1.5327  0.0156  1.1200
15012TIP3    H266528   6.457   0.801   1.484 -0.4273  0.3687  0.5088
15013TIP3   OH266529   3.573   5.894  15.969 -0.6389 -0.1344  0.2132
15013TIP3    H166530   3.557   5.841  15.891 -1.0895 -0.5714  0.5911
15013TIP3    H266531   3.668   5.904  15.973 -0.6811  2.4517 -2.0674
15014TIP3   OH266532   4.454   2.661   1.523  0.1466 -0.0145 -0.1123
15014TIP3    H166533   4.475   2.700   1.438  1.1404  0.2806  0.2540
15014TIP3    H266534   4.454   2.734   1.584 -2.2117  0.0312 -0.1022
15015TIP3   OH266535   2.053   4.661  10.502  0.5366  0.0942  0.3677
15015TIP3    H166536   2.003   4.723  10.449  1.5276 -0.3861 -1.1826
15015TIP3    H266537   1.990   4.594  10.527  0.0156  0.4186 -0.0701
15016TIP3   OH266538   2.334   5.712  14.624 -0.2627  0.1677  0.4895
15016TIP3    H166539   2.428   5.727  14.638 -0.3400  0.4026  0.7570
15016TIP3    H266540   2.303   5.792  14.583 -0.0445 -0.4932 -1.0408
15017TIP3   OH266541   4.081   3.278  10.610 -0.0944 -0.0186 -0.5251
15017TIP3    H166542   4.113   3.359  10.650  0.0342  0.1481 -0.9562
15017TIP3    H266543   4.001   3.304  10.564 -0.7047 -0.3770  0.3118
15018TIP3   OH266544   4.277   5.435  12.557 -0.5874  0.1141 -0.1451
15018TIP3    H166545   4.221   5.492  12.504  0.0505  0.2253 -0.7039
15018TIP3    H266546   4.306   5.367  12.497  1.0237  0.8411 -0.2426
15019TIP3   OH266547   1.343   6.117   0.946 -0.3917  0.2577  0.7258
15019TIP3    H166548   1.424   6.069   0.963 -0.9042 -0.3786  1.4461
15019TIP3    H266549   1.290   6.105   1.026 -1.0577  0.9465  0.4086
15020TIP3   OH266550   6.453   1.427   3.061 -0.0397  0.0652 -0.2880
15020TIP3    H166551   6.360   1.427   3.039  0.2104 -1.7514 -1.5894
15020TIP3    H266552   6.465   1.352   3.119  0.1870  1.9817  2.3339
15021TIP3   OH266553   1.306   5.769  14.927 -0.5861  0.1311 -0.0624
15021TIP3    H166554   1.390   5.788  14.885 -0.4934 -1.3690 -0.6146
15021TIP3    H266555   1.255   5.725  14.859 -0.9358 -1.1180  0.9664
15022TIP3   OH266556   3.858   3.459  12.404  0.0220 -0.2105 -0.3294
15022TIP3    H166557   3.811   3.388  12.360 -1.6840 -1.3681  2.9755
15022TIP3    H266558   3.904   3.416  12.477 -2.2046  2.0744  2.6773
15023TIP3   OH266559   2.970   5.104   4.614  0.2190  0.3177  0.1792
15023TIP3    H166560   2.919   5.088   4.534 -0.2044  1.0889  0.2857
15023TIP3    H266561   2.976   5.199   4.620 -1.7396  0.3975  2.2909
15024TIP3   OH266562   2.072   4.772  11.624 -0.4944 -0.5490 -0.0030
15024TIP3    H166563   1.994   4.776  11.569 -0.3436  1.2478 -0.1364
15024TIP3    H266564   2.121   4.697  11.589 -0.2566  0.6842 -2.5766
15025TIP3   OH266565   1.871   6.252  12.348  0.4201  0.3104 -0.0167
15025TIP3    H166566   1.831   6.306  12.416 -0.5420 -0.0057 -0.3005
15025TIP3    H266567   1.822   6.275  12.268 -0.2762 -1.2149 -0.0745
15026TIP3   OH266568   6.825   1.140   2.311 -0.1248 -0.8388 -0.1107
15026TIP3    H166569   6.898   1.131   2.372  0.2158 -1.1716 -0.5550
15026TIP3    H266570   6.865   1.175   2.231 -0.7983  0.9211  0.2984
15027TIP3   OH266571   2.998   5.114   3.218  0.3773 -0.0143  0.7065
15027TIP3    H166572   2.971   5.202   3.190  2.1025  0.8885  1.7110
15027TIP3    H266573   2.917   5.063   3.215 -0.7147  1.6351  0.2410
15028TIP3   OH266574   1.971   6.323  14.669 -0.1753  0.1109 -0.1595
15028TIP3    H166575   1.912   6.374  14.614  2.9926  2.4737 -1.6423
15028TIP3    H266576   1.953   6.232  14.645 -0.4531  0.9375 -3.5562
15029TIP3   OH266577   0.409   0.518  15.845 -0.5348 -0.1617 -0.0605
15029TIP3    H166578   0.325   0.511  15.801 -0.9488 -1.2283  0.8457
15029TIP3    H266579   0.424   0.612  15.854  0.1282  0.1838 -3.4392
15030TIP3   OH266580   5.420   3.353   2.703  0.1334 -0.2198 -0.6284
15030TIP3    H166581   5.401   3.259   2.707 -0.4154 -0.0710  0.9571
15030TIP3    H266582   5.430   3.379   2.794  1.0368  1.1262 -1.0851
15031TIP3   OH266583   2.745   2.634   5.644  0.0540  0.2512  0.1447
15031TIP3    H166584   2.743   2.706   5.580  1.1402 -1.4262 -1.9065
15031TIP3    H266585   2.783   2.673   5.723 -0.7668  2.2675 -0.3956
15032TIP3   OH266586   2.549   5.504  12.305 -0.1802 -0.6337  0.6567
15032TIP3    H166587   2.541   5.591  12.267  1.0945 -0.3270  1.0285
15032TIP3    H266588   2.635   5.473  12.277  1.4423  0.1223  4.1322
15033TIP3   OH266589   2.469   3.185  13.821  0.3465 -0.2141 -0.0396
15033TIP3    H166590   2.417   3.254  13.780  0.9966  0.1000 -0.3587
15033TIP3    H266591   2.438   3.104  13.780 -0.4943 -0.1388  0.4132
15034TIP3   OH266592   5.101   3.225   0.586 -0.5951 -0.4538 -0.0845
15034TIP3    H166593   5.181   3.276   0.601 -0.4680 -0.9160  0.9044
15034TIP3    H266594   5.125   3.136   0.613 -0.6815 -1.1641 -2.1724
15035TIP3   OH266595   4.337   3.481  16.478 -0.4256  0.4124 -0.0416
15035TIP3    H166596   4.396   3.525  16.539 -0.8513  0.7123  0.1575
15035TIP3    H266597   4.331   3.540  16.403  1.1999 -0.5893 -1.0132
15036TIP3   OH266598   5.173   2.076  14.160 -0.4367 -0.3305 -0.8234
15036TIP3    H166599   5.161   2.089  14.254  0.5815 -1.8600 -0.4324
15036TIP3    H266600   5.206   2.160  14.129 -1.1712  0.3249  0.1064
15037TIP3   OH266601   3.881   5.753   0.482 -0.2054  0.0103 -0.2725
15037TIP3    H166602   3.948   5.707   0.532  4.1896  2.5322 -3.0531
15037TIP3    H266603   3.873   5.703   0.400 -1.8439 -0.2368 -0.0006
15038TIP3   OH266604   5.486   3.158   0.404 -0.0508  0.0994 -0.3188
15038TIP3    H166605   5.557   3.191   0.459  1.3448 -0.9585 -1.4130
15038TIP3    H266606   5.421   3.125   0.466  0.9441  0.0057  0.7092
15039TIP3   OH266607   2.816   5.375   0.747 -0.0161 -0.4315  0.0397
15039TIP3    H166608   2.729   5.384   0.708 -0.0868 -2.0012 -0.2257
15039TIP3    H266609   2.871   5.342   0.676  0.1234 -2.1741  0.8975
15040TIP3   OH266610   5.331   3.356  15.346 -0.9204  0.7672  0.0248
15040TIP3    H166611   5.358   3.325  15.259 -0.8163  1.2295 -0.1131
15040TIP3    H266612   5.341   3.280  15.403  1.4866  1.0990  0.1565
15041TIP3   OH266613   3.050   3.027  11.340 -0.4396  0.1629  0.3156
15041TIP3    H166614   3.003   2.978  11.409 -1.7058 -0.3724 -0.8820
15041TIP3    H266615   3.016   3.116  11.347  1.9930  1.0513  2.6110
15042TIP3   OH266616   3.409   2.884  11.660 -0.5019  0.0524  0.2168
15042TIP3    H166617   3.443   2.920  11.742 -0.1260 -0.8890  0.4841
15042TIP3    H266618   3.379   2.961  11.611 -1.0193  0.6151  1.3579
15043TIP3   OH266619   4.493   2.306  12.080  0.2196 -0.4093 -0.3463
15043TIP3    H166620   4.538   2.230  12.116 -0.3276 -0.3233  0.5370
15043TIP3    H266621   4.543   2.328  12.001  0.4459 -1.6159 -0.5659
15044TIP3   OH266622   1.647   5.414   5.125  0.4357  0.4405  0.1520
15044TIP3    H166623   1.577   5.468   5.162 -0.0670 -0.6189  0.7949
15044TIP3    H266624   1.639   5.426   5.031 -1.4929 -0.6833  0.1206
15045TIP3   OH266625   5.098   3.789   2.536 -0.0681 -0.4217 -0.1433
15045TIP3    H166626   5.054   3.828   2.611 -1.9922  0.1018 -1.4724
15045TIP3    H266627   5.039   3.720   2.505  1.0420 -1.1469 -0.7253
15046TIP3   OH266628   5.792   4.312   2.104 -0.0745  0.0875  0.5635
15046TIP3    H166629   5.738   4.266   2.169 -0.3742  0.9649  0.9492
15046TIP3    H266630   5.881   4.300   2.135  0.0300 -1.7741 -0.3283
15047TIP3   OH266631   4.502   1.731   5.824  0.7273 -0.4292  0.3144
15047TIP3    H166632   4.490   1.745   5.730  0.8509  1.6446  0.5751
15047TIP3    H266633   4.596   1.713   5.833  1.1905  1.7527  0.2643
15048TIP3   OH266634   0.253   1.340   2.969 -0.6156 -0.3442 -0.2764
15048TIP3    H166635   0.233   1.403   2.900  1.5002  1.1191  0.3516
15048TIP3    H266636   0.264   1.393   3.048  1.3008 -1.4372  0.2536
15049TIP3   OH266637   3.554   5.765   0.318  0.2074  0.6470 -0.4552
15049TIP3    H166638   3.532   5.702   0.386 -0.7791 -0.9187 -2.1203
15049TIP3    H266639   3.471   5.809   0.298 -0.3333 -1.2198 -2.8025
15050TIP3   OH266640   1.993   0.746   2.472 -1.0577  0.0933 -0.5005
15050TIP3    H166641   1.909   0.724   2.432  0.1583  0.5174 -3.5608
15050TIP3    H266642   2.036   0.661   2.485 -1.1856 -0.0166 -0.7883
15051TIP3   OH266643   0.130   1.260  12.503 -0.5946  0.0502  0.3048
15051TIP3    H166644   0.081   1.274  12.584 -0.2600  1.0284  0.3519
15051TIP3    H266645   0.207   1.317  12.511 -0.0340 -0.6066 -0.2613
15052TIP3   OH266646   5.424   3.488  11.265  0.2357  0.3975  0.0429
15052TIP3    H166647   5.506   3.509  11.309  0.1449 -0.2835  0.5635
15052TIP3    H266648   5.362   3.553  11.298  0.5246  0.8201 -0.2388
15053TIP3   OH266649   2.489   6.166   3.716 -0.3693  0.4933  0.1086
15053TIP3    H166650   2.427   6.095   3.729 -0.5355  0.4736 -0.7280
15053TIP3    H266651   2.436   6.239   3.684  0.1039  0.2993 -1.1743
15054TIP3   OH266652   5.829   5.460  17.170  0.2163 -0.5437  0.6609
15054TIP3    H166653   5.880   5.457  17.089  0.7391 -0.9836  1.0005
15054TIP3    H266654   5.752   5.512  17.148  0.5257 -0.3660 -0.0217
15055TIP3   OH266655   4.517   2.116   5.734 -0.1795 -0.6057  0.3293
15055TIP3    H166656   4.473   2.190   5.776 -2.0928 -1.6245  0.2462
15055TIP3    H266657   4.542   2.149   5.647  0.1593  0.2999  0.7570
15056TIP3   OH266658   2.019   4.303   3.503  0.8553  0.1732  0.1510
15056TIP3    H166659   2.040   4.354   3.581  0.4281 -0.7533  0.8880
15056TIP3    H266660   2.049   4.358   3.430  1.5094  0.9317  0.9651
15057TIP3   OH266661   5.524   5.784   4.279  0.1121  0.2259  0.0230
15057TIP3    H166662   5.587   5.739   4.223 -0.5978  1.0331 -1.5071
15057TIP3    H266663   5.528   5.875   4.251 -3.4531 -0.0489 -1.9945
15058TIP3   OH266664   3.251   5.591  16.877  0.3280 -0.7369 -0.6241
15058TIP3    H166665   3.249   5.616  16.969 -1.2048 -0.8023 -0.6057
15058TIP3    H266666   3.341   5.605  16.850 -0.0037  3.2691 -0.2085
15059TIP3   OH266667   1.323   5.156   3.161  0.4966  0.2107 -0.2263
15059TIP3    H166668   1.350   5.207   3.237  2.1357 -0.5966 -0.2193
15059TIP3    H266669   1.366   5.198   3.087  1.5112 -0.8742 -0.2727
15060TIP3   OH266670   5.795   5.111   0.689  0.2895  0.4160  0.5363
15060TIP3    H166671   5.826   5.039   0.743  0.5144 -0.8842 -1.2539
15060TIP3    H266672   5.874   5.160   0.667  0.3686  0.1821  0.3021
15061TIP3   OH266673   0.713   4.806   0.321 -0.2306  0.1409 -0.5245
15061TIP3    H166674   0.728   4.850   0.237 -2.5640  1.0016 -0.5638
15061TIP3    H266675   0.666   4.871   0.373 -0.4913 -1.0499  0.7602
15062TIP3   OH266676   3.362   3.003  14.629 -0.4589 -0.0379 -0.1991
15062TIP3    H166677   3.337   3.094  14.645 -1.6263 -0.1966 -0.9876
15062TIP3    H266678   3.291   2.968  14.576  0.2967 -1.2314 -0.4586
15063TIP3   OH266679   4.190   6.467   6.030 -0.2118  0.6014  0.2200
15063TIP3    H166680   4.197   6.375   6.055  1.8397  0.9287  1.0741
15063TIP3    H266681   4.109   6.497   6.072 -0.0874 -0.4257  1.2522
15064TIP3   OH266682   0.312   3.927  11.642  0.1373 -0.1880  0.1814
15064TIP3    H166683   0.328   3.835  11.625  1.0653  0.1927 -1.1695
15064TIP3    H266684   0.355   3.973  11.570 -0.8777  1.2727  0.4540
15065TIP3   OH266685   4.857   5.400  13.648  0.1181 -0.6476 -0.0927
15065TIP3    H166686   4.766   5.426  13.663  0.0384 -0.1003 -1.3730
15065TIP3    H266687   4.851   5.324  13.591  0.4746 -0.1743 -0.7704
15066TIP3   OH266688   6.663   5.249   4.888 -0.1629 -0.5205  0.0833
15066TIP3    H166689   6.642   5.206   4.806 -0.5492  0.2537 -0.2334
15066TIP3    H266690   6.639   5.185   4.956  0.1294 -1.1464 -0.3974
15067TIP3   OH266691   1.354   4.620   2.084  0.2698 -0.1511  0.2483
15067TIP3    H166692   1.374   4.594   2.174 -0.8601  0.6874  0.7676
15067TIP3    H266693   1.266   4.584   2.067  0.2346  0.1769 -0.3085
15068TIP3   OH266694   2.280   6.323  10.688 -0.2483  0.8933 -0.0298
15068TIP3    H166695   2.240   6.358  10.768  0.6230  0.2891  0.6965
15068TIP3    H266696   2.315   6.399  10.643 -0.0407  1.1715  0.5830
15069TIP3   OH266697   3.255   0.692   0.740  0.1555 -0.0613  0.0089
15069TIP3    H166698   3.303   0.737   0.810 -0.7146 -0.0164  0.5945
15069TIP3    H266699   3.321   0.674   0.673  0.3423  3.0848 -0.7807
15070TIP3   OH266700   5.722   1.735  17.016 -0.3050  0.8989 -0.2852
15070TIP3    H166701   5.750   1.827  17.020 -1.3697  1.2415 -0.4147
15070TIP3    H266702   5.628   1.738  17.033 -0.1458 -0.3023  0.9610
15071TIP3   OH266703   5.537   5.966  10.768  0.1212 -0.7557  0.2473
15071TIP3    H166704   5.535   5.931  10.857 -0.9777  2.0153  1.4391
15071TIP3    H266705   5.590   6.045  10.774  1.1463 -1.1838 -1.9169
15072TIP3   OH266706   6.099   3.797   1.825  0.4280  0.7041 -0.2179
15072TIP3    H166707   6.045   3.719   1.837 -0.0888  1.0302 -0.3695
15072TIP3    H266708   6.170   3.787   1.888 -0.9645  1.2788  1.5529
15073TIP3   OH266709   5.848   5.074  14.585  0.2696  0.4844  0.2584
15073TIP3    H166710   5.796   5.097  14.509  2.0053  1.1877 -0.7622
15073TIP3    H266711   5.931   5.043  14.550  0.5719 -0.6429  1.8330
15074TIP3   OH266712   0.229   1.074   2.475  0.5050  0.3737 -0.3953
15074TIP3    H166713   0.240   1.083   2.570 -1.3421 -0.2283 -0.0844
15074TIP3    H266714   0.265   0.988   2.454  1.7435  0.8813 -0.4062
15075TIP3   OH266715   5.956   0.327   1.897  0.9137  0.4465  0.5284
15075TIP3    H166716   5.886   0.267   1.923  2.3362 -1.1243  0.8936
15075TIP3    H266717   6.011   0.276   1.837  1.0919  2.0479 -0.7426
15076TIP3   OH266718   2.379   6.698  12.232 -0.0358  0.4900 -0.2633
15076TIP3    H166719   2.388   6.603  12.232 -0.8210  0.3605  1.6266
15076TIP3    H266720   2.451   6.729  12.286  0.7891  1.0861 -1.6544
15077TIP3   OH266721   4.145   3.790   5.361 -0.0987  0.2327 -0.3784
15077TIP3    H166722   4.200   3.748   5.427  0.3964  0.2868 -0.7565
15077TIP3    H266723   4.099   3.859   5.410  0.0917  0.1239 -0.0385
15078TIP3   OH266724   0.376   6.100   2.475 -0.6235 -0.1003  0.2968
15078TIP3    H166725   0.460   6.140   2.497 -0.5697 -0.4679  0.7771
15078TIP3    H266726   0.323   6.113   2.554 -1.3480  0.9851 -0.3385
15079TIP3   OH266727   0.328   6.007  16.881  0.1289  0.1390  0.3333
15079TIP3    H166728   0.372   5.961  16.952 -0.6945 -0.0380  0.7432
15079TIP3    H266729   0.234   5.996  16.900 -0.0925  1.7124  0.2585
15080TIP3   OH266730   3.604   4.174  15.061 -0.2441 -0.2914 -0.3589
15080TIP3    H166731   3.562   4.146  15.142 -0.3396  1.5351  0.2568
15080TIP3    H266732   3.555   4.251  15.033  1.5175  0.8070 -0.6062
15081TIP3   OH266733   0.508   4.506   3.942 -0.2524  0.6151 -0.5543
15081TIP3    H166734   0.517   4.445   4.015 -3.4570 -0.6488 -1.0188
15081TIP3    H266735   0.579   4.568   3.953  1.6641 -1.7198  1.4286
15082TIP3   OH266736   5.868   1.081   5.180 -0.0875 -0.2387 -0.0170
15082TIP3    H166737   5.959   1.064   5.203 -0.0195 -0.7171 -0.6337
15082TIP3    H266738   5.873   1.136   5.102 -0.2951 -2.7253 -1.8894
15083TIP3   OH266739   5.835   2.717  12.683  0.2801  0.8000 -0.2729
15083TIP3    H166740   5.765   2.658  12.655 -0.1412  1.2837 -0.2542
15083TIP3    H266741   5.839   2.784  12.615  0.3567  1.0714 -0.0051
15084TIP3   OH266742   1.308   4.346  13.614 -0.1228 -0.1192 -0.1525
15084TIP3    H166743   1.260   4.399  13.551 -0.8854  0.9441  1.2634
15084TIP3    H266744   1.270   4.369  13.699  0.9700 -1.3812  0.7267
15085TIP3   OH266745   1.144   2.754   0.153  0.0756 -0.6429 -0.4781
15085TIP3    H166746   1.207   2.771   0.082 -1.0322 -1.4792 -1.7177
15085TIP3    H266747   1.072   2.815   0.136  1.6135  2.3695  2.5588
15086TIP3   OH266748   1.613   5.448  11.324 -0.3087 -0.0506 -0.1322
15086TIP3    H166749   1.705   5.428  11.340 -0.6890 -1.6640  0.2095
15086TIP3    H266750   1.610   5.543  11.321  1.2368  0.0600  0.6589
15087TIP3   OH266751   4.629   5.244   0.797  0.1186  0.0897 -0.2988
15087TIP3    H166752   4.586   5.209   0.875  0.5999 -0.9175 -0.4717
15087TIP3    H266753   4.722   5.229   0.811  0.2611  0.4453 -0.8138
15088TIP3   OH266754   1.211   4.881   0.145 -0.2048  0.3144 -0.0629
15088TIP3    H166755   1.174   4.948   0.088  0.8326  1.3014  0.3836
15088TIP3    H266756   1.223   4.805   0.088  0.5091  1.1692 -1.0882
15089TIP3   OH266757   4.671   3.654   3.997 -0.1030  0.1394 -0.3547
15089TIP3    H166758   4.637   3.674   4.084  0.2239  0.5492 -0.3170
15089TIP3    H266759   4.601   3.606   3.954 -0.3049  0.0201  0.1012
15090TIP3   OH266760   2.342   1.720   0.795 -0.4553  0.1783  0.0575
15090TIP3    H166761   2.273   1.775   0.759 -0.6554 -0.9314 -1.3078
15090TIP3    H266762   2.296   1.651   0.843 -0.3044 -0.4238 -0.6490
15091TIP3   OH266763   6.542   2.673  15.199 -0.4095 -0.2633 -0.2803
15091TIP3    H166764   6.572   2.700  15.112 -0.1078 -0.9966 -0.4053
15091TIP3    H266765   6.506   2.585  15.187  0.4996 -0.7680  0.5002
15092TIP3   OH266766   4.499   5.568  11.421  0.3831 -0.5809  0.3718
15092TIP3    H166767   4.511   5.473  11.421  3.8733 -0.2680 -0.6626
15092TIP3    H266768   4.508   5.593  11.329 -0.1939  0.7914  0.6655
15093TIP3   OH266769   3.049   2.223  16.614  0.2170  0.3639 -0.6974
15093TIP3    H166770   2.983   2.159  16.642  0.9614 -0.6896 -1.2502
15093TIP3    H266771   3.069   2.273  16.693 -2.2747  1.7048 -0.8323
15094TIP3   OH266772   2.610   6.040   0.808  0.2314 -0.2570  0.3857
15094TIP3    H166773   2.564   6.031   0.891 -0.2997 -2.2573 -0.0694
15094TIP3    H266774   2.548   6.083   0.750  0.1737  0.0499  0.6672
15095TIP3   OH266775   3.338   5.360  10.990 -0.2893  0.6879  0.2503
15095TIP3    H166776   3.420   5.318  11.017 -0.4035  0.4016  0.1499
15095TIP3    H266777   3.311   5.311  10.912  1.0854  2.7067 -1.6421
15096TIP3   OH266778   4.618   4.060   0.687 -0.1663 -0.0132 -0.7113
15096TIP3    H166779   4.642   4.142   0.643 -1.3812  0.9098  0.2819
15096TIP3    H266780   4.560   4.087   0.758 -0.9956 -1.7936 -0.6675
15097TIP3   OH266781   1.624   1.941   5.198  0.3993  0.7791  0.4895
15097TIP3    H166782   1.592   1.957   5.109  0.2378  0.7378  0.5408
15097TIP3    H266783   1.545   1.929   5.251  0.4955  0.7866  0.6357
15098TIP3   OH266784   1.156   1.279  12.976  0.1742 -0.5129 -0.6724
15098TIP3    H166785   1.206   1.305  12.899 -0.5726 -0.8517 -1.2870
15098TIP3    H266786   1.122   1.192  12.954  0.6613 -0.9808  0.3870
15099TIP3   OH266787   0.178   5.579   2.437 -0.4808 -0.3635  0.2648
15099TIP3    H166788   0.248   5.571   2.373  1.1232  3.1266  1.3601
15099TIP3    H266789   0.218   5.556   2.520 -1.1916 -0.0976  0.6916
15100TIP3   OH266790   0.153   4.416   1.838 -0.9334 -0.3127 -0.1843
15100TIP3    H166791   0.219   4.363   1.883 -0.9683  0.0321  0.2769
15100TIP3    H266792   0.069   4.376   1.861 -0.8471 -1.7610 -2.0689
15101TIP3   OH266793   2.468   2.215   2.636  0.0931 -0.5419 -0.7386
15101TIP3    H166794   2.530   2.164   2.583  0.2523 -1.2902  0.1378
15101TIP3    H266795   2.441   2.155   2.705  1.8140  1.1355  1.5490
15102TIP3   OH266796   4.138   2.426  11.927  0.4569 -0.4917 -0.3477
15102TIP3    H166797   4.148   2.333  11.907 -0.2286 -0.7138  0.2771
15102TIP3    H266798   4.196   2.471  11.866 -0.3350 -1.2382 -1.6927
15103TIP3   OH266799   4.629   2.698  13.903  0.2510  0.8011 -0.1851
15103TIP3    H166800   4.592   2.720  13.817 -0.8194 -0.6348 -0.1399
15103TIP3    H266801   4.559   2.648  13.946  1.0545  0.8750  1.2314
15104TIP3   OH266802   1.825   5.156   1.640 -0.3023  0.0302 -0.5565
15104TIP3    H166803   1.831   5.248   1.616  0.3112  0.0939 -0.1813
15104TIP3    H266804   1.735   5.131   1.617 -0.6918  0.8937 -0.0361
15105TIP3   OH266805   5.619   6.103  14.857 -0.3939  0.0725  0.0337
15105TIP3    H166806   5.646   6.102  14.765  1.7016 -0.5697  0.6026
15105TIP3    H266807   5.567   6.183  14.866  0.0631  0.5758 -1.5055
15106TIP3   OH266808   2.769   2.510  15.614 -0.2552 -0.2186 -0.3675
15106TIP3    H166809   2.743   2.571  15.545  0.4649 -0.4900 -0.8906
15106TIP3    H266810   2.774   2.425  15.570  2.5875 -0.0192 -0.5895
15107TIP3   OH266811   0.640   4.472   2.577 -0.4262  0.1051 -0.0467
15107TIP3    H166812   0.719   4.525   2.566 -1.2218  1.2055 -0.7714
15107TIP3    H266813   0.643   4.409   2.505  0.6999 -1.1203  1.0208
15108TIP3   OH266814   5.272   4.604  11.862  0.2152 -0.0135  0.9258
15108TIP3    H166815   5.199   4.611  11.800  0.6776  0.7705  0.4550
15108TIP3    H266816   5.273   4.512  11.887 -0.7989 -0.0739  0.7699
15109TIP3   OH266817   6.760   2.562   2.314 -0.1189  0.0293  0.6852
15109TIP3    H166818   6.819   2.552   2.240 -0.2171  1.7022  0.3308
15109TIP3    H266819   6.809   2.615   2.378 -0.7623  0.3458  0.9306
15110TIP3   OH266820   3.056   5.123  16.236  0.6036 -0.4190 -0.3516
15110TIP3    H166821   3.041   5.028  16.230 -0.5350 -0.2730 -0.0607
15110TIP3    H266822   3.151   5.132  16.238  0.7239 -1.5770 -0.1231
15111TIP3   OH266823   4.683   0.507  13.978  0.6538  0.0391 -0.4366
15111TIP3    H166824   4.672   0.486  14.071 -0.1700  0.4171 -0.4382
15111TIP3    H266825   4.698   0.601  13.976  1.8311 -0.1464 -0.6089
15112TIP3   OH266826   5.905   4.629   1.125  0.7741  0.2102  0.1647
15112TIP3    H166827   5.822   4.675   1.108  0.8469  0.2808 -0.0003
15112TIP3    H266828   5.919   4.576   1.047  1.6420  1.3257 -0.4640
15113TIP3   OH266829   0.794   3.191   4.528 -0.5164 -0.5667 -0.4141
15113TIP3    H166830   0.767   3.215   4.439 -0.4868  0.4841 -0.1497
15113TIP3    H266831   0.888   3.208   4.530 -0.5190 -0.5738 -0.1769
15114TIP3   OH266832   2.072   0.311   2.766  0.0981 -0.1615  0.1375
15114TIP3    H166833   2.145   0.256   2.793 -0.3340 -0.8916 -0.1507
15114TIP3    H266834   2.007   0.303   2.836 -0.0875 -0.2537 -0.0430
15115TIP3   OH266835   5.696   1.582   5.552  0.0429  0.1603  0.0894
15115TIP3    H166836   5.763   1.516   5.571  0.5180  0.6265  0.0444
15115TIP3    H266837   5.700   1.641   5.627 -0.4420  0.0921  0.1691
15116TIP3   OH266838   4.645   3.292  15.482 -0.3532  0.0144  0.6822
15116TIP3    H166839   4.576   3.262  15.542 -0.7073  0.4783  0.5170
15116TIP3    H266840   4.716   3.229  15.494 -0.9152 -0.6449  0.6370
15117TIP3   OH266841   5.079   3.615   0.770 -0.7825  0.2772  0.2852
15117TIP3    H166842   5.017   3.620   0.697 -0.1777  0.8094 -0.2004
15117TIP3    H266843   5.045   3.679   0.833 -2.7959 -1.9894  1.6860
15118TIP3   OH266844   5.948   1.367   2.442  0.0096  0.5179 -0.5158
15118TIP3    H166845   5.911   1.286   2.408  0.7090  0.2181 -0.5803
15118TIP3    H266846   5.939   1.429   2.369 -2.1424  1.0461  0.1059
15119TIP3   OH266847   6.130   2.957  14.539 -0.4361  0.2357 -0.4422
15119TIP3    H166848   6.195   2.888  14.530 -0.3125  0.2002  0.6374
15119TIP3    H266849   6.178   3.038  14.523 -0.4919  0.1040 -1.2991
15120TIP3   OH266850   3.850   1.518  14.612 -0.1784 -0.1908 -0.4120
15120TIP3    H166851   3.830   1.439  14.563  1.3942 -1.1481  0.4125
15120TIP3    H266852   3.792   1.515  14.688  0.3167 -0.9055 -0.0537
15121TIP3   OH266853   4.228   0.151   3.588  0.4837  0.2565  0.3173
15121TIP3    H166854   4.152   0.093   3.578 -0.1026  1.3344 -1.9781
15121TIP3    H266855   4.259   0.133   3.677 -1.6162 -1.2073  0.8417
15122TIP3   OH266856   1.456   4.763   1.453 -0.1821 -0.8275 -0.3317
15122TIP3    H166857   1.404   4.840   1.475  0.8614  0.2009 -1.3062
15122TIP3    H266858   1.531   4.765   1.513 -0.7619 -1.7948  0.4607
15123TIP3   OH266859   5.533   0.746  17.140 -0.0347  0.3753  0.2161
15123TIP3    H166860   5.611   0.800  17.155  1.6329 -1.4141 -1.3497
15123TIP3    H266861   5.481   0.756  17.219  2.1513  1.0961  1.6654
15124TIP3   OH266862   3.445   2.484  12.029  0.4714  0.2133 -0.0391
15124TIP3    H166863   3.372   2.439  11.987  1.5975 -1.8983  0.1340
15124TIP3    H266864   3.445   2.450  12.119  2.5126 -0.9597 -0.4379
15125TIP3   OH266865   6.663   5.865  12.290 -1.0493 -0.1363 -0.0157
15125TIP3    H166866   6.702   5.786  12.251  1.3926 -0.6354  3.0655
15125TIP3    H266867   6.702   5.937  12.241 -1.0876 -0.7682 -1.0155
15126TIP3   OH266868   4.229   2.838   0.970 -0.3456  0.1490  0.2317
15126TIP3    H166869   4.139   2.858   0.997 -0.0648  0.7657  0.7365
15126TIP3    H266870   4.258   2.916   0.922  0.3290  0.4734  1.1275
15127TIP3   OH266871   1.836   4.870   0.469  0.0863 -0.5382  0.4191
15127TIP3    H166872   1.764   4.921   0.431  0.1286  0.1079  1.1728
15127TIP3    H266873   1.796   4.786   0.492  0.3735 -1.5177 -2.3031
15128TIP3   OH266874   5.724   6.022   5.847  0.0663  0.4382  0.4191
15128TIP3    H166875   5.646   6.035   5.791  1.7590  0.1424 -2.1918
15128TIP3    H266876   5.794   6.067   5.800  1.7807 -0.5070  1.9710
15129TIP3   OH266877   5.412   1.760   0.756  0.0859 -0.1138 -0.1368
15129TIP3    H166878   5.338   1.811   0.789 -0.0515  0.7182 -1.6463
15129TIP3    H266879   5.380   1.724   0.673  1.1054 -0.4471 -0.3899
15130TIP3   OH266880   4.146   1.696   3.818 -0.1302  0.3429 -0.2159
15130TIP3    H166881   4.097   1.755   3.761 -0.4728  1.1082  0.8205
15130TIP3    H266882   4.236   1.727   3.813  0.0661 -0.3756 -1.2827
15131TIP3   OH266883   1.121   2.385   2.505 -0.7817 -0.2408  0.6459
15131TIP3    H166884   1.078   2.318   2.558 -1.0085 -0.8124 -0.2394
15131TIP3    H266885   1.111   2.355   2.415 -0.7187  0.8930  0.2392
15132TIP3   OH266886   3.662   0.369  16.302 -0.2320  0.3709  0.2169
15132TIP3    H166887   3.647   0.278  16.275 -0.0067  0.3221  0.2561
15132TIP3    H266888   3.575   0.402  16.323 -0.2691  0.0409  0.5823
15133TIP3   OH266889   6.682   5.435  14.782  0.1274 -0.3750 -0.5393
15133TIP3    H166890   6.641   5.436  14.868 -0.1151  1.1040 -0.6427
15133TIP3    H266891   6.677   5.526  14.752  1.0506 -0.6844 -1.7133
15134TIP3   OH266892   3.314   0.282   4.806 -0.2643 -0.0465 -0.6479
15134TIP3    H166893   3.389   0.323   4.850  0.9518 -0.7568 -1.9548
15134TIP3    H266894   3.275   0.225   4.873  0.8781 -0.2975 -0.1712
15135TIP3   OH266895   2.360   4.172   4.202 -0.4857  0.5013  0.1510
15135TIP3    H166896   2.313   4.102   4.247  1.9487 -1.4830 -0.1387
15135TIP3    H266897   2.444   4.178   4.248  0.2511  1.6506 -1.2537
15136TIP3   OH266898   4.636   3.110   4.638  0.1367  0.4634  0.0019
15136TIP3    H166899   4.588   3.159   4.571  0.4365 -0.0328 -0.5859
15136TIP3    H266900   4.567   3.070   4.692 -0.1469 -0.4921 -1.0194
15137TIP3   OH266901   6.075   6.657   2.646 -0.1071 -0.5222  0.0222
15137TIP3    H166902   6.046   6.744   2.618 -0.5451 -0.0206  1.9193
15137TIP3    H266903   6.159   6.672   2.689 -0.9368 -0.7588  1.8000
15138TIP3   OH266904   2.953   0.375   3.969  0.3773  0.1476  0.5464
15138TIP3    H166905   2.948   0.286   4.006 -0.0543 -0.4851 -0.9680
15138TIP3    H266906   2.870   0.387   3.924  0.4917  1.2835  0.6048
15139TIP3   OH266907   1.819   3.656  13.409  0.4015  0.6109  0.1786
15139TIP3    H166908   1.910   3.644  13.433  0.9752 -0.7540 -2.3451
15139TIP3    H266909   1.821   3.725  13.342 -0.4180  0.6570  0.1913
15140TIP3   OH266910   3.995   0.517   1.899  0.5442 -0.6812 -0.3247
15140TIP3    H166911   4.019   0.516   1.991  2.5113 -2.1420 -0.7649
15140TIP3    H266912   4.015   0.606   1.869 -0.3439 -0.1280  0.6717
15141TIP3   OH266913   5.399   0.987  16.131  0.0287  0.4480  0.0673
15141TIP3    H166914   5.345   1.065  16.140 -1.5553 -0.3686 -1.6113
15141TIP3    H266915   5.415   0.979  16.037  1.0421 -0.6760  0.2998
15142TIP3   OH266916   3.123   0.432   2.837 -0.1877 -0.3363  0.3231
15142TIP3    H166917   3.125   0.456   2.929  2.2673  1.6822 -0.1390
15142TIP3    H266918   3.214   0.419   2.813 -0.8108 -1.3865 -1.6993
15143TIP3   OH266919   3.832   3.902  15.355 -0.6318  0.2632 -0.2497
15143TIP3    H166920   3.769   3.894  15.284  0.1640  1.2895 -1.1000
15143TIP3    H266921   3.917   3.904  15.312 -0.1694  1.6560  0.6376
15144TIP3   OH266922   4.306   5.635   0.815  0.2741  0.5880 -0.1410
15144TIP3    H166923   4.222   5.616   0.855  1.2698 -1.0255  1.3266
15144TIP3    H266924   4.362   5.664   0.887  1.3213  0.4188 -0.8467
15145TIP3   OH266925   4.350   5.375  11.190 -0.0425  0.2884 -0.0331
15145TIP3    H166926   4.412   5.305  11.212  0.7778  1.5392  1.8438
15145TIP3    H266927   4.405   5.449  11.165 -0.8407  0.8291 -0.2202
15146TIP3   OH266928   4.951   2.172   1.305 -0.3503  1.0254 -0.2501
15146TIP3    H166929   4.974   2.099   1.362  0.5627  2.3287  1.1156
15146TIP3    H266930   4.885   2.136   1.246 -0.2753 -0.7641  0.6862
15147TIP3   OH266931   4.427   3.031   2.156  0.3008  0.1457  0.3387
15147TIP3    H166932   4.480   2.953   2.141  0.5224  0.0499  1.5270
15147TIP3    H266933   4.337   3.002   2.139  0.4074 -0.3042  0.5214
15148TIP3   OH266934   0.664   0.595   1.975  0.3217 -0.4555  0.1509
15148TIP3    H166935   0.724   0.669   1.984  1.3622 -1.3684  0.9212
15148TIP3    H266936   0.615   0.614   1.894  1.6870  0.2663 -0.5452
15149TIP3   OH266937   3.035   3.112  10.433 -0.4376 -0.5013 -0.1297
15149TIP3    H166938   3.120   3.154  10.448 -0.9486  0.9132 -1.0043
15149TIP3    H266939   3.043   3.025  10.473  2.1353 -1.2458 -2.0267
15150TIP3   OH266940   1.292   0.687  13.961  0.4706  0.0394  0.4754
15150TIP3    H166941   1.312   0.694  13.868  2.1535 -0.1042  0.7912
15150TIP3    H266942   1.320   0.770  13.998 -0.2993  0.1435  0.8521
15151TIP3   OH266943   5.683   6.706  11.913 -0.0207 -0.0879 -0.0722
15151TIP3    H166944   5.719   6.707  12.002 -0.1438  0.8755 -0.0224
15151TIP3    H266945   5.603   6.655  11.920 -0.3022  0.4147  0.4895
15152TIP3   OH266946   4.918   2.684   2.226  0.2125 -0.2924  0.4553
15152TIP3    H166947   4.826   2.659   2.237  0.2117 -0.2996  0.4305
15152TIP3    H266948   4.956   2.673   2.313  0.2334 -0.4674  0.4245
15153TIP3   OH266949   5.779   5.768   1.407 -0.3708 -0.2420 -0.6357
15153TIP3    H166950   5.786   5.684   1.454  2.4728 -0.6648 -1.6139
15153TIP3    H266951   5.805   5.748   1.318 -1.0229  1.4613 -1.2500
15154TIP3   OH266952   6.211   1.253   0.826 -0.0376  0.5586  0.0539
15154TIP3    H166953   6.154   1.323   0.795  1.6214  1.2085 -1.7166
15154TIP3    H266954   6.233   1.202   0.748  2.6941  1.0617  0.3822
15155TIP3   OH266955   1.812   2.426   3.301 -0.0044  0.4446 -0.6690
15155TIP3    H166956   1.881   2.359   3.303 -0.7241 -0.3490 -1.7752
15155TIP3    H266957   1.806   2.455   3.392  1.2949  0.0186 -0.4187
15156TIP3   OH266958   0.559   5.872   4.779  0.7416 -0.4370  0.2410
15156TIP3    H166959   0.537   5.814   4.852  0.0205 -1.1495 -0.5190
15156TIP3    H266960   0.586   5.954   4.821 -1.0795 -0.3190  1.3054
15157TIP3   OH266961   4.919   0.021   5.471  0.1657 -0.1590 -0.4637
15157TIP3    H166962   4.962   0.071   5.401  0.4933 -0.6002 -0.5820
15157TIP3    H266963   4.913   0.083   5.544  1.4252 -0.2177 -0.2820
15158TIP3   OH266964   6.023   4.697   5.300  0.1300 -0.1540  0.0044
15158TIP3    H166965   6.007   4.603   5.304 -1.8892  0.1581 -0.0871
15158TIP3    H266966   6.023   4.719   5.207  0.2641 -0.0028  0.0381
15159TIP3   OH266967   4.051   6.395   0.945  0.3812 -0.0924  0.3974
15159TIP3    H166968   4.096   6.462   0.996 -1.6002 -0.1189  2.3517
15159TIP3    H266969   4.104   6.316   0.956  1.1054  0.4194  0.6405
15160TIP3   OH266970   2.624   1.808   5.213  0.5587  0.2127  0.2361
15160TIP3    H166971   2.561   1.816   5.285  0.0477 -0.5134 -0.1240
15160TIP3    H266972   2.572   1.783   5.137  1.2786 -0.4911 -0.0497
15161TIP3   OH266973   6.471   0.766   0.751  0.4564  0.1554  0.1272
15161TIP3    H166974   6.413   0.706   0.704 -1.0933  0.9620  0.9303
15161TIP3    H266975   6.491   0.835   0.688  0.6138 -0.1681 -0.1783
15162TIP3   OH266976   3.411   0.467  12.408 -0.6191  0.2910 -0.2005
15162TIP3    H166977   3.321   0.437  12.420 -0.2458 -1.1582 -0.8470
15162TIP3    H266978   3.407   0.562  12.422 -2.3108  0.2999 -0.5739
15163TIP3   OH266979   3.130   0.211   5.197 -0.5695 -0.5639  0.4825
15163TIP3    H166980   3.125   0.157   5.276 -1.7140  0.2607  1.0032
15163TIP3    H266981   3.119   0.149   5.125 -2.9577 -0.9417  1.0905
15164TIP3   OH266982   4.517   6.585  15.232  0.3851 -0.2081  0.0435
15164TIP3    H166983   4.543   6.661  15.284 -3.0330  0.3392  1.2015
15164TIP3    H266984   4.536   6.509  15.287  0.3585  0.0833  0.4505
15165TIP3   OH266985   6.693   2.977  13.207  0.3264  0.1217  0.1377
15165TIP3    H166986   6.651   3.045  13.260  1.8425  1.6102 -0.4846
15165TIP3    H266987   6.689   2.898  13.262 -1.1298  0.7811  1.0453
15166TIP3   OH266988   2.097   0.973   4.016 -0.0649 -0.3248 -0.0823
15166TIP3    H166989   2.059   0.918   4.084 -1.2849 -0.0116 -0.4900
15166TIP3    H266990   2.163   1.026   4.062 -0.9201 -0.0724  0.8833
15167TIP3   OH266991   1.279   3.749  13.613  0.2859 -0.3356 -0.1876
15167TIP3    H166992   1.358   3.788  13.575 -0.8495  2.2026 -0.1428
15167TIP3    H266993   1.207   3.783  13.559 -0.9187 -1.2662  0.7694
15168TIP3   OH266994   6.385   5.484  14.133  0.1699 -0.3373  0.0315
15168TIP3    H166995   6.413   5.398  14.166 -0.2377 -1.1992 -1.7563
15168TIP3    H266996   6.420   5.488  14.044 -3.4725 -0.5976 -1.5927
15169TIP3   OH266997   2.019   2.389   5.067 -0.1424  0.3246 -0.3960
15169TIP3    H166998   2.027   2.360   5.158 -0.0483 -0.2234 -0.5764
15169TIP3    H266999   1.953   2.331   5.029  0.2433  0.1720 -0.8382
15170TIP3   OH267000   3.741   1.123   2.814  0.2409  0.1639 -0.6173
15170TIP3    H167001   3.816   1.105   2.870  0.4326  0.5294 -0.7551
15170TIP3    H267002   3.672   1.065   2.847  0.1415  0.8466  0.4322
15171TIP3   OH267003   3.707   6.375  13.422  0.1350  0.0504 -0.5348
15171TIP3    H167004   3.629   6.323  13.441 -0.2829  1.3115  1.5722
15171TIP3    H267005   3.682   6.429  13.347 -0.8417  0.0720 -0.2145
15172TIP3   OH267006   6.011   0.515  16.206  0.5944 -0.7714  0.3017
15172TIP3    H167007   6.077   0.447  16.194  0.8317 -0.2869 -1.4365
15172TIP3    H267008   6.028   0.578  16.135 -0.2709  0.5584  1.2228
15173TIP3   OH267009   1.710   4.100   1.112  0.1003  0.2308  0.3528
15173TIP3    H167010   1.804   4.111   1.100  0.1579  1.2190  1.5627
15173TIP3    H267011   1.702   4.034   1.180 -0.0510  0.9782  1.0701
15174TIP3   OH267012   6.638   4.433  15.886  0.2151 -0.6995 -0.0441
15174TIP3    H167013   6.581   4.504  15.915 -0.7304 -2.1641  1.9100
15174TIP3    H267014   6.727   4.463  15.907  0.0377  0.6829 -1.0996
15175TIP3   OH267015   1.668   3.382  13.669 -0.2046  0.4217  0.0094
15175TIP3    H167016   1.644   3.291  13.650 -1.2317  0.8661 -0.9971
15175TIP3    H267017   1.764   3.383  13.665  0.0251 -1.1617  2.8300
15176TIP3   OH267018   2.924   0.645  13.358 -0.3699 -0.2034 -0.7771
15176TIP3    H167019   2.919   0.612  13.269  1.5833  0.2500 -1.1198
15176TIP3    H267020   2.924   0.740  13.349 -1.6153 -0.1297 -0.1583
15177TIP3   OH267021   4.697   1.183  15.068  0.1439 -0.1056  0.0267
15177TIP3    H167022   4.659   1.124  15.003  0.2653 -0.2332  0.0698
15177TIP3    H267023   4.693   1.134  15.150 -1.3052  0.5865  0.4100
15178TIP3   OH267024   0.165   1.247  14.609  0.1117  0.1120 -0.0596
15178TIP3    H167025   0.170   1.261  14.514  1.9554 -3.0748 -0.5691
15178TIP3    H267026   0.124   1.161  14.619  0.8877 -0.0826  1.9662
15179TIP3   OH267027   3.255   0.216  15.292 -0.6593 -0.3049 -0.4916
15179TIP3    H167028   3.234   0.165  15.371 -0.2464  2.5214  1.5862
15179TIP3    H267029   3.172   0.255  15.266 -0.3122  0.9722  0.2552
15180TIP3   OH267030   1.809   2.568   5.024  0.5799  0.3559 -0.0719
15180TIP3    H167031   1.880   2.633   5.033  0.6369  0.1124  1.7748
15180TIP3    H267032   1.844   2.490   5.067 -0.4798 -0.0543  0.0549
15181TIP3   OH267033   2.973   5.881  11.850 -0.2688  0.0350 -0.2236
15181TIP3    H167034   3.058   5.843  11.827 -0.3186  0.6602 -1.4857
15181TIP3    H267035   2.919   5.805  11.872  0.9199 -0.3153  1.7920
15182TIP3   OH267036   4.981   3.031  13.434  0.5592 -0.0438  0.4277
15182TIP3    H167037   4.943   2.944  13.426 -0.3149  0.2344  1.2807
15182TIP3    H267038   4.945   3.080  13.360  0.7298 -0.2945  0.1771
15183TIP3   OH267039   3.266   0.863  16.182  0.6225  0.0758  0.0916
15183TIP3    H167040   3.312   0.870  16.098  1.0495  2.5173  0.4592
15183TIP3    H267041   3.286   0.944  16.228 -1.8049  0.0149  1.4520
15184TIP3   OH267042   0.982   1.081  13.249  0.1143  0.0497 -0.6619
15184TIP3    H167043   1.064   1.130  13.254 -0.2008  0.5116  0.0766
15184TIP3    H267044   0.961   1.057  13.339 -1.3069  1.1921 -0.6529
15185TIP3   OH267045   0.643   4.094   0.274  0.4315  0.2020 -0.4048
15185TIP3    H167046   0.668   4.149   0.199 -0.0056  0.7710 -0.1407
15185TIP3    H267047   0.678   4.140   0.350  2.8174 -1.5004 -0.3776
15186TIP3   OH267048   5.809   2.511  17.311 -0.5061  0.1300  0.5384
15186TIP3    H167049   5.716   2.530  17.298 -0.8267 -0.0513  2.2897
15186TIP3    H267050   5.855   2.576  17.258 -1.6151 -0.3064 -1.0305
15187TIP3   OH267051   6.189   5.516   5.749  0.3774 -0.0221 -0.2372
15187TIP3    H167052   6.115   5.467   5.785 -0.2430  0.3049 -1.0571
15187TIP3    H267053   6.151   5.572   5.681  1.2963  0.5352 -0.3130
15188TIP3   OH267054   6.488   5.742  16.052  0.8219 -0.1849 -0.6656
15188TIP3    H167055   6.554   5.700  16.106  0.4361 -0.6189 -0.5228
15188TIP3    H267056   6.509   5.835  16.055  1.2602 -0.2912 -0.4042
15189TIP3   OH267057   0.722   3.457  13.127 -0.2256  0.0821 -0.4281
15189TIP3    H167058   0.723   3.365  13.103 -0.8852 -0.5228  1.6314
15189TIP3    H267059   0.639   3.470  13.173  1.0510  0.9307  1.8686
15190TIP3   OH267060   4.821   0.653   5.397 -0.2042  0.7020  0.3218
15190TIP3    H167061   4.839   0.676   5.306  0.2404  0.6729  0.3988
15190TIP3    H267062   4.726   0.645   5.401 -0.1504 -0.6516 -0.4624
15191TIP3   OH267063   4.579   0.596  15.337 -0.0130 -0.4439  0.4676
15191TIP3    H167064   4.594   0.690  15.332  1.9550 -0.6661  1.4521
15191TIP3    H267065   4.486   0.586  15.316 -0.3682  1.7447  0.7452
15192TIP3   OH267066   5.020   2.071  16.261  0.0868  0.0178 -0.3672
15192TIP3    H167067   4.976   2.098  16.341  0.2988 -0.2649 -0.1535
15192TIP3    H267068   5.040   1.979  16.274  1.2794  0.2819 -0.2042
15193TIP3   OH267069   2.167   2.854  15.633 -0.1743 -0.1465 -0.2519
15193TIP3    H167070   2.078   2.819  15.640  0.6557 -2.1673  0.9476
15193TIP3    H267071   2.173   2.920  15.702 -0.6525 -0.2368 -0.1234
15194TIP3   OH267072   0.994   2.707  14.103 -0.3979  0.1005  0.2391
15194TIP3    H167073   0.928   2.719  14.035  0.6641  2.0714 -0.5185
15194TIP3    H267074   1.076   2.695  14.055  0.1374 -0.0663  1.1704
15195TIP3   OH267075   0.509   5.560   3.902 -0.2905  0.0001 -0.1808
15195TIP3    H167076   0.496   5.540   3.809 -1.3114  0.1927 -0.0963
15195TIP3    H267077   0.438   5.513   3.947  0.3314 -0.2887  0.5349
15196TIP3   OH267078   0.883   5.926   1.639 -0.3175 -0.2569  0.5099
15196TIP3    H167079   0.871   5.871   1.716 -0.5041 -1.5928 -0.4522
15196TIP3    H267080   0.830   5.885   1.571  0.4125  0.4792 -0.5396
15197TIP3   OH267081   0.736   6.422   0.868 -0.6486  0.5571 -0.1456
15197TIP3    H167082   0.694   6.381   0.944 -3.1504  4.6813  1.0396
15197TIP3    H267083   0.825   6.440   0.896 -0.7987 -0.1836  0.8700
15198TIP3   OH267084   2.861   3.898  14.026  0.3318  0.3058  0.0701
15198TIP3    H167085   2.830   3.956  14.096  2.6703  1.6415  0.0835
15198TIP3    H267086   2.882   3.816  14.071 -0.4411  0.3462  0.5210
15199TIP3   OH267087   3.442   1.866  16.697 -0.2794  0.5816 -0.2843
15199TIP3    H167088   3.477   1.848  16.609  1.5709  1.9221  0.1086
15199TIP3    H267089   3.415   1.958  16.693 -1.1144  0.3700  0.2930
15200TIP3   OH267090   0.436   3.310   4.422 -0.0928 -0.1372  0.0833
15200TIP3    H167091   0.433   3.405   4.428 -1.3446 -0.2224  0.9883
15200TIP3    H267092   0.505   3.293   4.358  2.1521  1.2946  1.9492
15201TIP3   OH267093   5.671   0.016   3.872  0.9468 -0.4656  0.6942
15201TIP3    H167094   5.704   0.031   3.783  0.9605 -0.8145  0.6401
15201TIP3    H267095   5.748  -0.014   3.921  0.5987 -1.8484  0.4254
15202TIP3   OH267096   2.599   4.989  16.975 -0.1829 -0.7333  0.3224
15202TIP3    H167097   2.543   4.913  16.997 -0.9044 -0.1482  0.5528
15202TIP3    H267098   2.599   5.042  17.054  0.3022 -0.4771  0.1507
15203TIP3   OH267099   5.168   3.865  16.662  0.0128  0.1503 -0.1082
15203TIP3    H167100   5.176   3.943  16.718 -0.9458 -0.0571  0.3489
15203TIP3    H267101   5.255   3.826  16.661  0.4102  1.0178 -0.0269
15204TIP3   OH267102   3.309   2.860   0.002  0.2033 -0.2333  0.1255
15204TIP3    H167103   3.318   2.901  -0.084  0.7555  2.6292  1.4231
15204TIP3    H267104   3.397   2.864   0.039 -0.3761  0.2118  1.4846
15205TIP3   OH267105   3.533   0.826   6.495 -0.3111  0.3400  0.0754
15205TIP3    H167106   3.521   0.753   6.434 -1.1274  1.7941 -1.5688
15205TIP3    H267107   3.447   0.866   6.502  0.3439  1.7866  0.1045
15206TIP3   OH267108   1.891   6.419   0.656  0.1508 -0.2900  0.0444
15206TIP3    H167109   1.984   6.400   0.658  0.3936  0.8361  0.8618
15206TIP3    H267110   1.848   6.335   0.669  1.0289 -0.8883 -0.8541
15207TIP3   OH267111   1.281   1.402   1.602 -0.2376  0.2478 -0.0283
15207TIP3    H167112   1.225   1.364   1.670 -1.2186  1.9542  0.1675
15207TIP3    H267113   1.239   1.485   1.580  1.4298  0.8883 -0.9463
15208TIP3   OH267114   1.824   0.200  11.042 -0.1679  0.1899  0.0166
15208TIP3    H167115   1.792   0.231  11.127  0.3501  1.0645 -0.0982
15208TIP3    H267116   1.751   0.148  11.007 -0.7750  0.6606  0.5499
15209TIP3   OH267117   3.286   6.745   0.656 -0.8990  0.6618  0.4160
15209TIP3    H167118   3.298   6.654   0.628  0.0560  0.9450 -0.1250
15209TIP3    H267119   3.214   6.777   0.602 -0.2463  0.6696 -0.4609
15210TIP3   OH267120   2.595   1.725  14.455  0.3963  0.0466 -0.5582
15210TIP3    H167121   2.509   1.746  14.420  0.1442 -1.3206 -0.8172
15210TIP3    H267122   2.652   1.795  14.423 -1.0847  2.6646  1.9686
15211TIP3   OH267123   0.355   5.835  15.082  0.0767  0.1698 -0.2243
15211TIP3    H167124   0.416   5.909  15.073  1.5354 -0.7946  1.2607
15211TIP3    H267125   0.271   5.876  15.101  0.9980  1.4478  1.3392
15212TIP3   OH267126   2.171   2.291  12.152 -0.1491 -0.6312 -0.1341
15212TIP3    H167127   2.146   2.266  12.240 -0.7286 -1.2851 -0.4712
15212TIP3    H267128   2.122   2.372  12.134  1.0292  0.2821  0.6297
15213TIP3   OH267129   5.397   0.371   0.657 -0.3027  0.0511 -0.7411
15213TIP3    H167130   5.449   0.291   0.656 -0.3490 -0.0784  1.5051
15213TIP3    H267131   5.462   0.442   0.651 -0.0630 -0.1438 -0.4921
15214TIP3   OH267132   5.105   3.429  16.090 -0.0895 -0.0147  0.0907
15214TIP3    H167133   5.018   3.464  16.112 -0.1655 -0.9944  1.5500
15214TIP3    H267134   5.118   3.359  16.154  1.2341 -0.7455 -0.9491
15215TIP3   OH267135   4.258   1.653   4.381  0.2101  0.0272  0.2725
15215TIP3    H167136   4.262   1.577   4.440 -1.0538 -0.7372 -0.5694
15215TIP3    H267137   4.220   1.722   4.434  2.3123  0.4355  1.3607
15216TIP3   OH267138   6.143   6.639   4.368 -0.3770 -0.6315  0.2484
15216TIP3    H167139   6.100   6.706   4.420  1.0753  0.7659 -0.2993
15216TIP3    H267140   6.229   6.627   4.408  0.0234 -0.9464 -0.6639
15217TIP3   OH267141   0.190   3.585  11.463 -0.1700 -0.9056 -0.2292
15217TIP3    H167142   0.224   3.559  11.377  0.2806 -1.0258 -0.0174
15217TIP3    H267143   0.263   3.572  11.523 -0.2627 -0.1585  0.0572
15218TIP3   OH267144   3.288   5.610  16.008  0.1234 -0.2580 -0.2002
15218TIP3    H167145   3.316   5.673  16.075 -0.5923 -0.6757  0.5066
15218TIP3    H267146   3.196   5.593  16.028  0.6747 -2.7453  0.6568
15219TIP3   OH267147   2.071   4.620   2.716  0.6325  0.0568 -0.0934
15219TIP3    H167148   1.998   4.628   2.778 -0.0327 -0.1248 -0.8461
15219TIP3    H267149   2.060   4.693   2.656  0.1138 -0.8917 -1.1868
15220TIP3   OH267150   5.918   5.545  15.518  0.4358 -0.3127  0.0872
15220TIP3    H167151   5.982   5.522  15.585 -0.2231 -2.1503  0.1654
15220TIP3    H267152   5.855   5.472  15.519  1.0032 -1.0273 -3.2627
15221TIP3   OH267153   5.999   4.412  16.070  0.3382 -0.6581 -0.2777
15221TIP3    H167154   6.052   4.344  16.028 -0.6897 -3.6451  2.7915
15221TIP3    H267155   5.973   4.373  16.154 -3.3883  2.1881  0.1111
15222TIP3   OH267156   1.691   3.977  16.197 -0.0274 -0.1010  0.4066
15222TIP3    H167157   1.676   3.898  16.146  0.4510  0.8506 -1.2836
15222TIP3    H267158   1.741   4.035  16.138 -1.2519  1.8517  1.1818
15223TIP3   OH267159   5.975   5.883  16.981 -0.5205  0.0442 -0.2624
15223TIP3    H167160   5.994   5.847  16.894 -2.2249 -0.4936 -0.4586
15223TIP3    H267161   6.006   5.816  17.042 -0.4084 -0.1271 -0.5055
15224TIP3   OH267162   4.617   6.642  16.942 -0.1296  0.5986 -0.0057
15224TIP3    H167163   4.654   6.556  16.959 -1.5871  0.0453  0.4517
15224TIP3    H267164   4.524   6.626  16.925 -0.2844  1.9999 -0.6409
15225TIP3   OH267165   3.153   4.074  15.097 -0.1396  0.0558  0.1296
15225TIP3    H167166   3.163   3.981  15.115 -0.9744  0.2388  1.6868
15225TIP3    H267167   3.195   4.087  15.012 -2.7294 -2.3299 -1.7081
15226TIP3   OH267168   2.874   3.051   0.899  0.3078 -0.1679  0.3688
15226TIP3    H167169   2.938   3.019   0.963 -0.3727 -1.7052  0.3194
15226TIP3    H267170   2.873   2.985   0.830 -1.2839 -0.1463  0.3369
15227TIP3   OH267171   6.038   4.817  12.339  0.0442  0.0819  0.5310
15227TIP3    H167172   6.003   4.791  12.424 -0.3659  0.3440  0.4501
15227TIP3    H267173   6.077   4.903  12.354 -1.9166  1.1218  0.0283
15228TIP3   OH267174   1.932   3.347  13.522  0.1204  0.4504 -0.1356
15228TIP3    H167175   1.978   3.423  13.487 -0.2650  0.7722  0.0472
15228TIP3    H267176   1.866   3.327  13.457  0.1876  0.3010 -0.1588
15229TIP3   OH267177   5.148   5.163   2.131 -0.5773  0.0273 -0.5779
15229TIP3    H167178   5.201   5.224   2.080  0.7225 -1.2799 -0.8877
15229TIP3    H267179   5.063   5.205   2.139  0.8132  2.7963  1.0071
15230TIP3   OH267180   2.829   3.666  12.493 -0.2376  0.4508 -0.7446
15230TIP3    H167181   2.880   3.693  12.570 -1.5365  0.7315  0.0354
15230TIP3    H267182   2.783   3.587  12.520  0.0494 -0.0228 -1.5762
15231TIP3   OH267183   5.127   4.393  12.767 -0.1402 -0.7859 -0.1697
15231TIP3    H167184   5.167   4.354  12.844 -0.1320 -0.5474 -0.0516
15231TIP3    H267185   5.096   4.479  12.796 -0.5184 -0.8651 -0.3201
15232TIP3   OH267186   5.585   4.399  11.694  0.4392  0.6405  0.0476
15232TIP3    H167187   5.584   4.437  11.782 -0.6756  0.5037  0.1178
15232TIP3    H267188   5.673   4.417  11.661  0.7096  1.1482  0.9922
15233TIP3   OH267189   2.408   0.492   3.608  0.3045  0.3897  0.5306
15233TIP3    H167190   2.368   0.471   3.692 -1.9834  0.5746 -0.4406
15233TIP3    H267191   2.414   0.588   3.609 -2.5041  0.6673 -0.6016
15234TIP3   OH267192   0.300   6.380  11.580 -0.2903 -0.0179 -0.2476
15234TIP3    H167193   0.314   6.431  11.659 -1.0739 -0.2126  0.0225
15234TIP3    H267194   0.350   6.427  11.512  0.0350  0.3839  0.2631
15235TIP3   OH267195   1.002   1.768  15.235  0.0652  0.1186 -0.3077
15235TIP3    H167196   0.926   1.818  15.207 -0.2095 -0.1174  0.0147
15235TIP3    H267197   0.967   1.697  15.289  0.4104 -0.6663 -1.0731
15236TIP3   OH267198   3.342   0.576  11.827 -0.1036 -0.3686  0.6909
15236TIP3    H167199   3.421   0.576  11.773 -0.3146 -0.6578  0.3833
15236TIP3    H267200   3.293   0.499  11.799 -1.3286  0.7445 -0.3569
15237TIP3   OH267201   3.303   4.675  12.623  0.8785 -0.0180  0.2796
15237TIP3    H167202   3.333   4.710  12.707  0.7494 -1.3828  0.9365
15237TIP3    H267203   3.209   4.694  12.622  0.6042 -1.1662  1.1079
15238TIP3   OH267204   4.908   3.561   1.248 -0.2511  0.5693  0.1015
15238TIP3    H167205   4.862   3.600   1.173 -1.6666  0.6712  0.9856
15238TIP3    H267206   4.996   3.600   1.244  0.0987 -0.2965 -2.1431
15239TIP3   OH267207   6.407   2.216  15.668  0.3682  0.4038  0.0074
15239TIP3    H167208   6.323   2.249  15.636  0.2444  0.1607  0.0774
15239TIP3    H267209   6.390   2.194  15.760  0.2281 -0.5903 -0.2420
15240TIP3   OH267210   3.762   5.172   3.199 -0.0244  0.3367  0.4496
15240TIP3    H167211   3.669   5.170   3.221 -0.4587  0.9943 -1.1536
15240TIP3    H267212   3.776   5.094   3.146  0.1221  0.7230 -0.0850
15241TIP3   OH267213   2.395   5.441  14.911 -0.2400  0.2696  0.3267
15241TIP3    H167214   2.463   5.499  14.877 -0.0570 -0.2375 -0.2010
15241TIP3    H267215   2.318   5.497  14.923 -1.0072  0.1372 -3.0191
15242TIP3   OH267216   0.080   2.236  14.420  0.5276 -0.0200 -0.4380
15242TIP3    H167217   0.144   2.170  14.391  0.9596 -0.3939  1.2280
15242TIP3    H267218   0.013   2.185  14.466  0.2732  0.5990 -0.1178
15243TIP3   OH267219   3.611   2.397   3.098 -0.5877 -0.3805 -0.0102
15243TIP3    H167220   3.573   2.311   3.080 -1.4722 -0.1057  0.4983
15243TIP3    H267221   3.612   2.404   3.193  2.9147 -1.3190  0.1312
15244TIP3   OH267222   4.809   5.485   2.748 -0.5697 -0.5466 -0.8200
15244TIP3    H167223   4.739   5.547   2.726  0.8399  1.5261  0.1897
15244TIP3    H267224   4.817   5.430   2.670 -1.4796  0.9336 -2.0336
15245TIP3   OH267225   0.004   5.613  15.113 -0.2857 -0.9742  0.6207
15245TIP3    H167226  -0.067   5.568  15.069  0.8917 -0.4072 -2.0190
15245TIP3    H267227   0.063   5.543  15.141 -1.1485 -1.3466  1.6039
15246TIP3   OH267228   4.759   0.350  11.580 -0.6025 -0.5370 -0.1748
15246TIP3    H167229   4.792   0.346  11.490 -0.4093  2.4097 -0.3426
15246TIP3    H267230   4.694   0.421  11.578 -1.1014 -0.8738  1.8629
15247TIP3   OH267231   2.030   1.842   0.975 -0.5872 -0.1651 -0.3801
15247TIP3    H167232   2.080   1.848   0.894  1.4600 -0.2734  0.8150
15247TIP3    H267233   2.038   1.929   1.015 -0.6829 -0.4153  0.2049
15248TIP3   OH267234   5.891   1.868  12.027  0.2399  0.3677  0.1726
15248TIP3    H167235   5.852   1.952  12.048 -0.0400  0.5283 -0.9252
15248TIP3    H267236   5.901   1.869  11.932  0.5338 -0.7033  0.1749
15249TIP3   OH267237   3.892   4.688   1.693  0.3963  0.2272  1.0390
15249TIP3    H167238   3.954   4.760   1.690  2.3151 -1.3783 -1.7528
15249TIP3    H267239   3.943   4.613   1.722 -0.3858 -0.9459 -0.4564
15250TIP3   OH267240   1.238   6.291   6.051  0.2109 -0.3089  0.9431
15250TIP3    H167241   1.183   6.354   6.098 -0.0467  1.7896 -1.9067
15250TIP3    H267242   1.182   6.256   5.983  2.0610  1.5459 -1.7526
15251TIP3   OH267243   3.375   2.321   1.995  0.1688  0.3188 -0.1476
15251TIP3    H167244   3.403   2.252   2.054  1.0169  0.4795 -0.3441
15251TIP3    H267245   3.348   2.393   2.053  2.3058  0.9973  0.0912
15252TIP3   OH267246   0.457   0.112  16.981 -0.2943 -0.0468 -0.0513
15252TIP3    H167247   0.440   0.045  16.914 -1.3156  1.6614 -1.5875
15252TIP3    H267248   0.552   0.109  16.994 -0.3244 -1.8890  0.0717
15253TIP3   OH267249   6.473   5.108   5.793 -0.5527 -0.6745  0.0326
15253TIP3    H167250   6.479   5.191   5.747 -0.5226 -1.1592 -0.8614
15253TIP3    H267251   6.379   5.087   5.794 -0.5268 -0.8001 -0.0646
15254TIP3   OH267252   1.612   3.083   2.015  0.2449 -0.3863 -0.2693
15254TIP3    H167253   1.628   2.993   1.989 -1.1384 -1.4276  2.1524
15254TIP3    H267254   1.694   3.129   1.997  1.6370 -2.5608  0.1815
15255TIP3   OH267255   3.527   5.693   5.332 -0.0645 -0.5647 -0.2625
15255TIP3    H167256   3.595   5.648   5.283 -0.5629 -1.0520 -0.5104
15255TIP3    H267257   3.560   5.783   5.341  1.0077 -0.9998  0.3691
15256TIP3   OH267258   1.229   3.938   3.288 -0.5862  0.0086  0.0809
15256TIP3    H167259   1.161   3.871   3.291  1.8587 -2.6444  1.6685
15256TIP3    H267260   1.247   3.958   3.380  1.7941 -0.6096 -0.1674
15257TIP3   OH267261   3.805   5.194   0.591  0.3546  0.2439  0.4240
15257TIP3    H167262   3.757   5.276   0.600  0.5920  0.4760 -0.3550
15257TIP3    H267263   3.743   5.134   0.551 -0.2443 -0.3654  2.1814
15258TIP3   OH267264   4.160   5.636   3.401 -0.8017 -0.0098  0.1855
15258TIP3    H167265   4.132   5.587   3.323 -0.5037  0.8819 -0.5017
15258TIP3    H267266   4.240   5.680   3.374 -0.5307  0.0780  1.1047
15259TIP3   OH267267   0.902   1.684  11.933  0.2885  0.4363 -0.1026
15259TIP3    H167268   0.872   1.602  11.895  1.5591 -0.0198 -0.1803
15259TIP3    H267269   0.844   1.699  12.007  1.0542 -1.4215  0.9346
15260TIP3   OH267270   5.634   6.124  15.463 -0.2660 -0.0173 -0.0892
15260TIP3    H167271   5.550   6.126  15.416 -0.7695 -1.0854  0.7463
15260TIP3    H267272   5.697   6.093  15.398  0.3660  4.3597 -1.9540
15261TIP3   OH267273   3.449   3.040  11.918  0.6175  0.4860 -0.3059
15261TIP3    H167274   3.543   3.057  11.928  0.4921  0.7279  0.6061
15261TIP3    H267275   3.412   3.125  11.894  0.7867  0.1118 -2.0028
15262TIP3   OH267276   4.625   1.063  13.011 -0.2520  0.2473  0.5476
15262TIP3    H167277   4.585   1.084  12.927  2.4285  1.0661 -0.6077
15262TIP3    H267278   4.592   1.131  13.070 -0.9513  0.5880 -0.2161
15263TIP3   OH267279   1.767   3.571   1.139  0.0744 -0.5585  0.3939
15263TIP3    H167280   1.772   3.650   1.085 -0.5967 -1.1947 -0.6476
15263TIP3    H267281   1.858   3.540   1.143  0.6068  1.0298  2.0697
15264TIP3   OH267282   0.816   3.838   3.828 -0.2473 -0.1702  0.1384
15264TIP3    H167283   0.907   3.859   3.847 -0.4128  1.0439 -0.3506
15264TIP3    H267284   0.765   3.899   3.881 -0.7216  1.8477 -2.4239
15265TIP3   OH267285   6.724   6.110  12.169 -0.4100  0.8005  0.1813
15265TIP3    H167286   6.751   6.178  12.231 -1.7404  0.2845  1.4055
15265TIP3    H267287   6.654   6.151  12.118 -1.8659  0.1411  1.5471
15266TIP3   OH267288   1.330   1.218   5.885  0.2736 -0.5444 -0.1212
15266TIP3    H167289   1.296   1.129   5.892 -0.3426 -0.1791  2.7302
15266TIP3    H267290   1.267   1.264   5.830  0.2615 -1.6587 -1.0930
15267TIP3   OH267291   3.903   1.674  13.937 -0.0164  0.1924  0.2666
15267TIP3    H167292   3.907   1.654  14.031 -0.9506  0.4042  0.3571
15267TIP3    H267293   3.938   1.595  13.895 -1.4526 -0.7190  0.7136
15268TIP3   OH267294   0.687   3.393   2.565  0.0016  0.0659  0.5244
15268TIP3    H167295   0.642   3.365   2.485 -1.7228  0.3200  1.3516
15268TIP3    H267296   0.653   3.335   2.633  2.8746 -1.4287  0.8139
15269TIP3   OH267297   1.082   5.911  11.404  0.1323 -0.2574  0.0903
15269TIP3    H167298   1.058   5.882  11.492  0.2460  0.3284  0.3217
15269TIP3    H267299   1.103   5.831  11.357 -3.1961 -0.9556 -0.4421
15270TIP3   OH267300   4.824   0.046   4.101  0.0859  0.1026  0.9437
15270TIP3    H167301   4.899   0.073   4.153 -0.3618 -0.5398  1.9571
15270TIP3    H267302   4.852  -0.035   4.057  1.2149  1.7420 -1.6083
15271TIP3   OH267303   4.049   0.746  15.224 -0.0748  0.1876 -0.2079
15271TIP3    H167304   4.059   0.687  15.300 -1.0780 -2.2434 -1.8270
15271TIP3    H267305   4.131   0.794  15.221  0.2181 -0.0200  2.0777
15272TIP3   OH267306   2.516   1.020  15.271  0.1033 -0.3366 -0.3839
15272TIP3    H167307   2.437   1.053  15.313  1.0509  3.4967 -1.2702
15272TIP3    H267308   2.484   0.952  15.211 -2.3169  0.1020  0.3049
15273TIP3   OH267309   4.724   1.432  13.669 -0.3260 -0.2351  0.3481
15273TIP3    H167310   4.783   1.388  13.730 -0.1407  0.1377  0.4443
15273TIP3    H267311   4.770   1.513  13.647 -0.9990  0.2630  0.7591
15274TIP3   OH267312   4.454   4.259   3.316 -0.7420 -0.2007  0.3992
15274TIP3    H167313   4.481   4.294   3.231 -2.3834 -2.3669 -1.1494
15274TIP3    H267314   4.510   4.303   3.379 -1.6174  3.9695 -1.4027
15275TIP3   OH267315   5.294   0.556   3.437  0.2787  0.1329  0.6117
15275TIP3    H167316   5.380   0.516   3.453 -0.5916 -1.2468  2.2609
15275TIP3    H267317   5.261   0.511   3.358  0.7008  0.0145  0.5011
15276TIP3   OH267318   0.538   1.338   2.216  0.5294  0.0394 -0.0031
15276TIP3    H167319   0.477   1.264   2.225 -0.4572  0.8239 -0.0468
15276TIP3    H267320   0.499   1.393   2.148  1.4533  0.4168 -0.2365
15277TIP3   OH267321   1.125   5.408   0.611  0.0494 -0.5717  0.3710
15277TIP3    H167322   1.216   5.383   0.591 -0.1378 -1.2509  0.3426
15277TIP3    H267323   1.074   5.330   0.588 -0.5686 -0.1085  0.1669
15278TIP3   OH267324   3.814   1.408   2.763  0.3611  0.1653  0.2052
15278TIP3    H167325   3.801   1.315   2.779 -0.8001  0.0412 -1.2178
15278TIP3    H267326   3.889   1.432   2.818  1.1445 -1.7552  0.0444
15279TIP3   OH267327   6.075   3.324  11.138  0.3110  0.2146 -0.4994
15279TIP3    H167328   6.075   3.419  11.134  1.6701  0.2398 -0.2709
15279TIP3    H267329   6.038   3.296  11.053 -0.7660  0.9272 -0.2813
15280TIP3   OH267330   5.387   1.383  16.608 -0.0116 -0.2423  0.0854
15280TIP3    H167331   5.392   1.365  16.514  1.0695 -0.1657  0.1177
15280TIP3    H267332   5.357   1.473  16.614 -2.0197 -0.8477 -0.1354
15281TIP3   OH267333   0.567   3.177  15.582  0.1572 -0.2746  0.3078
15281TIP3    H167334   0.538   3.228  15.506  1.8297  1.0503  0.5276
15281TIP3    H267335   0.557   3.236  15.656  0.7183 -0.7806  0.7895
15282TIP3   OH267336   6.436   3.228  12.229  0.1016 -0.1945 -0.4389
15282TIP3    H167337   6.359   3.269  12.190  0.1670 -0.7577 -1.1729
15282TIP3    H267338   6.470   3.294  12.289 -1.0373  0.0051  0.0186
15283TIP3   OH267339   1.521   1.964   4.951  0.3094  0.0940  0.2593
15283TIP3    H167340   1.468   2.044   4.952  1.2745  0.7713 -0.6912
15283TIP3    H267341   1.462   1.897   4.917 -0.4465  0.4403  0.8557
15284TIP3   OH267342   2.735   3.585  15.291 -0.0584  0.4795  0.0190
15284TIP3    H167343   2.743   3.645  15.217  0.3244  0.0923 -0.2531
15284TIP3    H267344   2.652   3.540  15.277  0.7939 -0.8014 -1.0780
15285TIP3   OH267345   5.161   1.573   4.675 -0.7065 -0.4542  0.1422
15285TIP3    H167346   5.215   1.503   4.712 -2.2078 -1.5413  0.3252
15285TIP3    H267347   5.092   1.588   4.740 -1.8701 -0.5701 -1.0283
15286TIP3   OH267348   3.585   2.857  14.325  0.4951 -0.5784  0.5832
15286TIP3    H167349   3.625   2.797  14.263  0.4622 -0.4719  0.4586
15286TIP3    H267350   3.564   2.803  14.401  0.6761 -0.6773  0.5631
15287TIP3   OH267351   0.570   1.395   3.206 -0.2770 -0.2298  0.0077
15287TIP3    H167352   0.582   1.484   3.173  0.2450 -0.3220 -0.0507
15287TIP3    H267353   0.585   1.403   3.301  2.0491 -0.6601 -0.2831
15288TIP3   OH267354   0.831   2.790  15.397 -0.1035  0.3074  0.2460
15288TIP3    H167355   0.891   2.835  15.456  1.5385 -2.7849  1.1720
15288TIP3    H267356   0.881   2.777  15.316 -0.3020 -0.3488  0.2193
15289TIP3   OH267357   6.772   4.144  12.167  0.2174 -0.5437  0.4647
15289TIP3    H167358   6.803   4.098  12.088 -0.4688  0.8734 -0.6815
15289TIP3    H267359   6.820   4.227  12.166 -1.0049  0.1888  0.6090
15290TIP3   OH267360   5.831   2.261  15.281  0.0002 -0.4034 -0.0082
15290TIP3    H167361   5.766   2.192  15.268 -0.9378  0.7215 -1.7386
15290TIP3    H267362   5.887   2.256  15.204  1.0200 -0.3508  0.7133
15291TIP3   OH267363   0.530   3.883  12.613  0.0899 -0.3213 -0.8713
15291TIP3    H167364   0.515   3.829  12.535 -1.6146 -0.6086 -0.3824
15291TIP3    H267365   0.477   3.843  12.681 -0.5494  1.4473 -0.2622
15292TIP3   OH267366   0.595   2.303  14.828  0.6200 -0.7398 -0.3563
15292TIP3    H167367   0.683   2.270  14.814  1.0396 -0.4811  1.3567
15292TIP3    H267368   0.538   2.238  14.787  1.6133 -0.0497 -2.9914
15293TIP3   OH267369   1.371   4.170   2.078 -0.0147 -0.0604  0.4718
15293TIP3    H167370   1.398   4.222   2.153  1.1697 -0.3799  0.2906
15293TIP3    H267371   1.296   4.216   2.041 -1.2931 -0.4623  2.4628
15294TIP3   OH267372   2.995   1.742   2.745 -0.2394  0.0157 -0.6071
15294TIP3    H167373   3.085   1.774   2.750 -0.9487  2.1301 -0.1064
15294TIP3    H267374   2.959   1.786   2.668 -1.1884  0.2241 -0.0635
15295TIP3   OH267375   5.749   5.909   2.362 -0.1535 -0.0167 -0.4723
15295TIP3    H167376   5.671   5.959   2.337 -0.0221  1.0347  1.1015
15295TIP3    H267377   5.725   5.866   2.444  1.3710  1.6152  0.9150
15296TIP3   OH267378   3.792   6.265   1.446  0.1778  0.0422  0.6685
15296TIP3    H167379   3.726   6.202   1.418  0.2007 -0.1370  1.0059
15296TIP3    H267380   3.826   6.302   1.365 -0.1894 -0.0166  0.4862
15297TIP3   OH267381   4.608   1.855   3.269 -0.3185  0.1012  0.1835
15297TIP3    H167382   4.523   1.879   3.305  0.7087 -1.1571  3.8251
15297TIP3    H267383   4.622   1.765   3.297  2.5388  0.5147  0.3759
15298TIP3   OH267384   1.226   4.375  11.794  0.4566  0.3062 -0.2212
15298TIP3    H167385   1.290   4.381  11.723  0.5646 -0.2668 -0.1757
15298TIP3    H267386   1.206   4.282  11.801 -0.2220  0.4551 -0.0910
15299TIP3   OH267387   0.339   5.900   2.740 -0.0015 -0.3720 -0.3001
15299TIP3    H167388   0.420   5.913   2.790 -0.1446 -0.9671  0.1080
15299TIP3    H267389   0.272   5.946   2.791  0.0150 -0.2017 -0.4335
15300TIP3   OH267390   5.242   1.221  16.204 -0.0519 -0.4374  0.1415
15300TIP3    H167391   5.241   1.258  16.115  1.1215 -2.0337 -0.5792
15300TIP3    H267392   5.153   1.233  16.236 -0.4580  0.2999 -1.1936
15301TIP3   OH267393   2.343   4.214   6.169 -0.2473 -0.5004  0.1617
15301TIP3    H167394   2.416   4.153   6.183 -2.3369 -2.9595  1.0952
15301TIP3    H267395   2.288   4.204   6.246 -2.5035 -0.0943 -1.3150
15302TIP3   OH267396   4.368   0.823  15.555  0.4060 -0.2260 -0.8005
15302TIP3    H167397   4.410   0.825  15.641  0.8281  1.7908 -1.0026
15302TIP3    H267398   4.316   0.742  15.555 -1.0044  0.5469  2.0135
15303TIP3   OH267399   1.096   5.235  11.700  0.4419 -0.2409  0.4014
15303TIP3    H167400   1.125   5.322  11.674 -0.7963  0.8294  2.3276
15303TIP3    H267401   1.176   5.183  11.706  1.2099  0.7737 -0.6798
15304TIP3   OH267402   4.672   5.955  12.167  0.2145  0.2073 -0.0029
15304TIP3    H167403   4.761   5.958  12.131  0.7367  0.8252  1.2740
15304TIP3    H267404   4.616   5.940  12.091  1.4080 -0.2191 -0.8303
15305TIP3   OH267405   4.100   3.698   1.079  0.0655 -0.0006 -0.0061
15305TIP3    H167406   4.083   3.660   0.993 -2.4919 -1.2310  0.9442
15305TIP3    H267407   4.190   3.672   1.100  0.7184  0.2582 -2.2166
15306TIP3   OH267408   3.608   2.984   3.400  0.0019 -0.2372  0.3473
15306TIP3    H167409   3.556   3.008   3.477  0.1864  1.4148 -0.0115
15306TIP3    H267410   3.698   3.008   3.424  0.0959  0.0620 -0.3056
15307TIP3   OH267411   4.463   5.433  13.261 -0.0385 -0.3317  0.0524
15307TIP3    H167412   4.420   5.518  13.264  0.0040 -0.2816 -0.5885
15307TIP3    H267413   4.517   5.436  13.182  0.8844 -0.5179  0.6638
15308TIP3   OH267414   1.561   2.812   6.571 -0.4175 -0.0796  0.4175
15308TIP3    H167415   1.545   2.875   6.501  0.1529 -2.3713 -1.9580
15308TIP3    H267416   1.656   2.801   6.571 -0.5774 -1.8275 -0.1777
15309TIP3   OH267417   0.825   0.177   1.892  0.4880  0.6949 -0.0365
15309TIP3    H167418   0.887   0.227   1.945  1.5336  1.6702 -2.0451
15309TIP3    H267419   0.757   0.239   1.869 -1.8689 -0.5714  2.8421
15310TIP3   OH267420   6.604   2.544  14.322  0.5067 -0.0155  0.3136
15310TIP3    H167421   6.698   2.532  14.336  0.4780 -1.8433 -0.7352
15310TIP3    H267422   6.563   2.474  14.373 -0.3802  1.2365  1.4013
15311TIP3   OH267423   6.736   1.112  11.287  0.7812  0.8568  0.2796
15311TIP3    H167424   6.732   1.069  11.372 -1.1340  0.8245  0.2178
15311TIP3    H267425   6.649   1.100  11.250  0.6498  3.3847 -0.4223
15312TIP3   OH267426   3.587   4.973  16.597 -0.3300 -0.1193  0.2252
15312TIP3    H167427   3.510   5.029  16.588  0.4697  0.7341 -2.0826
15312TIP3    H267428   3.643   4.997  16.523  0.9798 -2.5517  0.3155
15313TIP3   OH267429   4.689   0.598  11.192 -0.1974  0.2347  0.0080
15313TIP3    H167430   4.763   0.658  11.201  0.9124 -1.1459  0.3732
15313TIP3    H267431   4.612   0.656  11.187  0.8751  1.6932 -0.3044
15314TIP3   OH267432   5.295   4.989   1.649 -0.1015  0.2041  0.2422
15314TIP3    H167433   5.371   4.951   1.694  0.2294 -1.1802 -1.3581
15314TIP3    H267434   5.312   5.084   1.649  1.4501 -0.0495  0.2622
15315TIP3   OH267435   0.153   1.853   0.462  0.2097  0.4975  0.0478
15315TIP3    H167436   0.155   1.895   0.376  2.0717 -0.9183 -0.6853
15315TIP3    H267437   0.093   1.906   0.514 -0.5252  1.7263 -1.9498
15316TIP3   OH267438   2.367   0.892   1.123  0.0397 -0.2517 -0.2116
15316TIP3    H167439   2.278   0.892   1.088 -0.4686  1.2918  0.9879
15316TIP3    H267440   2.423   0.909   1.047 -0.9500  1.9538 -0.5226
15317TIP3   OH267441   0.184   4.101  14.659  0.1115 -0.1517  0.0320
15317TIP3    H167442   0.239   4.109  14.581 -0.1438  2.9169  0.0396
15317TIP3    H267443   0.098   4.129  14.630 -0.2121  0.0986  1.1960
15318TIP3   OH267444   2.698   1.519  13.949 -0.6638 -0.0140 -0.1523
15318TIP3    H167445   2.667   1.550  14.034 -1.6224  0.1934 -0.5538
15318TIP3    H267446   2.694   1.423  13.955 -2.4466  0.0046 -0.5352
15319TIP3   OH267447   6.052   3.025   5.755  0.2746 -0.1421  0.0371
15319TIP3    H167448   6.085   3.100   5.805  1.8644  0.0205 -1.1806
15319TIP3    H267449   5.971   3.056   5.714 -0.7145 -0.0795  1.9180
15320TIP3   OH267450   3.479   0.266  17.281  0.0281  0.0201 -0.4318
15320TIP3    H167451   3.525   0.349  17.273 -0.1741  0.1564 -0.1764
15320TIP3    H267452   3.409   0.283  17.343  0.3457 -0.4898  0.0817
15321TIP3   OH267453   1.559   6.180  13.826  0.2497  0.4675 -0.1370
15321TIP3    H167454   1.542   6.248  13.892 -1.2505  1.1069 -1.1252
15321TIP3    H267455   1.616   6.117  13.871  0.2915  1.5081  1.3571
15322TIP3   OH267456   4.218   1.059  15.549  0.7440  0.4205  0.2768
15322TIP3    H167457   4.266   0.986  15.587  0.2643 -0.4868 -0.8174
15322TIP3    H267458   4.207   1.036  15.457 -0.0695  1.5269  0.0728
15323TIP3   OH267459   5.749   0.427  14.451  0.0402 -0.1861  0.0064
15323TIP3    H167460   5.698   0.362  14.403  0.9823 -0.1713 -1.0462
15323TIP3    H267461   5.685   0.471  14.507 -0.9430 -0.7389 -0.6552
15324TIP3   OH267462   0.196   1.066   2.991  0.2080  0.6383 -0.5442
15324TIP3    H167463   0.243   1.042   3.071 -0.1227 -0.4745 -0.6686
15324TIP3    H267464   0.229   1.153   2.969  3.1544 -0.5732 -1.3108
15325TIP3   OH267465   6.218   5.364  11.386 -0.3203  0.2304  0.3381
15325TIP3    H167466   6.288   5.308  11.420 -0.1685 -0.2881 -0.8079
15325TIP3    H267467   6.137   5.318  11.406 -0.1790 -0.6039 -0.9334
15326TIP3   OH267468   2.201   3.862   0.394 -0.0437 -0.2118 -0.5809
15326TIP3    H167469   2.240   3.879   0.479  0.2834  1.8792 -1.0905
15326TIP3    H267470   2.129   3.926   0.387  1.1746  1.0687 -2.6161
15327TIP3   OH267471   0.978   0.282  12.749 -0.2593  0.1094  0.4533
15327TIP3    H167472   1.030   0.230  12.688 -0.8526  0.6044 -0.4981
15327TIP3    H267473   0.901   0.309  12.698 -1.2393 -0.2542  1.7047
15328TIP3   OH267474   2.913   3.476  13.930  0.3639 -0.1580  0.4042
15328TIP3    H167475   2.836   3.419  13.924 -0.9345  1.6136 -0.7263
15328TIP3    H267476   2.883   3.560  13.896  2.7903  0.6301  0.0329
15329TIP3   OH267477   0.439   4.781   1.835 -0.6879  0.0366  0.4178
15329TIP3    H167478   0.383   4.706   1.816 -1.3610  0.3506  1.0735
15329TIP3    H267479   0.389   4.856   1.801 -0.2688  0.2379  0.2461
15330TIP3   OH267480   1.745   1.507   2.382 -0.2199  0.2295 -0.0594
15330TIP3    H167481   1.666   1.453   2.381 -0.2888  0.3316 -1.3275
15330TIP3    H267482   1.764   1.520   2.475 -0.2600 -1.8558  0.2709
15331TIP3   OH267483   5.550   4.816  14.872  0.1513  0.1777  0.0029
15331TIP3    H167484   5.641   4.842  14.855 -0.0530  1.5051  0.8129
15331TIP3    H267485   5.514   4.888  14.924 -1.3999 -0.2892 -0.3913
15332TIP3   OH267486   2.543   3.495   4.150 -0.4218  0.6191 -0.0492
15332TIP3    H167487   2.628   3.464   4.181 -0.6958 -0.3008 -0.1742
15332TIP3    H267488   2.561   3.533   4.064  0.2695  2.7739  0.9668
15333TIP3   OH267489   6.011   6.132   4.029  0.4798 -0.0159 -0.1925
15333TIP3    H167490   6.037   6.180   3.950  0.2897 -1.9280 -1.4897
15333TIP3    H267491   5.915   6.135   4.028  0.4842  0.3387  0.2288
15334TIP3   OH267492   4.269   5.815   5.180  0.1577  0.6808  0.4991
15334TIP3    H167493   4.242   5.902   5.207  1.1872  0.9655  0.6697
15334TIP3    H267494   4.219   5.756   5.236 -0.0255  1.1829  0.8731
15335TIP3   OH267495   4.319   4.052  15.140  0.2594  0.3876  0.4410
15335TIP3    H167496   4.292   4.131  15.093 -0.3319 -0.4234 -0.6220
15335TIP3    H267497   4.247   4.034  15.200  0.1761  0.3842  0.3392
15336TIP3   OH267498   4.820   3.669  15.863 -0.1975 -0.2955 -0.4401
15336TIP3    H167499   4.837   3.577  15.885 -0.6733 -0.7988 -2.0430
15336TIP3    H267500   4.767   3.701  15.936 -1.8365 -1.9200 -0.8435
15337TIP3   OH267501   2.835   3.837   2.042 -0.3071  0.5203 -0.5904
15337TIP3    H167502   2.758   3.891   2.061  0.2065  1.0043  0.1692
15337TIP3    H267503   2.899   3.898   2.007 -0.4375  0.0244 -1.7239
15338TIP3   OH267504   2.079   2.743   3.854 -0.1751 -0.2059 -0.3334
15338TIP3    H167505   1.992   2.709   3.872  0.0838 -0.1546  1.1769
15338TIP3    H267506   2.136   2.666   3.856  0.2747  0.1196  2.1475
15339TIP3   OH267507   3.883   1.501  13.482 -0.1853  0.2010  0.0293
15339TIP3    H167508   3.795   1.483  13.515 -0.9830  2.9734 -0.3159
15339TIP3    H267509   3.925   1.550  13.552 -0.5017  2.6513 -1.3729
15340TIP3   OH267510   2.331   3.202   0.038 -0.1082  0.6927 -0.3802
15340TIP3    H167511   2.424   3.177   0.039 -0.6962 -1.8532  0.7857
15340TIP3    H267512   2.330   3.291   0.072  1.9164  0.9116 -0.7260
15341TIP3   OH267513   3.193   4.414  15.378 -0.0723  0.7137  0.3436
15341TIP3    H167514   3.256   4.454  15.318  0.8324 -0.8712  0.1844
15341TIP3    H267515   3.129   4.372  15.320  0.7488 -0.7369  0.4462
15342TIP3   OH267516   5.189   5.115  11.957 -0.1613  0.3715  0.2347
15342TIP3    H167517   5.196   5.163  12.039 -0.7224  1.2763 -0.2358
15342TIP3    H267518   5.249   5.041  11.968  0.4438  0.9646  1.1153
15343TIP3   OH267519   2.752   6.289   0.175  0.5010  0.0991  0.2249
15343TIP3    H167520   2.747   6.360   0.239  0.9947 -0.0493  0.4276
15343TIP3    H267521   2.845   6.281   0.155  0.5857 -1.2610  1.0776
15344TIP3   OH267522   4.375   1.259   0.569  0.1855  0.8863  0.6712
15344TIP3    H167523   4.436   1.194   0.603 -0.6618  0.5391  1.6006
15344TIP3    H267524   4.389   1.336   0.624  2.2924  2.1132 -1.4134
15345TIP3   OH267525   3.166   0.997   5.765  0.1078 -0.5475  0.5862
15345TIP3    H167526   3.160   1.070   5.827 -0.7941 -0.7000  0.6841
15345TIP3    H267527   3.259   0.995   5.741  0.1015  0.8596  0.3180
15346TIP3   OH267528   3.546   0.668   4.280  0.0215  0.0993  0.1297
15346TIP3    H167529   3.505   0.584   4.261 -2.6377  0.9104  1.7050
15346TIP3    H267530   3.590   0.655   4.365 -0.4792  0.3157  0.4244
15347TIP3   OH267531   3.971   4.384  16.006  0.0162 -0.1218 -0.0273
15347TIP3    H167532   3.987   4.461  15.951 -1.5743 -0.1322 -0.5568
15347TIP3    H267533   3.891   4.405  16.054  0.2995 -0.9254  0.8207
15348TIP3   OH267534   5.054   4.461  13.755 -0.1314 -0.0199  0.7897
15348TIP3    H167535   4.962   4.445  13.735  0.2781 -1.2635 -0.2362
15348TIP3    H267536   5.058   4.554  13.777 -1.0740  0.9769 -2.6941
15349TIP3   OH267537   0.189   0.754  16.385 -0.1788 -0.0312  0.1149
15349TIP3    H167538   0.245   0.798  16.321 -0.1162  0.6306  0.6116
15349TIP3    H267539   0.184   0.816  16.458  1.2509 -1.5072  1.5545
15350TIP3   OH267540   0.074   6.607   4.780 -0.5653 -0.5207  0.4144
15350TIP3    H167541   0.068   6.631   4.687 -0.2828 -0.2309  0.4704
15350TIP3    H267542   0.043   6.516   4.783  0.7259 -1.0070 -0.1688
15351TIP3   OH267543   4.934   1.041   0.819  0.3393 -0.2121  0.5621
15351TIP3    H167544   4.902   1.131   0.817  0.7931 -0.0255  1.1890
15351TIP3    H267545   5.019   1.046   0.775  0.9783 -0.0541  1.7541
15352TIP3   OH267546   2.358   1.614  13.119  0.0279 -0.5165 -0.3555
15352TIP3    H167547   2.410   1.541  13.084  0.6417 -0.2447 -0.0359
15352TIP3    H267548   2.269   1.579  13.127 -0.0297 -0.7171 -1.7362
15353TIP3   OH267549   5.552   4.525  11.952 -0.4024  0.2233  0.2419
15353TIP3    H167550   5.584   4.475  12.027 -1.7999  0.0689  0.7658
15353TIP3    H267551   5.460   4.500  11.945 -0.0332 -0.6572 -2.2600
15354TIP3   OH267552   0.014   1.325   3.702 -0.3321  0.3324  0.3531
15354TIP3    H167553   0.087   1.324   3.764  0.2840 -0.9161 -0.3355
15354TIP3    H267554  -0.065   1.329   3.756  0.2208  0.4821  1.1605
15355TIP3   OH267555   5.784   5.270  11.884  0.6131  0.3815  0.4804
15355TIP3    H167556   5.817   5.313  11.805 -0.1769  0.7674  0.3518
15355TIP3    H267557   5.734   5.195  11.852  0.5992  0.3227  0.6394
15356TIP3   OH267558   2.219   5.834  12.943  0.0568 -0.1407  0.1142
15356TIP3    H167559   2.131   5.831  12.981  0.2739 -0.0602  0.6372
15356TIP3    H267560   2.268   5.768  12.991 -0.2818 -1.7855 -1.7007
15357TIP3   OH267561   6.778   1.842   2.783 -0.1485  0.1702 -0.5800
15357TIP3    H167562   6.795   1.921   2.835  0.3935 -0.3214 -0.0030
15357TIP3    H267563   6.777   1.771   2.847 -3.4589 -0.0045 -0.6602
15358TIP3   OH267564   2.058   4.476  12.996  0.1507  0.0514 -0.0219
15358TIP3    H167565   2.055   4.443  12.906  1.5197 -0.1170 -0.0218
15358TIP3    H267566   2.055   4.397  13.051  1.9964 -0.0218  0.0088
15359TIP3   OH267567   1.762   1.499  14.657  0.2679  0.3988  0.0374
15359TIP3    H167568   1.751   1.411  14.620  1.2581  0.6368 -0.8877
15359TIP3    H267569   1.691   1.508  14.721 -0.8207 -0.4636 -1.0057
15360TIP3   OH267570   3.299   2.111   1.197  0.4280  0.1833 -0.2651
15360TIP3    H167571   3.329   2.084   1.110  1.3303  0.8005 -0.1643
15360TIP3    H267572   3.365   2.078   1.257  1.0033  1.6536 -0.0434
15361TIP3   OH267573   3.700   4.039   5.515 -0.4875  0.0693  0.3228
15361TIP3    H167574   3.665   4.056   5.602 -0.6149 -1.8077  0.6786
15361TIP3    H267575   3.684   3.945   5.500 -1.9165  0.6302 -2.3670
15362TIP3   OH267576   3.042   6.593  14.830  0.1942  0.0707 -0.0542
15362TIP3    H167577   3.047   6.686  14.853  1.1351  0.2081 -0.7159
15362TIP3    H267578   3.111   6.552  14.883 -1.0214 -0.4751  1.1545
15363TIP3   OH267579   1.076   1.365   5.432  0.5349 -0.4547 -0.5081
15363TIP3    H167580   1.128   1.351   5.353 -0.0322 -1.1794 -0.7572
15363TIP3    H267581   1.077   1.460   5.445 -0.9072 -0.1155 -2.4529
15364TIP3   OH267582   2.891   5.992  15.515 -0.2425 -0.0933  0.0321
15364TIP3    H167583   2.906   6.062  15.579  0.9923  1.5122 -1.8636
15364TIP3    H267584   2.797   5.992  15.501 -0.2320  1.6119 -0.3000
15365TIP3   OH267585   0.554   0.320  11.368 -0.6224 -0.3771  0.1721
15365TIP3    H167586   0.541   0.270  11.449 -0.2401 -0.9550 -0.1214
15365TIP3    H267587   0.479   0.299  11.314 -0.0370 -1.3199 -0.2950
15366TIP3   OH267588   5.147   3.074   1.134  0.7911 -0.4144 -0.2061
15366TIP3    H167589   5.173   3.166   1.132  0.9751 -0.4563  0.1574
15366TIP3    H267590   5.225   3.027   1.106  0.6146 -0.4447 -0.6514
15367TIP3   OH267591   1.867   3.880  13.987  0.5242  0.4313  0.1676
15367TIP3    H167592   1.817   3.822  13.930  0.0990 -2.1906  2.9425
15367TIP3    H267593   1.948   3.897  13.939 -0.2842 -0.6480 -1.6834
15368TIP3   OH267594   2.502   4.670   3.546  0.3453 -0.3809  0.2042
15368TIP3    H167595   2.482   4.697   3.635  0.9868 -0.6025  0.4187
15368TIP3    H267596   2.583   4.620   3.553  1.3312  1.0324 -0.7285
15369TIP3   OH267597   6.752   0.343   2.028 -0.3219  0.0907 -0.2675
15369TIP3    H167598   6.830   0.366   1.977 -1.2556  0.8668 -1.3971
15369TIP3    H267599   6.717   0.427   2.058 -2.5659  0.1105 -2.6117
15370TIP3   OH267600   4.387   3.328   4.866  0.6344 -0.7120 -0.1104
15370TIP3    H167601   4.343   3.249   4.836  4.0390 -2.5866 -0.7411
15370TIP3    H267602   4.427   3.304   4.949 -0.5348  1.3396  1.1508
15371TIP3   OH267603   4.327   0.191  16.844 -0.5805 -0.0224  0.3872
15371TIP3    H167604   4.291   0.211  16.757 -0.5819 -0.4664  0.2824
15371TIP3    H267605   4.372   0.271  16.871 -0.5650  0.1129 -0.0341
15372TIP3   OH267606   5.256   0.849   5.987 -0.5684 -0.1127 -0.2829
15372TIP3    H167607   5.161   0.857   5.988 -0.7081 -1.5359  1.5352
15372TIP3    H267608   5.272   0.769   5.938 -0.2159  0.6183 -1.4110
15373TIP3   OH267609   6.096   2.863   2.345  0.0871  1.0901  0.0107
15373TIP3    H167610   6.046   2.845   2.266 -0.2949 -1.5445  0.7685
15373TIP3    H267611   6.031   2.867   2.415  0.6574  0.4948  0.5920
15374TIP3   OH267612   5.660   1.221   6.398  0.0793 -0.1325 -0.5111
15374TIP3    H167613   5.708   1.151   6.353 -2.7825 -2.2331 -0.5813
15374TIP3    H267614   5.631   1.279   6.328  1.8675  0.8554 -0.5149
15375TIP3   OH267615   0.197   0.223   3.994 -0.1682 -0.2935 -0.2668
15375TIP3    H167616   0.109   0.183   3.998 -0.1876 -0.3199 -0.8330
15375TIP3    H267617   0.215   0.230   3.900  0.1955  0.2516 -0.1565
15376TIP3   OH267618   2.079   6.037   1.133  0.0726  0.0389 -0.5840
15376TIP3    H167619   2.112   5.977   1.066 -0.3001  0.2619 -0.9737
15376TIP3    H267620   2.130   6.017   1.211  1.3172  0.5472 -1.2320
15377TIP3   OH267621   1.630   6.819  14.529  0.2607 -0.6900  0.1410
15377TIP3    H167622   1.596   6.875  14.459  1.4004  0.1771  0.2612
15377TIP3    H267623   1.722   6.807  14.508  0.3157 -1.5045  0.7962
15378TIP3   OH267624   5.448   5.370  13.128 -0.2367 -0.6392 -0.0341
15378TIP3    H167625   5.515   5.304  13.145 -0.0509 -0.0962  1.5176
15378TIP3    H267626   5.473   5.409  13.044  0.5003 -1.4971 -0.2307
15379TIP3   OH267627   5.546   0.714  12.039 -0.6287  0.0229 -0.0288
15379TIP3    H167628   5.514   0.699  11.950 -2.0299 -3.3455  0.8995
15379TIP3    H267629   5.473   0.757  12.083 -0.2080  1.0212 -0.2786
15380TIP3   OH267630   3.507   3.896  13.526  0.2665 -0.2212 -0.3120
15380TIP3    H167631   3.559   3.975  13.517  0.8968 -0.7744 -1.8284
15380TIP3    H267632   3.532   3.842  13.452 -1.7165 -0.9452 -0.5215
15381TIP3   OH267633   3.630   1.436   1.968  0.3606 -0.1552 -0.4597
15381TIP3    H167634   3.629   1.383   2.048 -0.8651 -1.2101 -1.1380
15381TIP3    H267635   3.541   1.470   1.962  0.7441  0.8131 -0.8202
15382TIP3   OH267636   3.599   2.193  12.037  0.1406  0.3017  0.0840
15382TIP3    H167637   3.602   2.214  11.943  0.8592  0.4110  0.1233
15382TIP3    H267638   3.588   2.278  12.080  0.0736  0.2804  0.1080
15383TIP3   OH267639   5.648   5.007   2.845 -0.1957  0.0260  0.1869
15383TIP3    H167640   5.609   4.920   2.857  1.3275 -0.7893 -0.5648
15383TIP3    H267641   5.739   4.997   2.872  0.6333  0.7460 -2.0915
15384TIP3   OH267642   2.474   1.962   4.057  0.1081 -0.3466  0.4229
15384TIP3    H167643   2.434   2.039   4.015 -0.0042 -0.7978 -0.3233
15384TIP3    H267644   2.529   1.998   4.126  2.7355  0.6959 -2.0093
15385TIP3   OH267645   5.945   1.608   4.823  0.0754 -0.3561 -0.7971
15385TIP3    H167646   5.979   1.585   4.909 -2.0434  2.2733  0.9249
15385TIP3    H267647   6.013   1.580   4.762  3.1940  0.4916  1.9594
15386TIP3   OH267648   6.762   6.000   4.042  0.0096 -0.3713  0.8011
15386TIP3    H167649   6.735   5.961   4.126  2.1339 -1.9178  0.8714
15386TIP3    H267650   6.831   6.062   4.066 -0.1987  0.0562  0.2950
15387TIP3   OH267651   2.915   2.493  16.300  0.4018  0.0979  0.4981
15387TIP3    H167652   2.904   2.587  16.290 -0.2045 -0.1106 -1.2805
15387TIP3    H267653   2.842   2.455  16.250  1.9099 -1.3017 -0.7645
15388TIP3   OH267654   2.607   5.851   6.140  0.6603  0.3334  0.0892
15388TIP3    H167655   2.620   5.926   6.198 -0.7877 -0.1980  1.1662
15388TIP3    H267656   2.596   5.776   6.198  0.5109 -0.4564 -0.9148
15389TIP3   OH267657   6.654   2.522   5.615 -0.1105 -0.3626  0.4242
15389TIP3    H167658   6.718   2.484   5.676  0.4734 -4.4521 -2.3788
15389TIP3    H267659   6.569   2.493   5.649  0.1140 -1.5281  0.0086
15390TIP3   OH267660   3.659   2.351   4.067 -0.1587  0.5342  0.0712
15390TIP3    H167661   3.708   2.417   4.117  2.3757 -0.3302 -1.0917
15390TIP3    H267662   3.683   2.368   3.976 -1.5081 -0.3895 -0.4793
15391TIP3   OH267663   2.310   0.499  15.936 -0.0420 -0.3719 -0.2679
15391TIP3    H167664   2.256   0.571  15.967  1.2127  0.8510 -0.8599
15391TIP3    H267665   2.305   0.434  16.007  0.9363  1.4047  1.5172
15392TIP3   OH267666   5.428   4.705  12.281 -0.0216  0.1278  0.1329
15392TIP3    H167667   5.341   4.674  12.259 -0.1641 -0.6826  1.7688
15392TIP3    H267668   5.476   4.627  12.310  0.4986  0.9366  1.5425
15393TIP3   OH267669   0.257   6.122  10.758  0.8212  0.4678  0.1912
15393TIP3    H167670   0.238   6.137  10.666  0.2647  2.6194  0.6000
15393TIP3    H267671   0.173   6.093  10.795  0.3167  2.1321  0.4604
15394TIP3   OH267672   3.542   5.387  11.553 -0.4235 -0.1268 -0.1188
15394TIP3    H167673   3.495   5.470  11.545  1.1607  0.9891  1.4315
15394TIP3    H267674   3.513   5.350  11.636  0.3585 -0.1420  0.1497
15395TIP3   OH267675   5.815   0.485   3.885 -0.1714 -0.0746  0.3819
15395TIP3    H167676   5.751   0.421   3.915 -1.5879  1.2716  0.3544
15395TIP3    H267677   5.778   0.569   3.910  1.4229  0.7750  0.0121
15396TIP3   OH267678   2.678   6.488   3.602  0.3186 -0.0450 -0.1203
15396TIP3    H167679   2.588   6.454   3.605  0.6419 -0.8500  1.0427
15396TIP3    H267680   2.671   6.577   3.635 -0.0881 -0.0002 -0.3086
15397TIP3   OH267681   2.070   0.322  17.001  0.4060  0.3751 -0.4619
15397TIP3    H167682   1.986   0.337  17.044  1.1909 -0.2074  1.3807
15397TIP3    H267683   2.078   0.227  16.996  1.6826  0.3707  0.9807
15398TIP3   OH267684   4.770   4.207   6.003 -0.4918  0.1948 -0.5663
15398TIP3    H167685   4.736   4.281   6.052  2.0158  0.4787  0.8983
15398TIP3    H267686   4.862   4.203   6.026  0.2099 -1.3495 -3.2248
15399TIP3   OH267687   1.112   6.098  12.827  0.7129 -0.4860 -0.0106
15399TIP3    H167688   1.031   6.121  12.782  1.3774  0.3174 -0.8376
15399TIP3    H267689   1.093   6.111  12.920 -0.8158 -2.5847  0.0426
15400TIP3   OH267690   4.029   2.683   3.087  0.1999  0.4602 -0.0003
15400TIP3    H167691   3.947   2.702   3.042 -1.3562 -1.3013  1.9399
15400TIP3    H267692   4.053   2.766   3.129 -0.1443  1.1927 -1.2126
15401TIP3   OH267693   3.352   0.920  15.899  0.1389 -0.5646 -0.0709
15401TIP3    H167694   3.445   0.902  15.885  0.7386 -0.1854  2.8323
15401TIP3    H267695   3.347   1.015  15.911  0.0321 -0.8963  3.3120
15402TIP3   OH267696   2.048   5.423   3.983  0.3045 -0.5994  0.2070
15402TIP3    H167697   1.976   5.474   3.946 -0.4986 -1.5617  0.4174
15402TIP3    H267698   2.126   5.478   3.970 -0.8236  1.7085  2.3731
15403TIP3   OH267699   2.114   3.101   2.816 -0.3813 -0.2947  0.8809
15403TIP3    H167700   2.031   3.074   2.856 -0.8019 -0.9281 -0.3781
15403TIP3    H267701   2.152   3.021   2.781 -0.2129  0.2737 -0.3061
15404TIP3   OH267702   1.933   6.574   0.406  0.7461  0.1969  0.6310
15404TIP3    H167703   1.866   6.642   0.398  0.7890  0.2039  0.3468
15404TIP3    H267704   1.973   6.591   0.492  1.5253  1.2292  0.0863
15405TIP3   OH267705   4.572   2.015  17.257 -0.2057  0.4626 -0.0698
15405TIP3    H167706   4.546   1.951  17.324  0.2530  1.0499  0.6759
15405TIP3    H267707   4.556   1.969  17.174  1.5989 -1.2245  0.4439
15406TIP3   OH267708   6.701   2.973   0.312  0.7748 -0.2251  0.0606
15406TIP3    H167709   6.734   2.891   0.273 -0.0048 -0.3582 -0.3373
15406TIP3    H267710   6.651   2.944   0.388  1.6178 -0.0163  0.7100
15407TIP3   OH267711   2.444   2.718   3.643  0.2204  0.0053  0.1014
15407TIP3    H167712   2.460   2.642   3.587  0.4453 -0.9430  1.3902
15407TIP3    H267713   2.350   2.735   3.633  0.0518 -0.7965  0.1927
15408TIP3   OH267714   6.044   2.829  13.259  0.0476 -0.3504 -0.0006
15408TIP3    H167715   6.063   2.812  13.352  1.1284  0.5303 -0.0392
15408TIP3    H267716   6.129   2.848  13.220 -0.5576  0.6960 -0.8740
15409TIP3   OH267717   2.636   0.694  16.265  0.1574  0.1840  0.0351
15409TIP3    H167718   2.691   0.620  16.237 -1.1325 -1.3856  1.3758
15409TIP3    H267719   2.593   0.724  16.185  0.6292 -0.5970 -0.5268
15410TIP3   OH267720   0.927   1.071  16.004  0.4788 -0.0595 -0.2269
15410TIP3    H167721   0.993   1.123  16.050 -0.5997  1.1000  0.0331
15410TIP3    H267722   0.924   1.108  15.916 -0.9465  0.9671  0.2242
15411TIP3   OH267723   6.582   0.105   1.366 -0.5095  0.7064 -0.0947
15411TIP3    H167724   6.496   0.074   1.338  0.1339 -0.8961 -0.4581
15411TIP3    H267725   6.600   0.057   1.447  0.0713  0.9424 -0.0798
15412TIP3   OH267726   3.734   3.276   1.201 -0.2752  0.5798 -0.4212
15412TIP3    H167727   3.804   3.296   1.263 -0.0439 -1.8253  0.1825
15412TIP3    H267728   3.677   3.352   1.204  0.3333  1.0223  1.9083
15413TIP3   OH267729   0.519   5.618  15.901  0.1114 -0.5828 -0.2530
15413TIP3    H167730   0.574   5.613  15.822 -0.2269  0.9010 -0.6080
15413TIP3    H267731   0.435   5.583  15.873 -0.0912  0.1954 -0.6475
15414TIP3   OH267732   3.759   1.853   3.886 -0.3112  0.1354 -0.3820
15414TIP3    H167733   3.743   1.927   3.827 -0.6650  0.7708  0.4862
15414TIP3    H267734   3.679   1.847   3.939  0.3121  0.0856  0.5739
15415TIP3   OH267735   0.316   5.489   5.169  0.4768 -0.3072 -0.2581
15415TIP3    H167736   0.244   5.432   5.193  0.7841 -0.9577 -0.8378
15415TIP3    H267737   0.384   5.471   5.233  0.8028 -1.0633 -0.8015
15416TIP3   OH267738   0.541   0.339  12.792 -0.2454 -0.2652 -0.4708
15416TIP3    H167739   0.584   0.303  12.870  0.8628 -1.0237 -1.4122
15416TIP3    H267740   0.460   0.289  12.784 -0.8170  0.4120  0.6715
15417TIP3   OH267741   0.286   1.425  11.699 -0.4625 -0.4622 -0.2675
15417TIP3    H167742   0.252   1.341  11.668 -2.3753 -0.8842  2.5475
15417TIP3    H267743   0.211   1.485  11.693 -0.2192  0.0291  1.0767
15418TIP3   OH267744   3.259   6.175   2.013 -0.2488 -0.3067 -0.1474
15418TIP3    H167745   3.260   6.229   2.092  0.5192  0.3228 -0.5693
15418TIP3    H267746   3.260   6.085   2.045  1.2983 -0.0626  0.5596
15419TIP3   OH267747   2.337   1.157   5.426 -0.2093 -0.2667 -0.5902
15419TIP3    H167748   2.430   1.141   5.409 -0.4441  0.5447 -2.9644
15419TIP3    H267749   2.334   1.243   5.467  0.2629 -1.6894  2.7531
15420TIP3   OH267750   6.804   0.695  15.481  0.0483 -0.2065  0.0223
15420TIP3    H167751   6.849   0.612  15.495 -0.6688 -1.1274 -2.5820
15420TIP3    H267752   6.712   0.672  15.472 -0.4699  1.1655  1.2666
15421TIP3   OH267753   3.350   3.406   5.804  0.0917 -0.3780  0.3305
15421TIP3    H167754   3.355   3.447   5.890  0.8950  0.5785 -0.1571
15421TIP3    H267755   3.286   3.336   5.815  1.5413 -1.4893  2.1966
15422TIP3   OH267756   2.446   4.765   1.534 -0.0858  0.4297 -0.0124
15422TIP3    H167757   2.445   4.858   1.511 -1.7433  0.5255  0.2931
15422TIP3    H267758   2.394   4.723   1.465 -1.2295  0.0683  1.0386
15423TIP3   OH267759   1.247   2.787   5.196 -0.1908 -0.4169 -0.2560
15423TIP3    H167760   1.268   2.815   5.285  2.1971 -3.6548  0.3692
15423TIP3    H267761   1.266   2.863   5.142 -1.1814  1.4676  1.8682
15424TIP3   OH267762   1.784   3.366   0.464  0.3833 -0.4892  0.0289
15424TIP3    H167763   1.833   3.418   0.400  1.3859 -1.2386  0.1507
15424TIP3    H267764   1.733   3.430   0.513 -1.9794 -0.0200 -2.7284
15425TIP3   OH267765   2.688   1.604   0.079  0.1761  0.0997 -0.5951
15425TIP3    H167766   2.748   1.668   0.117 -0.0774  0.8717 -1.4753
15425TIP3    H267767   2.625   1.587   0.149  1.3692 -0.6915  0.3282
15426TIP3   OH267768   2.156   1.702   2.659 -0.1346 -0.0739  0.2055
15426TIP3    H167769   2.220   1.752   2.607 -1.1786 -0.5316 -1.5941
15426TIP3    H267770   2.075   1.751   2.649 -1.1436 -1.9702 -1.4565
15427TIP3   OH267771   6.518   2.693  11.064  0.2404  0.3730  0.2394
15427TIP3    H167772   6.487   2.685  10.974  0.9381 -1.1640  0.1005
15427TIP3    H267773   6.582   2.764  11.061  1.4268 -0.7054 -0.8345
15428TIP3   OH267774   1.792   0.445   1.140  0.0048 -0.3340  0.5256
15428TIP3    H167775   1.707   0.420   1.176 -0.7538 -0.7467 -1.4109
15428TIP3    H267776   1.788   0.541   1.134 -1.6286 -0.4696 -2.3417
15429TIP3   OH267777   3.042   4.347   6.233 -0.4606 -0.0213 -0.0859
15429TIP3    H167778   3.087   4.422   6.270  0.9513 -1.2274  0.7240
15429TIP3    H267779   2.949   4.363   6.252 -0.2744  1.8087 -0.5350
15430TIP3   OH267780   5.883   4.030  11.425  0.3022  0.2094  0.8082
15430TIP3    H167781   5.818   3.972  11.384  1.4940 -2.6198  2.6004
15430TIP3    H267782   5.842   4.058  11.507  0.2477  0.8392  0.5707
15431TIP3   OH267783   5.671   2.184   5.681  0.7133 -0.0778 -0.1817
15431TIP3    H167784   5.601   2.169   5.617  1.2807 -0.0439 -0.8187
15431TIP3    H267785   5.737   2.118   5.659  0.2188 -1.1752  1.4124
15432TIP3   OH267786   1.203   2.532   1.586 -0.4362  0.0332  0.3168
15432TIP3    H167787   1.214   2.438   1.572 -0.7546 -0.0123  0.3555
15432TIP3    H267788   1.109   2.547   1.571 -0.4460  0.2872  0.6309
15433TIP3   OH267789   4.138   2.126  11.874  0.1256  0.3459 -0.7441
15433TIP3    H167790   4.158   2.036  11.850  0.5099  0.6019 -1.4046
15433TIP3    H267791   4.101   2.120  11.962  2.2760 -0.2449  0.1746
15434TIP3   OH267792   0.496   4.339   0.381  0.0993 -0.0948 -0.4261
15434TIP3    H167793   0.447   4.374   0.307 -1.0598 -0.0090  0.3551
15434TIP3    H267794   0.555   4.410   0.406  0.2653 -0.0058 -1.0578
15435TIP3   OH267795   3.084   1.026  12.622  0.2657  0.4137 -0.1542
15435TIP3    H167796   3.069   0.941  12.663  1.1578 -0.0571 -0.7686
15435TIP3    H267797   3.105   1.085  12.695  0.5419 -0.1055  0.1913
15436TIP3   OH267798   6.460   2.804   4.201  0.2838 -0.3559 -0.2162
15436TIP3    H167799   6.459   2.709   4.206  0.5026 -0.3093  1.4467
15436TIP3    H267800   6.545   2.826   4.162 -0.2834 -0.8417 -1.7910
15437TIP3   OH267801   1.430   1.066   4.497 -0.1398  0.1679 -0.2076
15437TIP3    H167802   1.379   1.138   4.535 -0.4568  0.0359 -0.3810
15437TIP3    H267803   1.400   1.060   4.407 -0.9561 -0.9325  0.1216
15438TIP3   OH267804   2.147   0.153   3.811 -0.2335  0.3699 -0.2806
15438TIP3    H167805   2.065   0.164   3.763 -0.1346  0.6454 -0.3912
15438TIP3    H267806   2.137   0.069   3.856 -0.7700  0.6352  0.1040
15439TIP3   OH267807   2.103   6.039   5.091  0.9150 -0.3953 -0.0971
15439TIP3    H167808   2.107   5.946   5.113  0.6507 -0.3945 -0.0326
15439TIP3    H267809   2.191   6.072   5.107  1.4920 -0.9990 -1.7679
15440TIP3   OH267810   2.781   4.269  12.262 -0.8354 -0.5393 -0.2326
15440TIP3    H167811   2.714   4.281  12.329  0.5091  0.7318  0.9435
15440TIP3    H267812   2.741   4.307  12.183 -1.8739 -0.7166  0.1847
15441TIP3   OH267813   4.341   0.285  14.819 -0.1107 -0.4165  0.2090
15441TIP3    H167814   4.353   0.322  14.906  2.0304 -3.2534  1.2950
15441TIP3    H267815   4.367   0.355  14.759  0.3596  0.9533  1.9319
15442TIP3   OH267816   5.539   6.725  12.493 -0.0305  0.1087 -0.5808
15442TIP3    H167817   5.605   6.782  12.533 -0.0947 -0.8434  0.9653
15442TIP3    H267818   5.580   6.639  12.492 -2.1724 -1.2464  3.3202
15443TIP3   OH267819   0.061   6.821  15.698 -0.2435 -0.5714  0.5577
15443TIP3    H167820   0.089   6.855  15.783  0.1808  3.2984 -0.9075
15443TIP3    H267821  -0.034   6.813  15.705 -0.2452  0.0526  1.3098
15444TIP3   OH267822   0.151   4.377   4.158 -0.5216  0.9583  0.2297
15444TIP3    H167823   0.071   4.329   4.137 -1.0017  0.8343  2.1547
15444TIP3    H267824   0.166   4.359   4.251  0.4647  2.8448  0.4877
15445TIP3   OH267825   2.404   5.346   1.591 -0.4048 -0.4996  0.2142
15445TIP3    H167826   2.319   5.361   1.633 -0.2816  1.0599 -0.0547
15445TIP3    H267827   2.383   5.290   1.516 -1.0038 -1.0846  0.7940
15446TIP3   OH267828   4.865   0.869  12.703 -0.0114  0.8171 -0.9577
15446TIP3    H167829   4.890   0.783  12.736  0.4566  0.4557 -2.2296
15446TIP3    H267830   4.806   0.851  12.630  0.7364  1.5492 -1.7648
15447TIP3   OH267831   1.660   2.340   2.952 -0.7583 -0.2439  0.0004
15447TIP3    H167832   1.597   2.385   2.896 -1.1562  0.8487  1.2497
15447TIP3    H267833   1.731   2.315   2.894  0.5391  3.9189 -0.5781
15448TIP3   OH267834   0.070   1.792  16.279  0.6130 -0.3675 -0.0886
15448TIP3    H167835  -0.015   1.758  16.250  0.0268  2.4498 -2.1595
15448TIP3    H267836   0.050   1.843  16.358  0.5994 -0.7277  0.1396
15449TIP3   OH267837   1.447   1.658  12.647  0.1615 -0.4365 -0.0668
15449TIP3    H167838   1.402   1.733  12.686  1.7929  1.1128 -0.9997
15449TIP3    H267839   1.415   1.655  12.557  0.0654 -0.9148 -0.0195
15450TIP3   OH267840   2.396   6.656  14.893  0.0230  0.2658 -0.3831
15450TIP3    H167841   2.430   6.593  14.829 -0.2501  0.5038 -0.7682
15450TIP3    H267842   2.443   6.636  14.974  1.2073  0.6932 -0.9462
15451TIP3   OH267843   3.169   0.765  14.368  0.0713 -0.2074 -0.3040
15451TIP3    H167844   3.113   0.726  14.436  1.0290 -0.5398  0.3097
15451TIP3    H267845   3.129   0.737  14.286  0.2880 -1.8869  0.1194
15452TIP3   OH267846   3.678   1.348  15.687  0.2715  0.3329 -0.5514
15452TIP3    H167847   3.729   1.429  15.694  0.4779  0.1980 -0.4893
15452TIP3    H267848   3.587   1.377  15.695  0.3275  0.5940 -0.8426
15453TIP3   OH267849   1.536   0.523   3.278 -0.7879  0.1446  1.0010
15453TIP3    H167850   1.587   0.597   3.244 -0.0848 -0.8628 -0.2400
15453TIP3    H267851   1.518   0.469   3.201 -2.6353 -0.2085  1.6336
15454TIP3   OH267852   4.079   4.793  15.882 -0.1885  0.0150  0.1236
15454TIP3    H167853   4.042   4.710  15.853  0.4673 -0.5864  0.9684
15454TIP3    H267854   4.172   4.775  15.897  0.0323  0.9819  0.0122
15455TIP3   OH267855   3.313   5.676   0.931  0.6928 -0.1340  0.6735
15455TIP3    H167856   3.370   5.725   0.872  0.7844 -0.2744  0.6442
15455TIP3    H267857   3.244   5.737   0.954  0.0268 -0.4414 -0.4659
15456TIP3   OH267858   1.288   2.217  10.673 -0.0027 -0.0127  0.1539
15456TIP3    H167859   1.376   2.255  10.673 -0.0722  0.3140 -2.3599
15456TIP3    H267860   1.232   2.287  10.638 -1.3933 -0.0563  2.1134
15457TIP3   OH267861   4.928   4.409  14.662  0.6392 -0.1736  0.5912
15457TIP3    H167862   4.895   4.334  14.614  1.4202  0.0698 -0.3577
15457TIP3    H267863   4.928   4.480  14.598  0.1655  0.5812  1.3989
15458TIP3   OH267864   3.611   0.100   3.990 -0.3720 -0.0589  0.1201
15458TIP3    H167865   3.648   0.188   3.993  1.0487 -0.5413 -1.5342
15458TIP3    H267866   3.584   0.082   4.080  1.1699  1.3066  0.9081
15459TIP3   OH267867   3.610   1.908  14.482 -0.5619  0.0836 -0.5501
15459TIP3    H167868   3.644   1.938  14.398  1.7756 -3.0443 -0.9090
15459TIP3    H267869   3.525   1.868  14.461 -0.4314  0.1675 -1.2401
15460TIP3   OH267870   1.356   4.648   3.871  0.2247  0.0074  0.0950
15460TIP3    H167871   1.288   4.592   3.907  0.5846 -0.6043 -0.1521
15460TIP3    H267872   1.408   4.676   3.947  0.3840 -0.4655  0.1642
15461TIP3   OH267873   3.163   6.590   1.971  0.2796  0.5621  0.0751
15461TIP3    H167874   3.217   6.661   1.934  0.2890  0.0574 -0.9228
15461TIP3    H267875   3.209   6.565   2.051 -0.3905  2.5097  1.1392
15462TIP3   OH267876   3.844   0.954   4.389 -0.4424  0.1820 -0.0933
15462TIP3    H167877   3.809   0.870   4.362  0.6637 -1.7281  3.7299
15462TIP3    H267878   3.770   1.000   4.429 -0.3763 -0.4007  0.7205
15463TIP3   OH267879   1.837   5.802  14.349  0.3149  0.1285  0.0361
15463TIP3    H167880   1.763   5.856  14.325  0.6997  0.4868 -0.3466
15463TIP3    H267881   1.912   5.842  14.305  0.5626 -0.8620 -0.4725
15464TIP3   OH267882   4.654   4.443   1.016  0.2578  0.1239  0.1263
15464TIP3    H167883   4.581   4.440   1.078  0.6403  0.8514  0.6268
15464TIP3    H267884   4.612   4.451   0.931 -0.2569  1.0018  0.4429
15465TIP3   OH267885   2.808   0.962   0.746 -0.1774 -0.2874 -0.1054
15465TIP3    H167886   2.852   1.030   0.799  0.2406 -0.8412  0.2730
15465TIP3    H267887   2.779   1.008   0.668  2.0258 -0.0824 -0.8820
15466TIP3   OH267888   2.103   6.130  12.369 -0.3537  0.0272  0.5342
15466TIP3    H167889   2.017   6.171  12.358 -0.9859 -1.0627  1.2786
15466TIP3    H267890   2.144   6.137  12.282 -1.3750  0.1495  0.0455
15467TIP3   OH267891   6.330   1.967   0.112 -0.5581  0.0931  0.2932
15467TIP3    H167892   6.413   1.950   0.157 -0.1081  0.3501 -0.4177
15467TIP3    H267893   6.288   2.036   0.162  0.4271  1.1365 -0.2571
15468TIP3   OH267894   1.348   2.574   0.329  0.2265 -0.3717 -0.4349
15468TIP3    H167895   1.308   2.548   0.246 -1.6190  0.9907 -0.0428
15468TIP3    H267896   1.303   2.522   0.395 -0.8753  1.0821  0.0022
15469TIP3   OH267897   3.898   3.213   5.327 -0.1256  0.6955  0.1363
15469TIP3    H167898   3.955   3.159   5.382 -1.5141 -1.0510 -0.0422
15469TIP3    H267899   3.950   3.230   5.248  0.5146  0.0104  0.3954
15470TIP3   OH267900   5.088   1.091  16.964 -0.5071 -0.0785 -0.1008
15470TIP3    H167901   5.176   1.111  16.933 -0.7205 -0.2928 -0.8526
15470TIP3    H267902   5.058   1.172  17.005 -0.2242  0.2065 -0.4462
15471TIP3   OH267903   2.660   2.355  14.246 -0.0184 -0.1544 -0.2580
15471TIP3    H167904   2.601   2.396  14.309 -1.7267 -0.4491 -1.5919
15471TIP3    H267905   2.627   2.382  14.160  3.0223  1.3375 -1.1231
15472TIP3   OH267906   1.862   4.203  15.384 -0.6278 -0.7964  0.4230
15472TIP3    H167907   1.936   4.263  15.380 -1.5498  0.3412 -0.9658
15472TIP3    H267908   1.836   4.203  15.476  0.5366 -0.5214  0.7689
15473TIP3   OH267909   4.535   6.014   6.414 -0.1625 -0.3058  0.5763
15473TIP3    H167910   4.460   5.970   6.375 -0.3230  1.0995 -0.8113
15473TIP3    H267911   4.589   5.943   6.448 -0.4438 -1.6082 -1.4861
15474TIP3   OH267912   4.898   4.709   3.801 -0.5449  0.1784  0.6415
15474TIP3    H167913   4.961   4.646   3.766  1.0383  2.4727 -0.9360
15474TIP3    H267914   4.828   4.712   3.737 -0.0313  0.8589  0.1012
15475TIP3   OH267915   2.719   0.561   2.484 -0.3595  0.1199  0.1597
15475TIP3    H167916   2.645   0.621   2.491 -0.4561  0.0787 -0.4601
15475TIP3    H267917   2.753   0.575   2.395  1.0265  0.9033  0.7832
15476TIP3   OH267918   2.778   1.757   2.246  0.5528 -0.5273  0.6825
15476TIP3    H167919   2.691   1.752   2.285 -0.8026 -0.2053 -2.0639
15476TIP3    H267920   2.783   1.682   2.187  1.9279 -0.2487  0.4023
15477TIP3   OH267921   4.903   5.670  15.752  0.5309  0.2079 -0.4828
15477TIP3    H167922   4.864   5.584  15.769  1.4534 -0.2654 -0.6395
15477TIP3    H267923   4.863   5.699  15.670 -0.2389  0.2091 -0.1082
15478TIP3   OH267924   0.213   5.795  14.038 -0.5812  0.3178 -0.4063
15478TIP3    H167925   0.237   5.752  14.120  0.7146  0.6221 -0.6082
15478TIP3    H267926   0.123   5.825  14.053 -1.0098 -1.1812  0.2457
15479TIP3   OH267927   2.069   3.127  15.810 -0.1754  0.7255 -0.6787
15479TIP3    H167928   1.982   3.094  15.787 -0.1933  0.6100 -0.4409
15479TIP3    H267929   2.081   3.203  15.752 -0.8240  1.3113 -0.0654
15480TIP3   OH267930   5.428   6.761  12.943 -0.2471 -0.0381  0.0988
15480TIP3    H167931   5.467   6.800  13.021 -0.7674 -2.0480  1.4393
15480TIP3    H267932   5.362   6.701  12.977  0.5974 -2.1521 -1.7969
15481TIP3   OH267933   5.332   3.477  14.118  0.2062 -0.3303 -0.1178
15481TIP3    H167934   5.275   3.533  14.065  1.7606  0.3585 -1.1069
15481TIP3    H267935   5.313   3.503  14.209  2.2840  3.3309 -0.5609
15482TIP3   OH267936   6.113   6.541  12.594  0.4721 -0.0626 -0.2073
15482TIP3    H167937   6.159   6.605  12.540  0.3528  0.3088  0.1303
15482TIP3    H267938   6.047   6.503  12.535 -0.9956  1.7502  0.1832
15483TIP3   OH267939   1.283   4.952   2.946 -0.2757 -0.0744 -0.4770
15483TIP3    H167940   1.233   5.033   2.962 -1.0741 -0.3755 -1.3411
15483TIP3    H267941   1.327   4.968   2.862 -0.1375 -0.3997 -0.4658
15484TIP3   OH267942   2.045   6.178   0.699  0.0784 -0.2518 -0.0922
15484TIP3    H167943   2.057   6.246   0.766 -0.4432  0.9192 -1.1470
15484TIP3    H267944   1.952   6.156   0.704 -0.2491  0.7613 -1.2489
15485TIP3   OH267945   4.716   1.441  14.050 -0.5057  0.2971  0.3176
15485TIP3    H167946   4.800   1.405  14.079 -0.1065  0.6109 -0.4248
15485TIP3    H267947   4.739   1.506  13.984 -1.4134 -0.7783 -1.0947
15486TIP3   OH267948   1.784   2.054   1.213 -0.3380 -0.7997  0.1626
15486TIP3    H167949   1.821   2.099   1.137 -1.7866  0.6891  0.2960
15486TIP3    H267950   1.860   2.012   1.254  1.8196  3.8883  1.6941
15487TIP3   OH267951   6.143   4.841  16.240 -0.5387 -0.2013 -0.0860
15487TIP3    H167952   6.074   4.784  16.275 -0.4289 -0.5285 -0.3948
15487TIP3    H267953   6.203   4.781  16.194 -0.8443  0.2358 -1.0971
15488TIP3   OH267954   3.425   5.948  13.414  0.2719 -0.5377 -0.0545
15488TIP3    H167955   3.429   5.881  13.345  0.7228  0.8040 -1.3695
15488TIP3    H267956   3.513   5.946  13.453  0.7277  0.2001 -1.0050
15489TIP3   OH267957   2.400   3.167   6.011 -0.2695 -0.2882 -0.2058
15489TIP3    H167958   2.449   3.124   6.081  0.2893  0.3555 -0.1804
15489TIP3    H267959   2.442   3.253   6.003 -2.7214  1.1390  1.2365
15490TIP3   OH267960   2.276   4.896   6.087 -0.2724  0.0780  0.1388
15490TIP3    H167961   2.300   4.861   6.001  1.1033 -0.2874  0.6537
15490TIP3    H267962   2.285   4.990   6.077 -1.0647  0.1169 -0.3775
15491TIP3   OH267963   2.566   5.427   1.810 -0.0996 -0.1565  0.2923
15491TIP3    H167964   2.483   5.456   1.848 -0.4989  0.4873 -1.0035
15491TIP3    H267965   2.540   5.365   1.742  0.3925  0.8647 -0.8557
15492TIP3   OH267966   6.168   2.393  15.602  0.3317 -0.7530 -0.6105
15492TIP3    H167967   6.149   2.448  15.678 -0.4390 -0.8977 -0.6919
15492TIP3    H267968   6.083   2.380  15.560  0.7792 -0.4794 -1.6354
15493TIP3   OH267969   6.179   4.118  12.974  0.2608  0.2862 -0.0098
15493TIP3    H167970   6.174   4.031  12.936 -0.4010 -0.0357  0.7727
15493TIP3    H267971   6.231   4.107  13.054 -0.8432  0.3403  0.7486
15494TIP3   OH267972   5.227   3.980   1.352  0.3714 -0.6244 -0.0522
15494TIP3    H167973   5.262   4.062   1.388  1.4373 -0.4621 -1.3654
15494TIP3    H267974   5.141   4.004   1.317 -0.2665 -0.5796  1.5025
15495TIP3   OH267975   4.512   3.742   4.199  0.8181 -0.3193  0.1541
15495TIP3    H167976   4.444   3.775   4.140  0.9281 -1.2733 -0.5343
15495TIP3    H267977   4.572   3.816   4.210  0.6788 -0.0555 -0.7649
15496TIP3   OH267978   6.305   6.346  13.937  0.1178  0.0700 -0.0378
15496TIP3    H167979   6.356   6.265  13.931 -1.4260 -0.9565  0.1516
15496TIP3    H267980   6.289   6.371  13.846 -1.8629 -1.4964 -0.1838
15497TIP3   OH267981   5.665   0.643  11.301 -0.0805  0.2982  0.0473
15497TIP3    H167982   5.742   0.593  11.272 -0.7855  0.1211 -1.6184
15497TIP3    H267983   5.697   0.694  11.376  1.9664  1.0248 -1.2141
15498TIP3   OH267984   0.622   4.578  14.493 -0.4715  0.1287  0.2101
15498TIP3    H167985   0.678   4.654  14.504  0.1796 -0.3544  0.2731
15498TIP3    H267986   0.679   4.512  14.453 -0.5836 -0.8696  1.6485
15499TIP3   OH267987   5.878   1.206   4.927 -0.1609 -0.0205 -0.9638
15499TIP3    H167988   5.945   1.272   4.906 -0.7661  0.9873  0.1201
15499TIP3    H267989   5.851   1.171   4.842 -0.7905  2.1293 -1.7182
15500TIP3   OH267990   3.520   6.810   4.194 -0.7166 -0.2512 -0.5940
15500TIP3    H167991   3.539   6.726   4.152  1.9499 -0.8640  1.5116
15500TIP3    H267992   3.557   6.801   4.282  0.0675  3.2699 -0.4061
15501TIP3   OH267993   1.954   4.836  16.609  0.1902 -0.1333 -0.4013
15501TIP3    H167994   1.947   4.778  16.533  0.0815 -0.9576  0.2252
15501TIP3    H267995   1.874   4.887  16.607 -0.0163 -0.4610 -0.5918
15502TIP3   OH267996   5.055   4.983  17.216 -0.2504 -0.0335  0.0624
15502TIP3    H167997   5.059   4.918  17.286  1.5146 -1.5348 -1.3401
15502TIP3    H267998   5.033   5.065  17.260 -0.2505 -1.1368  2.2083
15503TIP3   OH267999   0.044   4.593  13.491 -0.6663 -0.0856  0.4378
15503TIP3    H168000   0.051   4.499  13.506 -1.3357  0.2355  3.1645
15503TIP3    H268001  -0.017   4.624  13.557  0.4636  2.4582  0.4162
15504TIP3   OH268002   6.659   5.305   5.249  0.3067 -0.6021 -0.1222
15504TIP3    H168003   6.740   5.356   5.247 -0.5114  0.7460  0.1469
15504TIP3    H268004   6.666   5.245   5.175  0.5232  1.1513 -1.5682
15505TIP3   OH268005   5.528   2.962   0.206 -0.3241 -0.3823  0.0110
15505TIP3    H168006   5.506   3.025   0.274 -1.6588  0.6297 -1.2725
15505TIP3    H268007   5.466   2.890   0.218 -1.0218  0.1171 -0.5315
15506TIP3   OH268008   2.608   6.746   2.381 -0.5437  0.1835  0.0365
15506TIP3    H168009   2.552   6.708   2.313 -1.5209  1.6972 -0.0497
15506TIP3    H268010   2.601   6.685   2.454  1.7734 -2.3351 -1.6414
15507TIP3   OH268011   6.725   1.377   2.074  0.4202  0.1858  0.2946
15507TIP3    H168012   6.766   1.458   2.042 -0.8680  0.5021 -0.6151
15507TIP3    H268013   6.798   1.315   2.078  1.3431  1.2322  0.5086
15508TIP3   OH268014   2.385   3.498  13.610  0.6779  0.7625 -0.2934
15508TIP3    H168015   2.342   3.421  13.574 -0.0796  1.3285 -0.6126
15508TIP3    H268016   2.328   3.527  13.681  0.6227  1.3991 -0.5861
15509TIP3   OH268017   2.983   2.711   4.816  0.0559  0.6335  0.2707
15509TIP3    H168018   3.055   2.733   4.876 -0.1667 -0.2220  0.8650
15509TIP3    H268019   2.966   2.618   4.832  0.6363  0.1234 -1.8320
15510TIP3   OH268020   3.083   6.228  14.951  1.0058 -0.3792 -0.0282
15510TIP3    H168021   3.128   6.295  15.003 -1.0760  0.0233  1.3858
15510TIP3    H268022   3.005   6.272  14.917  0.9791 -1.3847 -1.3288
15511TIP3   OH268023   4.639   0.340   2.384  0.2678  0.4227 -0.3558
15511TIP3    H168024   4.685   0.412   2.341 -1.9222  1.1815 -1.5405
15511TIP3    H268025   4.624   0.276   2.314  0.8767 -0.5401  0.3668
15512TIP3   OH268026   0.287   2.036  14.370  0.0186  0.6352 -0.8497
15512TIP3    H168027   0.281   1.946  14.403 -1.5047 -0.4250 -3.6557
15512TIP3    H268028   0.338   2.083  14.436  0.6954 -2.2239  0.8171
15513TIP3   OH268029   4.440   6.216  15.765  0.0792 -0.1161 -0.2310
15513TIP3    H168030   4.494   6.210  15.843 -1.7111 -0.5345  1.0369
15513TIP3    H268031   4.417   6.125  15.744 -1.5663  0.1286  0.3469
15514TIP3   OH268032   6.646   6.610  10.565 -0.5654 -0.0499  0.1972
15514TIP3    H168033   6.715   6.570  10.618 -1.5826 -0.3004  1.3779
15514TIP3    H268034   6.584   6.538  10.549 -0.4589  0.1145 -1.0459
15515TIP3   OH268035   2.059   5.054   5.034  0.0373  0.2586 -0.7221
15515TIP3    H168036   2.032   5.139   5.001  0.3962 -0.2930 -2.5710
15515TIP3    H268037   1.978   5.006   5.047 -0.1067  0.1563 -1.8474
15516TIP3   OH268038   6.395   6.423   0.742  0.1503  0.7588  0.4027
15516TIP3    H168039   6.369   6.336   0.774  0.5574  1.5254  3.1046
15516TIP3    H268040   6.490   6.418   0.736  0.3108  1.3776  1.9480
15517TIP3   OH268041   0.402   5.728   3.132 -0.1840  0.3427 -0.4160
15517TIP3    H168042   0.469   5.692   3.073  1.9653  2.6681  0.4314
15517TIP3    H268043   0.385   5.816   3.097 -0.3856  0.9843  1.2290
15518TIP3   OH268044   3.141   2.174   4.136  0.2003 -0.2950 -0.1857
15518TIP3    H168045   3.105   2.105   4.081  0.4481 -3.1300  2.8450
15518TIP3    H268046   3.066   2.230   4.157 -1.8901 -3.7668  2.7687
15519TIP3   OH268047   1.400   3.790   5.842  0.0660 -0.5344  0.1751
15519TIP3    H168048   1.457   3.758   5.912  1.7429 -1.3778 -1.4876
15519TIP3    H268049   1.334   3.843   5.887  1.2828 -0.7366  2.3338
15520TIP3   OH268050   0.966   4.896   1.921 -0.1757  0.2971  0.3117
15520TIP3    H168051   0.872   4.917   1.922 -0.5845 -1.0217 -2.0848
15520TIP3    H268052   0.970   4.808   1.884  2.0386  0.3552  0.2946
15521TIP3   OH268053   3.234   1.813   0.346  0.4021  0.3212 -0.2771
15521TIP3    H168054   3.243   1.887   0.405  0.7876 -0.0098  0.0839
15521TIP3    H268055   3.307   1.822   0.285  0.3138  0.3646 -0.3774
15522TIP3   OH268056   1.418   5.503  16.428  0.1593  0.4798 -0.2082
15522TIP3    H168057   1.419   5.410  16.407  0.5339  0.8708 -2.1291
15522TIP3    H268058   1.508   5.532  16.414 -0.0516  1.2225 -0.0807
15523TIP3   OH268059   5.406   3.064  13.853  0.3616  0.1394 -0.4245
15523TIP3    H168060   5.437   3.136  13.797  0.0759  0.4730 -0.1625
15523TIP3    H268061   5.475   2.998  13.848  0.9877  0.7478 -0.0745
15524TIP3   OH268062   4.852   0.690   3.320 -0.1627  0.1796 -0.4091
15524TIP3    H168063   4.907   0.613   3.335  0.1725  0.8165  2.1009
15524TIP3    H268064   4.913   0.763   3.316 -0.4881  0.4038 -2.6539
15525TIP3   OH268065   6.228   6.124   4.616 -0.1557 -0.1408  0.2812
15525TIP3    H168066   6.148   6.077   4.591 -0.6184  0.3407  0.8170
15525TIP3    H268067   6.230   6.118   4.711 -0.4514  1.2680  0.3949
15526TIP3   OH268068   5.209   1.340  10.382  0.0443  0.0636  0.5902
15526TIP3    H168069   5.288   1.393  10.368 -1.1542  1.7024 -0.1985
15526TIP3    H268070   5.220   1.305  10.470  1.4285  0.6343  0.6800
15527TIP3   OH268071   5.453   5.332  11.639 -0.1540  0.0590  1.0357
15527TIP3    H168072   5.392   5.286  11.581 -2.4848  0.6617  2.8593
15527TIP3    H268073   5.501   5.263  11.683 -0.1789 -0.4684  0.2583
15528TIP3   OH268074   5.261   5.590  13.061 -0.2712  0.0338 -0.1191
15528TIP3    H168075   5.295   5.584  13.150 -1.9621  0.0332  0.5760
15528TIP3    H268076   5.224   5.679  13.056  0.7102  0.4022 -1.1778
15529TIP3   OH268077   4.262   4.601  12.552 -0.2592  0.0650  0.3981
15529TIP3    H168078   4.206   4.668  12.590 -0.1770 -0.1298  0.8695
15529TIP3    H268079   4.223   4.518  12.582 -0.3687 -0.0975 -0.1880
15530TIP3   OH268080   0.306   5.208   5.703 -0.5738 -0.1792 -0.5071
15530TIP3    H168081   0.346   5.145   5.643 -0.0018  1.6245 -2.1328
15530TIP3    H268082   0.220   5.225   5.665 -0.8283 -0.1802  0.0665
15531TIP3   OH268083   6.222   5.405   2.000 -0.4431  0.4771  0.4855
15531TIP3    H168084   6.216   5.310   1.988  1.1425  0.4474 -0.2334
15531TIP3    H268085   6.133   5.431   2.025 -0.6087 -1.3650  2.0657
15532TIP3   OH268086   0.961   6.586  14.726  0.1573  0.2526  0.1244
15532TIP3    H168087   1.055   6.569  14.726  0.0061 -0.6850  0.3480
15532TIP3    H268088   0.952   6.680  14.711  1.1615  0.5195  1.1365
15533TIP3   OH268089   1.849   5.771  13.479 -0.4931  0.2537 -0.0049
15533TIP3    H168090   1.894   5.783  13.562  0.0661  2.4805 -0.5680
15533TIP3    H268091   1.839   5.859  13.444  0.0469 -0.6679 -2.6997
15534TIP3   OH268092   0.209   6.323   6.362  0.3729  0.4526  0.0502
15534TIP3    H168093   0.203   6.416   6.343  3.6497  0.7050 -0.1907
15534TIP3    H268094   0.133   6.305   6.418 -0.2462  3.2588  0.2368
15535TIP3   OH268095   1.210   3.559   5.224  0.0366  0.0065 -0.4547
15535TIP3    H168096   1.184   3.627   5.162  0.1714 -1.2061 -1.8904
15535TIP3    H268097   1.295   3.528   5.193 -0.0095 -0.8036  0.1746
15536TIP3   OH268098   4.397   4.742  14.197 -0.3432  0.1897  0.1437
15536TIP3    H168099   4.342   4.676  14.239  1.6610 -0.5434  1.8054
15536TIP3    H268100   4.363   4.750  14.108 -0.7492 -3.0052 -0.0920
15537TIP3   OH268101   2.668   0.890   6.162  0.2206  0.1680 -0.2538
15537TIP3    H168102   2.752   0.849   6.143 -1.2335 -2.4926 -1.5109
15537TIP3    H268103   2.679   0.927   6.250  1.9317 -2.4479  0.7609
15538TIP3   OH268104   1.002   1.156  17.222  0.6971  0.2232 -0.4536
15538TIP3    H168105   0.999   1.218  17.150  2.2407  1.4634  0.4800
15538TIP3    H268106   1.047   1.080  17.186  1.3589  0.7918 -0.8510
15539TIP3   OH268107   4.977   1.149   2.501  1.2522  0.1589  0.1864
15539TIP3    H168108   4.989   1.225   2.558 -1.6042  0.6789  0.2458
15539TIP3    H268109   4.934   1.084   2.557  0.7778 -0.2894 -0.6820
15540TIP3   OH268110   6.640   6.497  16.065  0.1696 -0.1293 -0.4642
15540TIP3    H168111   6.707   6.443  16.106 -0.6430 -0.5485  0.3219
15540TIP3    H268112   6.608   6.445  15.992 -0.5410 -0.6892  0.2307
15541TIP3   OH268113   0.052   4.099   4.524 -0.7347 -0.7070 -0.0217
15541TIP3    H168114   0.053   4.008   4.554  0.4166 -0.3874  1.0005
15541TIP3    H268115   0.119   4.103   4.455  0.4208 -0.2986  1.0884
15542TIP3   OH268116   0.538   4.708  16.212  0.0186  0.2374 -0.2804
15542TIP3    H168117   0.454   4.725  16.254 -0.1863 -0.4907 -0.3905
15542TIP3    H268118   0.545   4.777  16.145 -0.7438 -0.0267 -0.6417
15543TIP3   OH268119   4.260   2.482  11.064  0.3678 -0.6820 -0.6867
15543TIP3    H168120   4.211   2.436  10.996  2.2059  1.2663 -3.5686
15543TIP3    H268121   4.340   2.511  11.020  1.9164  0.3242  2.4953
15544TIP3   OH268122   6.022   5.546   3.515 -0.2026 -0.4450  0.3723
15544TIP3    H168123   6.031   5.522   3.607  0.2243 -0.1460  0.4147
15544TIP3    H268124   5.966   5.478   3.478 -1.2951  0.0281  1.0944
15545TIP3   OH268125   0.376   2.309   0.061 -0.0178 -0.0155  0.2474
15545TIP3    H168126   0.283   2.324   0.047 -0.1481 -0.6847  0.3728
15545TIP3    H268127   0.416   2.327  -0.024  0.0449  2.4727  0.7352
15546TIP3   OH268128   4.743   2.259   4.421 -0.2194 -0.5083 -0.7365
15546TIP3    H168129   4.707   2.330   4.474  0.9827 -0.6316  0.2782
15546TIP3    H268130   4.700   2.180   4.455 -1.0182 -0.3699 -1.3855
15547TIP3   OH268131   3.352   0.940  17.004 -0.0826 -0.1970 -0.8457
15547TIP3    H168132   3.367   0.892  17.086  0.3946  1.4752  0.1092
15547TIP3    H268133   3.435   0.986  16.988 -0.8346  1.1090 -1.1365
15548TIP3   OH268134   5.114   0.283  12.425 -0.5234 -0.0656 -0.5576
15548TIP3    H168135   5.063   0.336  12.365 -2.1083 -0.3418  0.4854
15548TIP3    H268136   5.094   0.318  12.512  0.8322 -0.3891 -0.0854
15549TIP3   OH268137   1.981   3.140  12.149 -0.2423  0.0504  0.6897
15549TIP3    H168138   1.933   3.123  12.229 -0.0583  3.0951  1.5859
15549TIP3    H268139   1.924   3.109  12.079 -2.3905  1.2197  1.8311
15550TIP3   OH268140   3.902   6.769  14.372  0.0629  0.4460 -0.1568
15550TIP3    H168141   3.949   6.711  14.432 -0.5503 -0.1136 -0.2177
15550TIP3    H268142   3.830   6.716  14.339  0.9897  0.3851 -2.2062
15551TIP3   OH268143   2.974   4.287   2.467  0.0751  0.2545 -0.1688
15551TIP3    H168144   2.997   4.303   2.558  1.2295  0.7636 -0.5341
15551TIP3    H268145   2.906   4.220   2.471  0.5965 -0.2328  1.0290
15552TIP3   OH268146   0.969   4.576   0.773  0.0536  0.5545  0.3127
15552TIP3    H168147   0.893   4.538   0.818 -0.8642 -0.6087 -2.0727
15552TIP3    H268148   0.943   4.667   0.757 -0.9990  0.1075 -0.6945
15553TIP3   OH268149   1.709   6.623  14.099 -0.1229 -0.5262 -0.2696
15553TIP3    H168150   1.662   6.696  14.059  0.6461 -0.4336 -1.0507
15553TIP3    H268151   1.801   6.645  14.087  0.1302 -1.9299 -1.1228
15554TIP3   OH268152   6.724   1.177  14.778  0.5589 -0.2433 -0.9984
15554TIP3    H168153   6.628   1.174  14.775  0.4867  1.4621 -0.9666
15554TIP3    H268154   6.744   1.218  14.861  1.4002 -2.0311 -0.2645
15555TIP3   OH268155   3.052   0.059   2.935 -0.0028  0.1820  0.0823
15555TIP3    H168156   3.143   0.056   2.908  0.3158  3.0767  0.5614
15555TIP3    H268157   3.007   0.102   2.863 -0.4271  1.4475  1.0699
15556TIP3   OH268158   0.731   4.795  12.469  0.1324 -0.0885 -0.3011
15556TIP3    H168159   0.640   4.765  12.476  0.2175 -0.0218  1.4405
15556TIP3    H268160   0.783   4.719  12.493  0.3884  0.8650  2.5937
15557TIP3   OH268161   4.887   4.859  16.712 -0.5540  0.6885  0.3484
15557TIP3    H168162   4.904   4.887  16.801  1.0275  2.5374 -0.4878
15557TIP3    H268163   4.867   4.939  16.664  0.0869 -0.0726 -1.2767
15558TIP3   OH268164   1.397   2.546   2.739 -0.3829 -0.0114  0.3572
15558TIP3    H168165   1.399   2.483   2.667  1.9179  0.1221  0.2113
15558TIP3    H268166   1.304   2.563   2.753 -0.9995 -1.8875 -0.9379
15559TIP3   OH268167   6.210   6.815   1.059  0.0805 -0.2443  0.1583
15559TIP3    H168168   6.138   6.868   1.024  3.3138  2.7022 -2.8961
15559TIP3    H268169   6.228   6.751   0.990  2.7429  1.7252 -1.1768
15560TIP3   OH268170   1.902   4.895  11.796 -0.1385 -0.3870  0.3996
15560TIP3    H168171   1.947   4.818  11.761 -0.0371 -0.4618  0.6933
15560TIP3    H268172   1.971   4.947  11.836 -0.1054  0.1922 -0.3901
15561TIP3   OH268173   1.717   1.342   4.403 -0.4295  0.1850  0.0336
15561TIP3    H168174   1.769   1.388   4.336 -1.3121 -0.1037 -0.8890
15561TIP3    H268175   1.735   1.249   4.388  0.5966  0.1611  1.2621
15562TIP3   OH268176   2.425   5.098  14.615 -0.3053 -0.3862  0.3371
15562TIP3    H168177   2.351   5.081  14.556 -0.2912 -2.1481  0.7844
15562TIP3    H268178   2.502   5.068  14.567 -0.2176 -1.1918  0.9659
15563TIP3   OH268179   4.459   3.003   4.801  0.3104  0.2064 -0.5544
15563TIP3    H168180   4.441   2.914   4.832  0.3642 -0.7049 -2.9009
15563TIP3    H268181   4.377   3.031   4.760  0.7166  0.6696 -1.0696
15564TIP3   OH268182   4.430   2.342  13.204  0.3939 -0.0006 -0.4462
15564TIP3    H168183   4.338   2.344  13.176 -0.1338  0.4412  1.1894
15564TIP3    H268184   4.426   2.344  13.300  2.1162 -0.1394 -0.3388
15565TIP3   OH268185   3.857   4.644  14.786 -0.8013  0.0522  0.3524
15565TIP3    H168186   3.884   4.729  14.751 -2.5968  0.0050 -1.3430
15565TIP3    H268187   3.761   4.645  14.781 -0.8608 -2.4437 -0.7827
15566TIP3   OH268188   0.543   1.178   2.811 -0.3789  0.2241 -0.2747
15566TIP3    H168189   0.492   1.113   2.762  1.2014 -0.1164 -1.5530
15566TIP3    H268190   0.511   1.262   2.778  0.1673  0.0083 -1.4284
15567TIP3   OH268191   2.842   3.908  11.845  0.4773 -0.5585 -0.6498
15567TIP3    H168192   2.771   3.871  11.897 -0.8151  2.4117 -0.0628
15567TIP3    H268193   2.833   3.867  11.759 -2.6551  0.4083 -0.8970
15568TIP3   OH268194   3.784   4.393   1.440 -0.5725 -0.3744  0.0799
15568TIP3    H168195   3.700   4.438   1.428 -0.9514 -0.3435  2.3705
15568TIP3    H268196   3.843   4.436   1.378 -1.5271  1.6359  0.4814
15569TIP3   OH268197   1.004   2.952  14.561  0.2872  0.4702 -0.2876
15569TIP3    H168198   1.091   2.921  14.584 -0.4028 -1.1365  0.2836
15569TIP3    H268199   0.992   2.925  14.469 -0.6043 -1.8113  0.4276
15570TIP3   OH268200   0.117   4.886   6.092 -0.2624  0.0360 -0.4826
15570TIP3    H168201   0.199   4.935   6.079  0.0817  0.1629  1.7586
15570TIP3    H268202   0.091   4.860   6.004  1.1542  1.6634 -1.4504
15571TIP3   OH268203   5.071   2.221  13.665 -0.3156  0.4011 -0.3518
15571TIP3    H168204   5.127   2.299  13.668  1.4488 -0.8457  0.6389
15571TIP3    H268205   5.022   2.230  13.583  2.1835  1.0221 -1.8914
15572TIP3   OH268206   3.402   1.040  16.342 -0.1740 -0.2682 -0.2131
15572TIP3    H168207   3.492   1.071  16.349 -0.7296  0.9770  2.6297
15572TIP3    H268208   3.384   0.999  16.427 -3.0033  1.6536  0.2478
15573TIP3   OH268209   1.443   1.537  13.485 -0.0253 -0.7900  0.8721
15573TIP3    H168210   1.430   1.478  13.411  1.1562 -0.6882  0.5657
15573TIP3    H268211   1.384   1.503  13.553  0.6199 -2.3218  0.7031
15574TIP3   OH268212   4.260   3.219   1.539 -0.4504  0.4888 -0.2275
15574TIP3    H168213   4.183   3.262   1.576  0.0746  0.3625  1.0619
15574TIP3    H268214   4.283   3.272   1.462 -1.2511  1.0835 -0.0615
15575TIP3   OH268215   1.548   4.618  16.374 -0.1132 -0.2025  0.2924
15575TIP3    H168216   1.604   4.577  16.440 -1.0555  0.2647  1.3993
15575TIP3    H268217   1.510   4.694  16.418  0.4825  1.0654 -1.2869
15576TIP3   OH268218   2.999   3.753   5.638 -0.2417 -0.0058  0.3086
15576TIP3    H168219   2.911   3.791   5.649 -0.2704 -0.3675  1.4590
15576TIP3    H268220   3.059   3.825   5.656 -0.2952  0.2865 -0.6497
15577TIP3   OH268221   1.905   1.197   5.982  0.2444  0.4560 -0.5711
15577TIP3    H168222   1.909   1.177   6.075 -2.1173 -0.7467 -0.6373
15577TIP3    H268223   1.905   1.293   5.978  1.1320  0.5152  0.5948
15578TIP3   OH268224   1.370   0.591  15.716  0.6990  0.1821  0.0221
15578TIP3    H168225   1.389   0.605  15.808  1.8058 -0.9869  0.0014
15578TIP3    H268226   1.453   0.609  15.671  0.4899 -0.3729 -0.6079
15579TIP3   OH268227   1.118   5.407   2.384 -0.2021 -0.0230  0.5920
15579TIP3    H168228   1.069   5.451   2.315 -0.6540  1.4234  1.7923
15579TIP3    H268229   1.061   5.410   2.460  0.7209 -0.6139  1.3338
15580TIP3   OH268230   3.488   0.164   5.551 -0.4437 -0.3239 -0.2116
15580TIP3    H168231   3.429   0.099   5.589 -0.7689 -0.8627 -1.5647
15580TIP3    H268232   3.574   0.122   5.550 -0.1561  0.1991  1.1234
15581TIP3   OH268233   0.018   5.113  13.769  0.1694  0.8551 -0.0064
15581TIP3    H168234  -0.007   5.169  13.843 -0.1254 -0.3964  0.8860
15581TIP3    H268235   0.111   5.097  13.782 -0.3242 -1.3004  1.5475
15582TIP3   OH268236   5.600   0.578   0.677  0.6459 -0.3618  0.0719
15582TIP3    H168237   5.641   0.537   0.754  0.3176 -0.2472  0.3119
15582TIP3    H268238   5.569   0.663   0.709 -1.5175 -1.2262  0.4324
15583TIP3   OH268239   6.194   0.985  14.774 -0.0433 -0.3621  0.4973
15583TIP3    H168240   6.226   0.901  14.742 -1.1006 -1.1135  1.3728
15583TIP3    H268241   6.261   1.013  14.837  0.9666  0.1141 -0.7250
15584TIP3   OH268242   0.666   3.850   5.585  0.2300 -0.1350 -0.2086
15584TIP3    H168243   0.682   3.888   5.499 -1.0158  0.8322 -0.0607
15584TIP3    H268244   0.611   3.774   5.568 -1.7037  1.1696 -0.2052
15585TIP3   OH268245   1.248   1.277   4.548  0.5623 -0.1857 -0.6990
15585TIP3    H168246   1.216   1.355   4.503 -0.3952  0.5695  1.1458
15585TIP3    H268247   1.204   1.279   4.633  2.8410 -1.1029  0.5961
15586TIP3   OH268248   0.834   4.557  11.508  0.3598  0.2791  0.8434
15586TIP3    H168249   0.818   4.520  11.594 -1.2028  3.0937  1.9193
15586TIP3    H268250   0.760   4.528  11.455 -0.8877  1.7660  1.6905
15587TIP3   OH268251   4.136   1.204   1.346 -0.1747 -0.1407 -0.3605
15587TIP3    H168252   4.221   1.206   1.391 -0.0320 -1.4879 -0.5185
15587TIP3    H268253   4.074   1.177   1.414 -0.6416  1.6272 -0.0446
15588TIP3   OH268254   1.072   5.707   5.137 -0.2625 -0.5209  0.7216
15588TIP3    H168255   1.116   5.791   5.154 -0.4636 -0.2733  0.0538
15588TIP3    H268256   1.120   5.670   5.063 -0.1068 -1.0536  1.0842
15589TIP3   OH268257   1.586   6.564   2.444 -0.4866 -0.0372 -0.3200
15589TIP3    H168258   1.559   6.496   2.382 -1.3998 -1.5794  1.6500
15589TIP3    H268259   1.635   6.517   2.511  1.6442  1.7932 -0.4950
15590TIP3   OH268260   1.159   4.877   1.019 -0.1225 -0.1497 -0.6628
15590TIP3    H168261   1.093   4.808   1.031 -1.6902  1.3788 -0.1610
15590TIP3    H268262   1.175   4.911   1.107  1.6579 -0.7191 -0.7205
15591TIP3   OH268263   2.916   3.102  16.730 -0.1255  0.1105  0.4198
15591TIP3    H168264   3.005   3.119  16.698 -0.6124 -1.7052 -2.2679
15591TIP3    H268265   2.929   3.061  16.815  1.5552  0.8570  0.5724
15592TIP3   OH268266   3.710   2.487  12.044 -0.2868  0.4128 -0.6323
15592TIP3    H168267   3.772   2.517  11.978 -0.3595  0.0246 -0.8773
15592TIP3    H268268   3.624   2.498  12.004 -0.3738  0.7930 -0.3553
15593TIP3   OH268269   2.809   4.056  16.482  0.1934  0.6549  0.3470
15593TIP3    H168270   2.794   4.124  16.416  0.3263 -0.2358 -0.6353
15593TIP3    H268271   2.893   4.018  16.457  0.7000  0.9079  1.5966
15594TIP3   OH268272   4.099   3.831  16.397  0.2593  0.0419  0.5279
15594TIP3    H168273   4.017   3.782  16.411  0.9638 -1.2968  0.0700
15594TIP3    H268274   4.077   3.921  16.423 -0.8712 -0.6345  2.1067
15595TIP3   OH268275   3.346   4.193   4.509 -0.3018  0.0961 -0.3488
15595TIP3    H168276   3.421   4.250   4.493  1.4983 -2.0508 -0.2351
15595TIP3    H268277   3.270   4.250   4.507  1.3683  2.4459 -0.1866
15596TIP3   OH268278   0.654   4.209   2.454  0.1455  0.3349  0.2560
15596TIP3    H168279   0.623   4.176   2.539  1.2592  0.5156  0.7459
15596TIP3    H268280   0.688   4.131   2.410  1.6516  0.5868  0.9169
15597TIP3   OH268281   1.400   5.406  13.133  0.1078  0.1165 -0.8446
15597TIP3    H168282   1.463   5.363  13.190  0.0292  0.2745 -0.6375
15597TIP3    H268283   1.350   5.464  13.191 -0.1504  0.0777 -1.0239
15598TIP3   OH268284   3.497   2.781  13.656  0.3310 -0.0978  0.0186
15598TIP3    H168285   3.563   2.849  13.648  0.0159  0.2387  0.2483
15598TIP3    H268286   3.421   2.815  13.608 -0.0086 -0.0513  0.5821
15599TIP3   OH268287   6.111   5.492   2.725 -0.0472  0.3158  0.0330
15599TIP3    H168288   6.180   5.524   2.666 -0.8252  1.5134 -0.2802
15599TIP3    H268289   6.030   5.504   2.675 -0.6449  0.5727  1.0292
15600TIP3   OH268290   0.286   3.171  11.113  0.3804  0.1166 -0.4433
15600TIP3    H168291   0.244   3.249  11.148  0.6866 -0.6050  1.6757
15600TIP3    H268292   0.327   3.200  11.031 -0.2583  1.9421 -0.1573
15601TIP3   OH268293   3.751   4.365   2.981 -0.1357  0.6768  0.1559
15601TIP3    H168294   3.781   4.455   2.996  1.0944  0.7250 -2.1947
15601TIP3    H268295   3.802   4.313   3.043 -0.3938  1.4943  1.0950
15602TIP3   OH268296   3.080   2.962  14.553 -0.0399  0.1928 -0.1640
15602TIP3    H168297   3.046   3.021  14.486 -3.2036 -2.2032 -0.9386
15602TIP3    H268298   3.063   3.007  14.635 -0.4117  1.2324 -0.7905
15603TIP3   OH268299   2.123   4.165   5.090 -0.1417 -0.0073  0.7797
15603TIP3    H168300   2.166   4.251   5.084  0.6970 -0.3293  1.8389
15603TIP3    H268301   2.142   4.135   5.178 -0.1870 -1.4147  0.3360
15604TIP3   OH268302   6.232   4.708   4.191  0.5348 -0.3635 -0.0155
15604TIP3    H168303   6.175   4.686   4.264  0.1996  0.7063  0.0752
15604TIP3    H268304   6.196   4.790   4.157 -0.2167 -1.5588 -2.3142
15605TIP3   OH268305   4.048   2.880   3.265 -0.1473 -0.9837 -0.3652
15605TIP3    H168306   3.992   2.933   3.323 -2.9391 -2.4640 -1.5164
15605TIP3    H268307   4.137   2.903   3.291 -1.1013  3.7748 -0.3423
15606TIP3   OH268308   4.105   5.544   2.645  0.9911  0.4956 -0.1942
15606TIP3    H168309   4.081   5.468   2.592  1.0495  1.3440 -1.4591
15606TIP3    H268310   4.063   5.618   2.602  1.1586  1.2314  0.8729
15607TIP3   OH268311   6.659   5.131  15.140 -0.0251 -0.5061  0.1673
15607TIP3    H168312   6.573   5.160  15.173 -0.5260 -1.1723 -0.5101
15607TIP3    H268313   6.714   5.125  15.218 -0.4749  0.3191  0.5635
15608TIP3   OH268314   3.891   5.628  12.894 -0.3982  0.4800 -0.3668
15608TIP3    H168315   3.952   5.588  12.833 -0.7901 -0.8400  0.0889
15608TIP3    H268316   3.944   5.689  12.945  1.0044 -1.9423  1.2692
15609TIP3   OH268317   4.198   0.625   4.384  0.0652  0.0641  0.2603
15609TIP3    H168318   4.164   0.642   4.472  2.1260  0.3867  1.0531
15609TIP3    H268319   4.281   0.581   4.399  0.4281  0.0581 -1.5507
15610TIP3   OH268320   4.180   0.080   1.862  0.3844 -0.2172  0.5350
15610TIP3    H168321   4.230   0.035   1.794 -0.4016  0.3118 -0.4054
15610TIP3    H268322   4.103   0.025   1.876  0.0619  0.1653  0.2953
15611TIP3   OH268323   1.821   0.591   5.628  0.0379 -0.0559  0.0405
15611TIP3    H168324   1.761   0.540   5.573  0.0897 -0.0769  0.0038
15611TIP3    H268325   1.818   0.548   5.713 -1.2520  0.8944  0.5158
15612TIP3   OH268326   4.594   1.976  15.156  0.1893  0.2666  0.9953
15612TIP3    H168327   4.518   2.006  15.205  0.3924 -0.8498  2.0486
15612TIP3    H268328   4.665   2.034  15.185  0.1915 -0.0492  1.6591
15613TIP3   OH268329   0.402   0.478  17.237 -0.2654 -0.2066  0.6386
15613TIP3    H168330   0.468   0.449  17.175 -1.0082 -1.2850  0.3245
15613TIP3    H268331   0.433   0.563  17.267  0.1852  0.2806 -1.0969
15614TIP3   OH268332   0.584   3.315  12.841  0.1279 -0.0147  0.2569
15614TIP3    H168333   0.568   3.225  12.868  1.2083 -0.4111 -0.3915
15614TIP3    H268334   0.651   3.347  12.900 -0.8658  0.6731  1.0524
15615TIP3   OH268335   2.730   6.137  14.200 -0.8367 -0.3725 -0.0095
15615TIP3    H168336   2.802   6.168  14.145 -0.5667 -0.1140  0.4764
15615TIP3    H268337   2.730   6.042  14.189 -0.2721 -0.3957  0.1583
15616TIP3   OH268338   1.771   4.938  12.255 -0.1711 -0.7140 -0.1761
15616TIP3    H168339   1.709   4.968  12.189  0.2959  1.5415  0.3197
15616TIP3    H268340   1.847   4.909  12.205 -0.9698 -1.9710 -0.7144
15617TIP3   OH268341   4.411   4.981  13.637  0.4617  0.5088 -0.0935
15617TIP3    H168342   4.472   5.050  13.611  1.2154  0.3982  1.3320
15617TIP3    H268343   4.441   4.953  13.723 -0.6888 -0.6232 -0.0361
15618TIP3   OH268344   2.891   1.200   6.977 -0.0950  0.2000 -0.1556
15618TIP3    H168345   2.897   1.261   6.904  2.5292  1.3054  0.8533
15618TIP3    H268346   2.798   1.196   6.998 -0.8202  0.5766 -2.8909
15619TIP3   OH268347   0.304   5.988   0.827  0.1262  0.8930 -0.5066
15619TIP3    H168348   0.296   5.929   0.902  0.1582  1.7121  0.1580
15619TIP3    H268349   0.215   5.996   0.793  0.5291 -1.9708 -2.5644
15620TIP3   OH268350   3.086   0.345  14.880 -0.4998  0.1642 -0.2084
15620TIP3    H168351   3.011   0.303  14.836  1.3518 -2.5404 -1.0640
15620TIP3    H268352   3.068   0.332  14.973 -0.9782 -0.7163 -0.4044
15621TIP3   OH268353   0.004   1.683   6.653  0.3333 -0.0239  0.5916
15621TIP3    H168354   0.030   1.632   6.730  0.2448  0.0119  0.6457
15621TIP3    H268355  -0.066   1.631   6.613  0.7644 -0.3257  0.2137
15622TIP3   OH268356   3.087   1.778   2.292 -0.0549 -0.5241 -0.4267
15622TIP3    H168357   3.141   1.781   2.213 -1.1485  1.5514 -1.1686
15622TIP3    H268358   3.004   1.739   2.264 -0.1606 -0.5442 -0.0984
15623TIP3   OH268359   4.490   4.143  16.748 -0.0770 -0.2247 -0.1533
15623TIP3    H168360   4.439   4.183  16.678  1.1938  1.4088 -0.1998
15623TIP3    H268361   4.577   4.128  16.710  1.1516  2.1894  1.4195
15624TIP3   OH268362   0.976   1.499  15.049  0.1785 -0.0814  0.6230
15624TIP3    H168363   1.019   1.414  15.054 -0.3075 -0.3627  0.2288
15624TIP3    H268364   0.947   1.517  15.138 -0.9898 -1.0314  0.4709
15625TIP3   OH268365   4.412   2.631  13.273  0.4644  0.4605  0.3074
15625TIP3    H168366   4.502   2.664  13.276 -0.0092  2.4381 -3.0847
15625TIP3    H268367   4.418   2.549  13.224  0.4547  0.4268  0.3625
15626TIP3   OH268368   6.794   4.324   6.062  0.3428 -0.3025  0.2900
15626TIP3    H168369   6.839   4.390   6.010  0.6452 -1.7719 -1.4416
15626TIP3    H268370   6.701   4.348   6.057  0.3985 -0.2315 -0.7115
15627TIP3   OH268371   4.333   0.967   6.059  0.1483 -0.3958 -0.2506
15627TIP3    H168372   4.244   1.000   6.046  0.2242 -0.1997 -0.2854
15627TIP3    H268373   4.370   1.026   6.125 -0.1482 -1.2227  0.6864
15628TIP3   OH268374   6.178   4.083  10.650 -0.5831  0.2518 -0.0642
15628TIP3    H168375   6.261   4.041  10.672 -1.2476  0.8634  4.6484
15628TIP3    H268376   6.131   4.017  10.599  1.3845 -1.5628  0.3334
15629TIP3   OH268377   0.186   5.177   3.414  0.1288 -0.1812  0.2606
15629TIP3    H168378   0.117   5.209   3.472  1.4081  1.0602  1.1620
15629TIP3    H268379   0.142   5.114   3.357 -1.5861  0.0464  1.2651
15630TIP3   OH268380   6.144   0.072   4.505 -0.3110 -0.3814 -0.3506
15630TIP3    H168381   6.144   0.118   4.589  0.7627  1.3480 -1.2382
15630TIP3    H268382   6.052   0.059   4.485 -0.5973 -1.5781  1.4363
15631TIP3   OH268383   4.676   2.240  13.305  0.0387 -0.1355 -0.1076
15631TIP3    H168384   4.679   2.153  13.266  0.8361  0.8763 -2.4781
15631TIP3    H268385   4.607   2.286  13.257  1.1198  1.1847 -0.4779
15632TIP3   OH268386   0.843   4.280   2.746 -0.4110  0.0515 -0.6857
15632TIP3    H168387   0.773   4.343   2.766  0.1207  0.7729 -1.0679
15632TIP3    H268388   0.905   4.329   2.692 -0.7839 -1.2523 -2.3819
15633TIP3   OH268389   1.500   5.584   5.882 -0.2050 -0.3924 -0.0743
15633TIP3    H168390   1.519   5.563   5.974 -0.0722  0.3068  0.0591
15633TIP3    H268391   1.584   5.572   5.837  0.0767  0.6789  0.1540
15634TIP3   OH268392   6.455   3.459   2.694 -0.3784 -0.1024  0.1955
15634TIP3    H168393   6.454   3.511   2.614  1.5442  0.4362  0.4592
15634TIP3    H268394   6.395   3.386   2.677 -0.1513  0.0964 -1.6587
15635TIP3   OH268395   4.818   4.712   3.075  0.0724 -0.2918 -0.0451
15635TIP3    H168396   4.897   4.767   3.073 -0.5870  0.9890  3.1098
15635TIP3    H268397   4.850   4.624   3.059  1.5551  0.5888 -2.5993
15636TIP3   OH268398   5.170   6.810  16.420 -0.5618  0.1122  1.3616
15636TIP3    H168399   5.190   6.903  16.422 -0.4798  0.2265 -1.3217
15636TIP3    H268400   5.249   6.769  16.384 -0.8399 -0.9349  1.8891
15637TIP3   OH268401   4.489   4.742   5.564  0.0685 -0.8780 -0.1745
15637TIP3    H168402   4.432   4.723   5.489  0.8411 -1.2392 -0.6878
15637TIP3    H268403   4.576   4.715   5.534  0.7757  1.0183  0.0508
15638TIP3   OH268404   4.543   2.632  15.999  0.0264 -0.0899  0.4591
15638TIP3    H168405   4.475   2.685  16.042  0.1065 -0.1445  0.6564
15638TIP3    H268406   4.497   2.585  15.930 -0.1562 -0.2053  0.6600
15639TIP3   OH268407   3.516   0.923  13.156 -0.1242 -0.7439  0.0601
15639TIP3    H168408   3.440   0.864  13.158 -0.5090 -0.2697 -0.4160
15639TIP3    H268409   3.541   0.933  13.247 -2.2500  1.1602  0.5131
15640TIP3   OH268410   3.658   6.281  16.215  0.1729 -0.4624 -0.1387
15640TIP3    H168411   3.666   6.215  16.283  0.0952 -1.3581 -0.9864
15640TIP3    H268412   3.708   6.246  16.141 -2.1049 -0.8812 -1.5590
15641TIP3   OH268413   5.375   1.783   1.128  0.3131  0.6996 -0.1249
15641TIP3    H168414   5.291   1.830   1.132 -1.0979 -1.6373 -0.7076
15641TIP3    H268415   5.376   1.730   1.208  0.8995  0.1855 -0.4675
15642TIP3   OH268416   5.730   3.272  13.913  0.3311 -0.0741  1.0586
15642TIP3    H168417   5.643   3.303  13.888  0.4258  0.8656  1.8379
15642TIP3    H268418   5.717   3.181  13.938 -0.9563  0.6977  3.5900
15643TIP3   OH268419   0.237   4.583   3.981  0.0495 -0.6715 -0.5325
15643TIP3    H168420   0.219   4.504   4.032  0.7624 -1.5007 -1.5043
15643TIP3    H268421   0.331   4.581   3.965 -0.1455 -0.4685 -1.8771
15644TIP3   OH268422   2.538   5.572   1.038  0.0321  0.2042  0.2559
15644TIP3    H168423   2.509   5.513   0.968 -0.0137 -0.3036  0.7048
15644TIP3    H268424   2.494   5.655   1.018 -0.6047 -0.1579  0.1256
15645TIP3   OH268425   5.246   0.250   5.626 -0.9445 -0.0350 -0.9323
15645TIP3    H168426   5.207   0.300   5.554  1.6017  1.2534 -1.5214
15645TIP3    H268427   5.241   0.309   5.701  1.2098  0.8128 -1.3993
15646TIP3   OH268428   3.656   6.376  14.692 -0.4859 -0.2622  0.4105
15646TIP3    H168429   3.597   6.413  14.758  1.3010  2.2158  0.7508
15646TIP3    H268430   3.686   6.293  14.730  0.8155  1.2642  3.0376
15647TIP3   OH268431   0.932   4.668  17.246  0.8029 -0.4140  0.1675
15647TIP3    H168432   0.843   4.698  17.264  0.5745 -2.5283  3.3654
15647TIP3    H268433   0.921   4.585  17.201  1.2551  0.1513 -1.0297
15648TIP3   OH268434   0.540   4.963   3.566 -0.1276 -0.0389  0.4001
15648TIP3    H168435   0.595   4.885   3.574  0.3039  0.3504  1.4645
15648TIP3    H268436   0.601   5.036   3.574 -0.7470  0.4035  1.2489
15649TIP3   OH268437   0.288   1.028   1.605 -0.5612  0.3701 -0.0566
15649TIP3    H168438   0.334   0.972   1.543 -4.1038 -0.5800 -2.1055
15649TIP3    H268439   0.307   0.990   1.690  2.4813  0.2036 -0.7049
15650TIP3   OH268440   5.082   3.848  11.619 -0.5714 -0.3591 -0.0875
15650TIP3    H168441   5.016   3.788  11.654 -2.0552  1.3894  0.2835
15650TIP3    H268442   5.087   3.827  11.526 -0.8488 -1.2425  0.0913
15651TIP3   OH268443   3.669   0.235  16.740 -0.2925  0.0871 -0.6747
15651TIP3    H168444   3.719   0.312  16.712 -1.1309  0.3149 -1.6240
15651TIP3    H268445   3.734   0.166  16.751  0.3394  0.6269 -0.9564
15652TIP3   OH268446   1.868   1.708  15.792  0.3079  0.4718  0.4360
15652TIP3    H168447   1.899   1.630  15.746  0.6148  0.5855  0.4452
15652TIP3    H268448   1.947   1.745  15.832  0.1108  0.6069  0.7013
15653TIP3   OH268449   6.670   3.227   1.562  0.2689 -0.2757  0.2854
15653TIP3    H168450   6.591   3.179   1.537  0.1739  0.0694 -0.0948
15653TIP3    H268451   6.637   3.305   1.606  0.2180  1.5418 -2.6896
15654TIP3   OH268452   5.025   4.114  13.151 -0.0404  0.2943 -0.3382
15654TIP3    H168453   4.933   4.122  13.127  0.1308  0.2183 -1.0511
15654TIP3    H268454   5.024   4.074  13.238 -0.7000  1.2993  0.1383
15655TIP3   OH268455   0.663   4.196  14.454 -0.6568 -0.3701 -0.5895
15655TIP3    H168456   0.643   4.256  14.383 -0.0383  0.2290 -0.2715
15655TIP3    H268457   0.671   4.251  14.532  3.5794 -0.2317 -0.8796
15656TIP3   OH268458   4.222   3.513   2.841  0.2545 -0.1990 -0.4974
15656TIP3    H168459   4.201   3.424   2.812 -2.2149 -0.0242  0.5669
15656TIP3    H268460   4.184   3.520   2.928 -0.5411  2.2394 -0.9654
15657TIP3   OH268461   1.210   0.049  13.995 -0.0989 -0.2225  0.0136
15657TIP3    H168462   1.213   0.143  14.013  0.7720 -0.3955  0.8247
15657TIP3    H268463   1.176   0.043  13.905  0.6496  0.8986 -0.3604
15658TIP3   OH268464   1.526   4.860   4.683  0.6486 -0.6206 -0.0878
15658TIP3    H168465   1.528   4.788   4.621 -0.0899 -0.6709 -0.0623
15658TIP3    H268466   1.495   4.820   4.765  2.5045 -0.7557  0.5999
15659TIP3   OH268467   3.489   2.795  13.935  0.4868 -0.6141  0.8020
15659TIP3    H168468   3.511   2.808  13.842 -0.3401  0.7413  0.7634
15659TIP3    H268469   3.395   2.777  13.935  0.5668 -1.0238  1.3459
15660TIP3   OH268470   0.545   4.035  15.988 -0.1082 -0.3022 -0.5649
15660TIP3    H168471   0.590   4.095  16.048  0.8552 -0.8588 -0.6995
15660TIP3    H268472   0.595   3.954  15.994  0.1325 -0.3263 -2.2360
15661TIP3   OH268473   6.525   1.940  15.761 -0.1053  0.6048 -0.8534
15661TIP3    H168474   6.447   1.968  15.809  0.2844  1.5673 -0.7579
15661TIP3    H268475   6.520   1.844  15.761  0.3631  0.5046  1.9068
15662TIP3   OH268476   1.874   0.258  16.060  0.7661 -0.4640 -0.5680
15662TIP3    H168477   1.932   0.230  16.131  1.2447 -0.5350 -0.9817
15662TIP3    H268478   1.801   0.300  16.105  1.4525  0.2160 -0.0505
15663TIP3   OH268479   0.803   2.404   5.748 -0.3702 -0.3329  0.7516
15663TIP3    H168480   0.722   2.452   5.729 -0.0663 -0.4793 -1.0369
15663TIP3    H268481   0.850   2.461   5.809 -1.2658  0.3234  0.8599
15664TIP3   OH268482   5.427   1.321  12.071  0.3221  0.2964 -0.4732
15664TIP3    H168483   5.486   1.254  12.105  0.8668 -0.3673 -2.6240
15664TIP3    H268484   5.352   1.320  12.131  2.8199  1.9097  3.0143
15665TIP3   OH268485   6.299   3.112  14.768  0.3289  0.0978 -0.0142
15665TIP3    H168486   6.305   3.016  14.769 -2.1905 -0.1396 -0.8275
15665TIP3    H268487   6.327   3.137  14.680 -1.6784 -0.2027 -0.7898
15666TIP3   OH268488   0.922   5.830  13.247  0.2233  0.2849 -0.4843
15666TIP3    H168489   0.830   5.842  13.270  0.1659 -0.5466 -0.2627
15666TIP3    H268490   0.964   5.806  13.330  0.3255 -1.0455 -0.9108
15667TIP3   OH268491   4.900   1.004  16.223  0.4879  0.1528 -0.0047
15667TIP3    H168492   4.981   1.010  16.272  1.1481  2.3785 -1.2256
15667TIP3    H268493   4.924   1.027  16.133 -1.7856  3.3821  0.0197
15668TIP3   OH268494   5.432   1.713  17.004 -0.3949  0.3346 -0.2700
15668TIP3    H168495   5.346   1.701  17.046 -0.4726 -1.8231 -0.9216
15668TIP3    H268496   5.412   1.760  16.923 -0.5805  2.1779  0.7942
15669TIP3   OH268497   5.612   4.580  17.079  0.8451  0.3427  0.3862
15669TIP3    H168498   5.683   4.562  17.140 -0.4666 -1.2517  1.5354
15669TIP3    H268499   5.602   4.498  17.029  0.0220  0.6439  0.0406
15670TIP3   OH268500   3.771   2.439   0.835  0.1208  0.2493 -1.1438
15670TIP3    H168501   3.865   2.454   0.838  0.7087 -2.7213  2.7016
15670TIP3    H268502   3.732   2.525   0.853  2.3394  0.8302  1.4196
15671TIP3   OH268503   3.518   4.456   4.838  0.2741 -0.2257 -0.7233
15671TIP3    H168504   3.434   4.500   4.824 -0.9389 -1.8164  1.1225
15671TIP3    H268505   3.558   4.503   4.912 -0.4971 -1.4232  0.4930
15672TIP3   OH268506   0.850   6.007   2.990  0.3731 -0.0391  0.1961
15672TIP3    H168507   0.908   6.024   2.916 -0.0832  2.0584  0.2403
15672TIP3    H268508   0.875   5.920   3.021  1.2104 -0.5764 -1.8168
15673TIP3   OH268509   0.620   6.197   2.300 -0.2183  0.3198  0.3103
15673TIP3    H168510   0.658   6.261   2.361  0.0166  0.6737 -0.2029
15673TIP3    H268511   0.694   6.143   2.273 -0.4079 -0.1419  0.7038
15674TIP3   OH268512   4.952   6.365   1.250 -0.4343  0.9209  0.0712
15674TIP3    H168513   5.004   6.378   1.171 -0.2812  2.4750  0.4072
15674TIP3    H268514   4.947   6.269   1.260  0.2267  0.7191 -1.3450
15675TIP3   OH268515   3.280   6.410  11.701 -0.3147  0.8117  0.2615
15675TIP3    H168516   3.367   6.449  11.713 -0.5741  0.9007  2.0495
15675TIP3    H268517   3.222   6.464  11.754 -1.4387  0.6044 -0.7354
15676TIP3   OH268518   3.760   4.712  12.369  0.0016  0.2139 -0.4841
15676TIP3    H168519   3.738   4.746  12.282  0.1214  2.2333  0.2130
15676TIP3    H268520   3.684   4.735  12.423 -0.8237 -2.4825 -0.3196
15677TIP3   OH268521   5.292   3.109  16.110  0.3981  0.1402  0.3783
15677TIP3    H168522   5.250   3.155  16.183  0.0773  2.2858 -1.1006
15677TIP3    H268523   5.220   3.062  16.067  0.2629  0.3989  0.3235
15678TIP3   OH268524   3.398   3.132  12.313 -0.7055  0.5016  0.3666
15678TIP3    H168525   3.344   3.183  12.373 -0.0709  1.5507  0.0754
15678TIP3    H268526   3.440   3.198  12.257 -1.9382 -0.4635 -1.8262
15679TIP3   OH268527   0.381   5.549  15.098  0.3522  0.5529 -0.0009
15679TIP3    H168528   0.465   5.544  15.052 -0.7262 -1.1875 -1.9281
15679TIP3    H268529   0.353   5.640  15.087  0.3680  0.3103 -2.4343
15680TIP3   OH268530   1.635   4.550   4.313 -0.2714 -0.2373 -0.2345
15680TIP3    H168531   1.551   4.578   4.350 -0.1750 -0.3639  0.0869
15680TIP3    H268532   1.646   4.603   4.234 -0.7688 -0.3953 -0.4098
15681TIP3   OH268533   6.638   6.405   4.343 -0.0285  0.0234  0.2101
15681TIP3    H168534   6.640   6.314   4.373 -0.0353 -0.0848 -0.1170
15681TIP3    H268535   6.712   6.446   4.387 -0.4778  0.0515  0.9584
15682TIP3   OH268536   4.708   1.374   0.556 -0.4164 -0.2083 -0.0817
15682TIP3    H168537   4.761   1.318   0.500 -0.3006 -1.0371  0.8319
15682TIP3    H268538   4.692   1.453   0.504 -1.1734 -1.3525 -1.6651
15683TIP3   OH268539   4.459   5.527   2.486 -0.0985 -0.3606 -0.4878
15683TIP3    H168540   4.413   5.480   2.417  1.4391  0.1216 -1.8857
15683TIP3    H268541   4.502   5.459   2.537 -1.5231 -0.7443  0.2744
15684TIP3   OH268542   6.207   4.125   0.429  0.1078 -0.2801 -0.1601
15684TIP3    H168543   6.123   4.087   0.404  1.4397 -1.7286 -2.8290
15684TIP3    H268544   6.219   4.199   0.370 -0.0171  1.0561  1.4050
15685TIP3   OH268545   6.635   5.879  12.560  0.1604 -0.6348  0.7673
15685TIP3    H168546   6.657   5.855  12.471 -0.4437 -0.6225  0.6080
15685TIP3    H268547   6.646   5.974  12.563 -1.5274 -0.3769  0.1785
15686TIP3   OH268548   1.956   1.142   3.112  0.0214  0.0397  0.4924
15686TIP3    H168549   1.983   1.107   3.197  1.3693  2.2576  1.0611
15686TIP3    H268550   1.879   1.195   3.131  1.7352  2.5896  0.9199
15687TIP3   OH268551   5.388   2.187  11.884 -0.1616 -0.0489  0.1691
15687TIP3    H168552   5.405   2.274  11.848  2.1403 -0.5046 -0.0406
15687TIP3    H268553   5.293   2.178  11.884 -0.3816  1.3656 -2.5054
15688TIP3   OH268554   0.261   3.331  12.959  0.3877 -0.0853  0.1025
15688TIP3    H168555   0.166   3.317  12.955  0.6381 -1.9239 -0.7128
15688TIP3    H268556   0.281   3.380  12.880 -0.3097  4.0093  2.2192
15689TIP3   OH268557   2.511   1.161  13.839  0.4417 -0.0209  0.2534
15689TIP3    H168558   2.447   1.193  13.902  0.9376  0.7207  0.3874
15689TIP3    H268559   2.595   1.174  13.882  0.7583  0.1228 -0.4021
15690TIP3   OH268560   5.487   5.849   3.303 -0.0655 -0.0223 -0.3171
15690TIP3    H168561   5.489   5.890   3.217  1.7678  0.0911 -0.2476
15690TIP3    H268562   5.462   5.921   3.362 -0.6887  0.0456 -0.6453
15691TIP3   OH268563   1.242   4.631   0.783 -0.0754  0.5872 -0.2987
15691TIP3    H168564   1.148   4.615   0.781 -0.3527  1.8574  1.2582
15691TIP3    H268565   1.281   4.544   0.792 -0.9443 -0.1615 -2.8524
15692TIP3   OH268566   3.720   5.109  12.494 -0.1097  0.6544 -1.0811
15692TIP3    H168567   3.779   5.047  12.536 -1.6066 -0.9709 -1.3109
15692TIP3    H268568   3.636   5.097  12.537 -0.7165  1.7118 -1.9047
15693TIP3   OH268569   5.864   6.807   4.138  0.0681  0.1678  0.1558
15693TIP3    H168570   5.882   6.718   4.107  2.8056 -0.0592  2.0680
15693TIP3    H268571   5.891   6.863   4.065 -0.9280 -0.5035 -0.7660
15694TIP3   OH268572   4.723   1.256   4.728  0.1333  0.0080 -0.3076
15694TIP3    H168573   4.791   1.323   4.729  1.9290 -1.7119 -0.8140
15694TIP3    H268574   4.681   1.266   4.643 -0.9211  1.6533  0.3534
15695TIP3   OH268575   2.908   4.443   3.125  0.3181  0.1092  0.1689
15695TIP3    H168576   2.902   4.478   3.214  1.1723  0.6205  0.0498
15695TIP3    H268577   2.967   4.505   3.080  0.7368 -0.7186 -0.4500
15696TIP3   OH268578   4.407   1.015   3.915  0.0814  0.7846  0.4541
15696TIP3    H168579   4.330   1.070   3.929 -0.6273  0.0450 -0.3612
15696TIP3    H268580   4.413   1.005   3.820  1.4955  1.2363  0.4781
15697TIP3   OH268581   1.069   3.794  11.095 -0.0575  0.0478 -0.2807
15697TIP3    H168582   1.000   3.779  11.030 -0.2964 -0.2259  0.0340
15697TIP3    H268583   1.038   3.868  11.147 -0.8861 -1.0775  0.8904
15698TIP3   OH268584   5.041   2.984  11.202 -0.2789  0.4865  0.2006
15698TIP3    H168585   5.001   3.015  11.283 -1.4687 -0.2285 -0.0900
15698TIP3    H268586   4.978   2.920  11.167  0.9806 -0.4422 -0.4405
15699TIP3   OH268587   3.082   3.162   5.205  0.1737 -0.0999 -0.1116
15699TIP3    H168588   3.047   3.250   5.219  0.2943 -0.0374 -0.2048
15699TIP3    H268589   3.177   3.174   5.203  0.2650 -0.4082  1.1840
15700TIP3   OH268590   3.513   5.066   3.296 -0.6543 -0.7590  0.1516
15700TIP3    H168591   3.461   5.029   3.224 -0.5191  0.0175 -0.3631
15700TIP3    H268592   3.451   5.075   3.368 -1.8889  2.2224 -1.1091
15701TIP3   OH268593   6.759   1.246   1.680 -0.2692 -0.2013  0.0928
15701TIP3    H168594   6.721   1.279   1.599  0.5615 -0.5861 -0.4616
15701TIP3    H268595   6.782   1.155   1.661 -0.4691 -0.4290  0.9021
15702TIP3   OH268596   1.815   3.806   2.177  0.1905  0.2310  0.5419
15702TIP3    H168597   1.867   3.736   2.137  1.5219  0.0890  2.3941
15702TIP3    H268598   1.764   3.843   2.105 -0.0757 -2.2069 -0.6180
15703TIP3   OH268599   1.226   3.009  16.442  0.3673  0.1406 -0.4296
15703TIP3    H168600   1.218   2.969  16.356 -2.4012 -1.2907  0.3713
15703TIP3    H268601   1.147   3.063  16.450  0.4016 -0.0260  1.3232
15704TIP3   OH268602   0.191   1.142  17.189  0.3781  0.2371  0.3199
15704TIP3    H168603   0.255   1.198  17.146 -1.1943  1.9119  0.0425
15704TIP3    H268604   0.142   1.100  17.118  0.2236  0.0836  0.5125
15705TIP3   OH268605   6.709   0.308  11.282 -0.2368 -0.1799 -0.3244
15705TIP3    H168606   6.676   0.398  11.280 -2.5452 -0.9695 -0.9839
15705TIP3    H268607   6.791   0.313  11.331 -0.4393  2.2323 -0.1396
15706TIP3   OH268608   4.755   4.187  13.072  0.4668 -1.1773 -0.3255
15706TIP3    H168609   4.659   4.191  13.068  0.3816  1.1009  1.9683
15706TIP3    H268610   4.784   4.267  13.028  1.2352 -1.0767  0.3450
15707TIP3   OH268611   3.730   6.542  12.542  0.1013 -0.3755  0.2297
15707TIP3    H168612   3.663   6.563  12.606 -2.0309 -0.6620 -1.7705
15707TIP3    H268613   3.745   6.624  12.495 -0.3500 -0.7754 -0.6285
15708TIP3   OH268614   4.196   0.395  13.367 -0.0012 -0.3419  0.0339
15708TIP3    H168615   4.221   0.467  13.310  1.3048 -1.3151 -0.6870
15708TIP3    H268616   4.251   0.406  13.445 -0.9126  0.2942  0.6079
15709TIP3   OH268617   4.855   3.238   3.792  0.4020 -0.8165 -1.2890
15709TIP3    H168618   4.885   3.327   3.813  0.2606 -0.6858 -1.6373
15709TIP3    H268619   4.817   3.246   3.705 -2.7315 -0.4560 -0.0213
15710TIP3   OH268620   6.546   2.113  11.462 -0.5642 -0.2216 -0.2813
15710TIP3    H168621   6.516   2.133  11.551 -1.8348  3.4461 -1.3430
15710TIP3    H268622   6.467   2.083  11.417 -0.9659  1.8390 -1.0854
15711TIP3   OH268623   4.980   0.526   4.705 -0.2664 -0.7119 -0.0881
15711TIP3    H168624   4.976   0.567   4.619  0.9846 -1.0811 -0.3464
15711TIP3    H268625   4.898   0.476   4.712  0.2088 -1.7623 -1.6344
15712TIP3   OH268626   6.275   2.565   0.578  0.5504 -0.0181  0.5401
15712TIP3    H168627   6.315   2.594   0.496  0.6255  1.2960  1.0311
15712TIP3    H268628   6.342   2.578   0.644  0.8841 -2.1215  0.6725
15713TIP3   OH268629   5.207   3.252  13.750 -0.2137 -0.3946 -0.3318
15713TIP3    H168630   5.248   3.224  13.832  0.0056  2.1052  0.4838
15713TIP3    H268631   5.113   3.251  13.769 -0.1171  1.3849  0.4314
15714TIP3   OH268632   1.764   4.940  14.983 -0.4325  0.2086  0.3692
15714TIP3    H168633   1.684   4.980  14.951 -1.8735 -2.0024  0.9750
15714TIP3    H268634   1.742   4.910  15.072  0.4990 -1.8395 -0.0194
15715TIP3   OH268635   1.744   6.620   4.844  0.3103 -0.2853  0.1234
15715TIP3    H168636   1.751   6.541   4.898  1.7291 -0.2344  0.0477
15715TIP3    H268637   1.747   6.692   4.907 -1.0331 -0.2615  0.1969
15716TIP3   OH268638   5.203   4.282   0.029 -0.0745  0.4200  0.0129
15716TIP3    H168639   5.280   4.317  -0.014 -0.0742  0.4911  0.0715
15716TIP3    H268640   5.130   4.303  -0.030 -0.2131  1.3966  0.5085
15717TIP3   OH268641   6.563   2.831  13.973 -0.6910 -0.5134  0.8246
15717TIP3    H168642   6.600   2.906  14.019  1.0531 -1.2476  0.7109
15717TIP3    H268643   6.620   2.758  13.996  1.8452 -0.5599 -4.2282
15718TIP3   OH268644   4.136   2.207  14.812  0.3815  0.3122 -0.4403
15718TIP3    H168645   4.124   2.114  14.796  1.5313  0.1337 -0.3818
15718TIP3    H268646   4.141   2.246  14.725 -0.2348  0.3424 -0.4639
15719TIP3   OH268647   6.290   4.540   5.468 -0.1440 -0.1745 -0.1484
15719TIP3    H168648   6.267   4.529   5.375  1.2910 -0.7035 -0.4617
15719TIP3    H268649   6.206   4.539   5.513 -0.8657 -0.0263 -1.4317
15720TIP3   OH268650   0.536   5.764   1.659 -0.0136 -0.8569 -0.0613
15720TIP3    H168651   0.452   5.736   1.622  0.7713 -0.7044 -2.1056
15720TIP3    H268652   0.597   5.695   1.633  0.7467 -0.3125  0.2691
15721TIP3   OH268653   3.566   3.888  16.696 -0.1626 -0.2071 -0.1037
15721TIP3    H168654   3.628   3.958  16.677  0.1792 -0.5401 -0.2317
15721TIP3    H268655   3.577   3.825  16.625  0.7787 -1.2241  0.9109
15722TIP3   OH268656   3.504   1.151   4.782  0.0128 -0.6774  0.0206
15722TIP3    H168657   3.510   1.062   4.818  0.9595  0.1787  2.1240
15722TIP3    H268658   3.417   1.181   4.806  0.8216  0.0793  2.2167
15723TIP3   OH268659   3.905   5.617  15.823  0.1572 -0.0091  0.0235
15723TIP3    H168660   3.882   5.528  15.851  0.1608  0.1167  0.4369
15723TIP3    H268661   3.932   5.607  15.732 -0.9665 -0.2521 -0.2991
15724TIP3   OH268662   5.566   6.715   2.423 -0.3067  0.6324  0.1131
15724TIP3    H168663   5.625   6.640   2.431 -1.8020 -0.8845 -2.1183
15724TIP3    H268664   5.494   6.695   2.484 -0.3870  0.5853  0.0024
15725TIP3   OH268665   3.791   0.862   0.198  0.0625 -0.3563 -0.5904
15725TIP3    H168666   3.735   0.858   0.276  0.5942 -1.4476 -0.2472
15725TIP3    H268667   3.808   0.955   0.186 -2.1127  0.0602 -0.9290
15726TIP3   OH268668   2.796   3.360   3.748  0.2860 -0.4199 -0.1898
15726TIP3    H168669   2.794   3.421   3.674  0.5186 -0.5781 -0.3272
15726TIP3    H268670   2.782   3.274   3.709  0.5967 -0.5239 -0.0709
15727TIP3   OH268671   4.939   2.232  11.191 -0.3901 -0.4338  0.4464
15727TIP3    H168672   4.933   2.316  11.235  0.2696 -0.0692 -0.1388
15727TIP3    H268673   5.030   2.226  11.163 -0.7328 -0.7656 -0.6418
15728TIP3   OH268674   1.101   2.045   1.722  0.1294 -0.1094  0.1121
15728TIP3    H168675   1.139   2.026   1.636  0.6217  0.1776  0.2624
15728TIP3    H268676   1.161   2.109   1.761 -1.0236  1.1340 -0.0487
15729TIP3   OH268677   0.510   6.607  15.423  0.1650  0.1381 -0.5464
15729TIP3    H168678   0.519   6.677  15.359 -1.5047  1.1452  0.2562
15729TIP3    H268679   0.497   6.651  15.507 -0.1437 -1.1265  0.1113
15730TIP3   OH268680   1.030   0.624   0.250 -0.4323 -0.5117 -0.0496
15730TIP3    H168681   0.969   0.636   0.323 -0.4752 -0.7873 -0.0367
15730TIP3    H268682   1.115   0.654   0.284 -0.3651 -1.0387  0.2596
15731TIP3   OH268683   1.638   1.722  15.647 -0.2348 -0.4542  0.1556
15731TIP3    H168684   1.564   1.767  15.687  0.0071 -0.0896  0.1909
15731TIP3    H268685   1.706   1.722  15.715 -0.6236 -1.9125  0.5958
15732TIP3   OH268686   4.744   6.430   5.218  0.4373 -0.9228  0.3547
15732TIP3    H168687   4.819   6.376   5.243 -0.6288 -2.9376 -0.5693
15732TIP3    H268688   4.720   6.398   5.131 -0.5822  0.7366 -0.0183
15733TIP3   OH268689   5.394   3.864  12.809 -0.4048  0.2107  0.5043
15733TIP3    H168690   5.363   3.802  12.744  0.4539  1.9519 -1.6782
15733TIP3    H268691   5.434   3.810  12.877  1.1613 -1.6431 -1.7640
15734TIP3   OH268692   0.394   6.483  13.695 -0.1571  0.2946 -0.5813
15734TIP3    H168693   0.434   6.404  13.732 -2.3257  0.5709  2.8451
15734TIP3    H268694   0.423   6.554  13.753 -0.7624  1.4849 -1.6824
15735TIP3   OH268695   6.772   5.852  14.133  0.3997 -0.2735  0.2209
15735TIP3    H168696   6.755   5.759  14.123  0.3390 -0.3870  1.2684
15735TIP3    H268697   6.703   5.895  14.083 -1.0929 -0.7759  1.7389
15736TIP3   OH268698   4.126   1.496   4.051  0.0540  0.3087 -0.0774
15736TIP3    H168699   4.073   1.561   4.098 -0.3486 -0.3521  0.3929
15736TIP3    H268700   4.160   1.544   3.976 -1.5732  0.6543 -0.6497
15737TIP3   OH268701   5.472   0.677  13.840 -0.7398 -0.3645 -0.1437
15737TIP3    H168702   5.454   0.595  13.793 -0.6446 -0.2909 -0.3109
15737TIP3    H268703   5.427   0.744  13.789  0.7523 -0.0427 -1.1074
15738TIP3   OH268704   2.923   3.768   5.337 -0.1337 -0.2443  0.0511
15738TIP3    H168705   2.952   3.768   5.429 -0.0727  2.1710  0.1000
15738TIP3    H268706   2.828   3.760   5.342 -0.2500  1.0654  0.4390
15739TIP3   OH268707   4.461   5.266  12.871  0.1095  0.1835  0.0323
15739TIP3    H168708   4.477   5.331  12.802  0.1413  0.4396  0.2772
15739TIP3    H268709   4.373   5.233  12.852  0.6479 -0.7557 -0.9359
15740TIP3   OH268710   0.801   0.823   3.007  0.2599 -0.0445  0.6474
15740TIP3    H168711   0.714   0.812   3.044 -0.5106 -0.5458 -1.1966
15740TIP3    H268712   0.854   0.756   3.050 -0.4553 -0.2565  1.2119
15741TIP3   OH268713   4.280   4.192   1.706  0.6449  0.0011 -0.2107
15741TIP3    H168714   4.279   4.278   1.663 -1.4162  1.0138  1.6578
15741TIP3    H268715   4.220   4.138   1.655 -0.9546  0.8694  0.6664
15742TIP3   OH268716   1.512   4.624  13.477  0.4397  0.3296 -0.0215
15742TIP3    H168717   1.527   4.717  13.466  1.1838  0.2129 -0.0481
15742TIP3    H268718   1.557   4.601  13.559  1.6228 -0.2853 -0.8067
15743TIP3   OH268719   1.209   6.056   2.303 -0.3120 -0.2399 -0.4608
15743TIP3    H168720   1.148   6.095   2.239 -0.8790 -1.2486 -0.5599
15743TIP3    H268721   1.181   6.091   2.387  0.0587  0.6293 -0.6902
15744TIP3   OH268722   0.862   3.305   1.845 -0.4765  0.1252  0.5696
15744TIP3    H168723   0.902   3.379   1.799 -0.0435  0.7403  1.8745
15744TIP3    H268724   0.810   3.346   1.914 -2.4904 -0.7052 -0.3780
15745TIP3   OH268725   6.362   0.602   5.828  0.1704 -0.1354  0.3135
15745TIP3    H168726   6.340   0.565   5.914  1.1840 -1.7602 -0.0748
15745TIP3    H268727   6.452   0.632   5.837  0.5741 -1.0944 -0.4000
15746TIP3   OH268728   6.411   1.248   2.483 -0.4310  0.0813 -0.6578
15746TIP3    H168729   6.500   1.225   2.509 -0.3730  2.2540  1.4570
15746TIP3    H268730   6.409   1.233   2.388  1.7554 -1.2354 -0.5640
15747TIP3   OH268731   0.849   3.901   0.211 -0.5590 -0.0989 -0.0943
15747TIP3    H168732   0.775   3.962   0.218 -1.1949 -0.8670 -0.0527
15747TIP3    H268733   0.843   3.846   0.289 -2.0641 -2.4666 -1.7302
15748TIP3   OH268734   1.225   4.846   3.291 -0.0247  0.0703  0.6875
15748TIP3    H168735   1.264   4.762   3.265 -0.6025 -0.3771  1.2552
15748TIP3    H268736   1.283   4.911   3.253  1.7095 -0.5712  2.1007
15749TIP3   OH268737   2.875   1.906  11.680 -0.2621 -0.1044  0.6325
15749TIP3    H168738   2.799   1.954  11.713  0.5502  0.5498  1.6311
15749TIP3    H268739   2.892   1.943  11.594 -0.5009  0.4244  0.8091
15750TIP3   OH268740   5.669   1.759  11.540 -0.5007 -0.2802  0.7773
15750TIP3    H168741   5.673   1.794  11.451  0.0284 -1.6576  0.2256
15750TIP3    H268742   5.665   1.836  11.596 -0.8594  0.6181 -0.4365
15751TIP3   OH268743   2.100   0.022  11.373  0.2453 -0.2957  0.2382
15751TIP3    H168744   2.119   0.053  11.285 -0.0639 -0.3327  0.1562
15751TIP3    H268745   2.004   0.017  11.377  0.2802 -1.8086  0.0383
15752TIP3   OH268746   6.422   0.881  12.428  0.3730  0.8158  0.6531
15752TIP3    H168747   6.447   0.970  12.452  1.1079  0.7239  0.2667
15752TIP3    H268748   6.443   0.828  12.505  1.2960  0.7636  0.3901
15753TIP3   OH268749   5.567   5.040   5.594  0.5356 -0.4301 -0.2186
15753TIP3    H168750   5.606   5.071   5.513 -0.3192 -0.7302 -0.7525
15753TIP3    H268751   5.522   5.116   5.631  0.9418 -0.2887 -0.0144
15754TIP3   OH268752   5.711   6.337  15.992 -0.3992  0.2937  0.0096
15754TIP3    H168753   5.744   6.326  15.903 -0.5054  0.6012 -0.0667
15754TIP3    H268754   5.684   6.248  16.018  0.7812 -0.0259  0.2006
15755TIP3   OH268755   4.161   2.373   5.261  0.3196 -0.0855  0.0480
15755TIP3    H168756   4.208   2.299   5.223  0.9218  0.7643 -0.9367
15755TIP3    H268757   4.079   2.378   5.211  0.6878  0.4478 -0.5275
15756TIP3   OH268758   0.033   2.185   0.738  0.5216  0.0752  0.1839
15756TIP3    H168759  -0.013   2.260   0.775  1.6812  1.6228 -1.3246
15756TIP3    H268760  -0.036   2.128   0.704 -0.3712  0.6895  0.9348
15757TIP3   OH268761   1.978   1.872  15.172 -0.8875  0.0348  0.2251
15757TIP3    H168762   1.955   1.882  15.080 -1.8868  1.3550  0.5907
15757TIP3    H268763   1.894   1.866  15.217 -0.3988 -1.1319  1.0055
15758TIP3   OH268764   5.629   3.295  13.037 -0.6139 -0.2639 -0.0085
15758TIP3    H168765   5.618   3.206  13.004  1.0169 -1.2245  1.8294
15758TIP3    H268766   5.688   3.337  12.974 -0.7561 -0.7371 -0.4613
15759TIP3   OH268767   4.721   5.654   5.060 -0.2552  0.5448  0.4905
15759TIP3    H168768   4.677   5.675   5.143 -0.5262  0.0483  0.4775
15759TIP3    H268769   4.732   5.559   5.063 -0.3368  0.5181 -0.0792
15760TIP3   OH268770   2.655   2.900   0.540  0.4723  0.2005 -0.1710
15760TIP3    H168771   2.726   2.863   0.592 -2.0943 -1.4716  2.4281
15760TIP3    H268772   2.591   2.929   0.604 -1.3520  1.4139 -2.4042
15761TIP3   OH268773   1.887   1.880   0.517 -0.3422  0.1435  0.5174
15761TIP3    H168774   1.826   1.904   0.586  1.5547  2.9441  1.3566
15761TIP3    H268775   1.836   1.888   0.436 -1.9642 -0.9889  1.3681
15762TIP3   OH268776   3.055   4.567  13.721 -0.3746 -0.3095  0.4020
15762TIP3    H168777   3.091   4.609  13.799  0.5606 -1.4076  0.5844
15762TIP3    H268778   2.967   4.604  13.713  0.1544  1.1500  0.9353
15763TIP3   OH268779   5.545   3.351   4.155 -0.1528  0.4485 -0.3488
15763TIP3    H168780   5.547   3.414   4.083 -1.5172 -0.0356 -0.8406
15763TIP3    H268781   5.531   3.405   4.233 -0.5178  0.8315 -0.6714
15764TIP3   OH268782   5.708   3.726  16.849  0.0572  0.2208  0.4270
15764TIP3    H168783   5.741   3.735  16.938 -3.0981 -0.2843  1.7955
15764TIP3    H268784   5.634   3.787  16.844 -0.9653 -1.0289 -1.2083
15765TIP3   OH268785   3.360   5.859  11.400  0.1309 -0.1348  0.2055
15765TIP3    H168786   3.415   5.884  11.326  1.9189  0.4138  1.6608
15765TIP3    H268787   3.321   5.941  11.430  1.1086 -0.0110  1.1744
15766TIP3   OH268788   6.700   2.631  14.095 -0.2105  0.6319 -0.0285
15766TIP3    H168789   6.790   2.601  14.096 -0.4625 -0.1298  0.1670
15766TIP3    H268790   6.657   2.582  14.166 -0.9493  0.4430 -0.5970
15767TIP3   OH268791   4.355   6.722   1.727  0.5660  0.7003 -0.1663
15767TIP3    H168792   4.384   6.649   1.781  1.2293  0.0562 -1.3494
15767TIP3    H268793   4.422   6.789   1.738  1.7210 -0.1447 -1.5826
15768TIP3   OH268794   1.646   4.304  11.559  0.4367  0.7999 -0.3797
15768TIP3    H168795   1.624   4.374  11.620  0.1934  0.8319 -0.5042
15768TIP3    H268796   1.662   4.349  11.476 -1.2489  0.5834 -0.8627
15769TIP3   OH268797   1.382   3.134   3.607 -0.3600  0.4090 -0.8965
15769TIP3    H168798   1.346   3.206   3.659 -3.1926  0.0085 -2.1528
15769TIP3    H268799   1.455   3.101   3.660 -1.1151  2.0084  1.2984
15770TIP3   OH268800   3.853   4.898  10.911 -0.3018 -0.4360  0.1306
15770TIP3    H168801   3.924   4.958  10.888  0.3899 -0.8532  1.1295
15770TIP3    H268802   3.783   4.920  10.849  0.2539  0.7878 -0.1095
15771TIP3   OH268803   2.039   1.419  16.282 -0.0989  0.5337  0.5109
15771TIP3    H168804   2.121   1.436  16.236 -0.8540  3.7121  0.0620
15771TIP3    H268805   1.988   1.365  16.222  1.5650 -1.4438  0.7798
15772TIP3   OH268806   5.531   0.005   0.187 -0.8667 -0.9419 -0.7521
15772TIP3    H168807   5.502  -0.082   0.215 -2.8015 -1.0854 -2.9714
15772TIP3    H268808   5.484   0.065   0.244 -1.0627 -1.3060 -0.5265
15773TIP3   OH268809   5.637   1.488   2.725  0.3325 -0.1314 -0.1287
15773TIP3    H168810   5.626   1.456   2.814 -1.0996 -1.3207 -0.6908
15773TIP3    H268811   5.731   1.493   2.712  0.6032 -2.5670  0.5657
15774TIP3   OH268812   0.193   0.736   6.048 -0.2061  0.0802  0.1245
15774TIP3    H168813   0.284   0.709   6.041  0.0662  0.7458  0.8878
15774TIP3    H268814   0.178   0.745   6.142 -1.4614 -1.3150  0.0889
15775TIP3   OH268815   1.398   6.419  13.685  0.3493  0.6932  0.2737
15775TIP3    H168816   1.461   6.388  13.750  2.2474  1.5118 -1.1012
15775TIP3    H268817   1.373   6.340  13.637  0.1519  0.3422  0.9335
15776TIP3   OH268818   2.026   4.657  15.349 -0.1821 -0.4363  0.2700
15776TIP3    H168819   2.036   4.743  15.390  0.5762 -0.8656  1.0176
15776TIP3    H268820   2.087   4.659  15.274  0.0392 -0.4215  0.4501
15777TIP3   OH268821   5.552   5.926   5.224 -0.1622 -0.2652  0.1139
15777TIP3    H168822   5.635   5.881   5.207  0.7101  1.2484  0.2034
15777TIP3    H268823   5.510   5.873   5.291  1.2937 -0.4185  0.9560
15778TIP3   OH268824   1.257   4.789  12.427  0.8459 -0.2107  0.3214
15778TIP3    H168825   1.233   4.790  12.520  1.4617  0.9166  0.4877
15778TIP3    H268826   1.173   4.795  12.381  0.5592 -0.3747  0.8135
15779TIP3   OH268827   4.279   1.877  13.863  0.9084  0.3984 -0.5478
15779TIP3    H168828   4.331   1.808  13.903  1.4557  0.9059 -0.3634
15779TIP3    H268829   4.207   1.892  13.924 -0.3690 -1.3780 -1.5329
15780TIP3   OH268830   6.334   2.584   3.006 -0.7210 -0.2219  0.2479
15780TIP3    H168831   6.389   2.597   2.929 -0.8441 -1.4346 -0.0723
15780TIP3    H268832   6.388   2.616   3.079  0.6072 -1.7252 -0.0131
15781TIP3   OH268833   0.038   3.131  13.369 -0.3275 -0.0570 -0.5081
15781TIP3    H168834   0.050   3.212  13.320 -0.1549 -0.4534 -1.1234
15781TIP3    H268835  -0.056   3.129  13.388 -0.4718 -0.1270 -1.2127
15782TIP3   OH268836   1.043   6.048  16.752 -0.6440  0.3052 -0.2095
15782TIP3    H168837   1.068   5.960  16.726 -0.9764 -0.2410  1.2397
15782TIP3    H268838   0.947   6.047  16.750 -0.6464  0.7339 -0.4623
15783TIP3   OH268839   5.882   3.686  14.253  0.3608  0.7593  0.0721
15783TIP3    H168840   5.894   3.736  14.334 -0.0339 -0.7048  1.0800
15783TIP3    H268841   5.871   3.595  14.283  1.6355 -0.0344 -1.7210
15784TIP3   OH268842   0.850   0.738   3.592 -0.2890  0.1171  0.1714
15784TIP3    H168843   0.896   0.779   3.519 -0.0750 -0.6991 -0.1650
15784TIP3    H268844   0.852   0.803   3.661  1.5708  0.0460  0.2473
15785TIP3   OH268845   2.831   4.155  17.265  0.0448  0.1161  0.1750
15785TIP3    H168846   2.831   4.084  17.200  0.1537 -0.6808  1.0211
15785TIP3    H268847   2.813   4.234  17.214 -1.6308 -0.7007 -0.5975
15786TIP3   OH268848   3.459   5.651  13.899 -0.3337  0.2168  0.0207
15786TIP3    H168849   3.420   5.729  13.939 -1.4708  0.0107 -0.6415
15786TIP3    H268850   3.491   5.682  13.814 -1.0947 -0.1008 -0.3883
15787TIP3   OH268851   0.976   4.692   0.444  0.5652 -0.3386 -0.2112
15787TIP3    H168852   1.024   4.644   0.377  0.7045 -1.9624  0.9889
15787TIP3    H268853   0.894   4.644   0.455  0.4122  0.0764  0.5585
15788TIP3   OH268854   5.987   1.781   5.586  0.2527 -0.1464  0.2222
15788TIP3    H168855   6.071   1.772   5.631 -0.4364 -0.2718  1.5243
15788TIP3    H268856   5.922   1.759   5.652 -0.8630  0.9191 -0.4777
15789TIP3   OH268857   6.424   1.950   4.603  0.2071  0.2649  0.4022
15789TIP3    H168858   6.518   1.931   4.595  0.2240  0.1633  0.8236
15789TIP3    H268859   6.384   1.864   4.617  0.2544  0.4785  2.0811
15790TIP3   OH268860   5.359   3.803   4.091  0.0465 -0.2737  0.6570
15790TIP3    H168861   5.284   3.744   4.088  0.9135 -1.4378 -2.7001
15790TIP3    H268862   5.338   3.865   4.161 -2.8210 -2.0436  1.5492
15791TIP3   OH268863   1.448   2.408  16.006 -0.2180  0.8034  0.4133
15791TIP3    H168864   1.461   2.417  16.101 -1.3401  1.4709  0.5171
15791TIP3    H268865   1.487   2.323  15.985  1.9594  1.5633  1.0887
15792TIP3   OH268866   1.050   3.892   5.752  0.0434  0.9715 -0.5303
15792TIP3    H168867   1.060   3.934   5.666 -1.2244 -0.4338 -1.4182
15792TIP3    H268868   1.047   3.798   5.732  1.1297  0.5233  1.2140
15793TIP3   OH268869   1.289   3.658  11.729 -0.3669 -0.6633  0.0776
15793TIP3    H168870   1.292   3.643  11.635  1.3071 -0.0543 -0.0119
15793TIP3    H268871   1.204   3.699  11.745  0.0021  0.8023 -1.4417
15794TIP3   OH268872   6.660   1.926  13.132  0.1909  0.4108 -0.0354
15794TIP3    H168873   6.702   1.869  13.197 -1.0128  1.7030  1.9576
15794TIP3    H268874   6.723   1.929  13.060  0.8512 -2.4054  0.2863
15795TIP3   OH268875   0.294   3.036  16.325  0.0259  0.1274 -0.1348
15795TIP3    H168876   0.304   2.947  16.290  2.6778 -0.5617  2.0197
15795TIP3    H268877   0.362   3.043  16.392 -1.9141  2.8412  1.7530
15796TIP3   OH268878   3.957   5.037  15.981 -0.3603  0.2852 -0.1220
15796TIP3    H168879   4.020   5.109  15.972  0.2998  0.3155  3.2524
15796TIP3    H268880   4.000   4.962  15.939  1.1613  0.7639  0.4933
15797TIP3   OH268881   3.085   3.389   4.947  0.3411  0.3075  0.0366
15797TIP3    H168882   3.180   3.378   4.946  0.3225  0.1490 -0.0106
15797TIP3    H268883   3.069   3.446   5.022  0.6027  1.6003 -0.8486
15798TIP3   OH268884   1.285   2.140  12.444  0.3486 -0.0098 -0.3407
15798TIP3    H168885   1.330   2.200  12.504  0.7222 -0.9439  0.3352
15798TIP3    H268886   1.279   2.188  12.362 -0.6221  1.5129  0.5584
15799TIP3   OH268887   1.520   1.698  14.283  0.3071 -0.1063 -0.1138
15799TIP3    H168888   1.587   1.660  14.340 -0.2965  1.0263  1.4097
15799TIP3    H268889   1.537   1.792  14.285 -0.1846  0.0188 -1.2319
15800TIP3   OH268890   1.895   0.214  15.098 -0.3064 -1.2980  0.3922
15800TIP3    H168891   1.976   0.177  15.133  1.8517 -0.2904 -2.9796
15800TIP3    H268892   1.888   0.176  15.010 -2.2209  0.4408 -0.2877
15801TIP3   OH268893   0.849   1.328  12.776 -0.3561 -0.0417  0.2420
15801TIP3    H168894   0.758   1.310  12.756 -0.6272 -0.0926  1.4266
15801TIP3    H268895   0.851   1.422  12.798 -0.1895 -0.1109  0.5299
15802TIP3   OH268896   6.237   6.495  14.389  0.1229 -0.4422 -0.2960
15802TIP3    H168897   6.166   6.481  14.452 -0.4238 -1.6905 -1.1510
15802TIP3    H268898   6.238   6.415  14.337  0.6999  0.4870 -1.7447
15803TIP3   OH268899   1.158   6.642   0.667  0.5723  0.6623 -0.0151
15803TIP3    H168900   1.123   6.695   0.595  0.2059 -0.5903 -0.7828
15803TIP3    H268901   1.252   6.641   0.652  0.5337  0.7003 -0.2703
15804TIP3   OH268902   6.442   3.258  11.782  0.0698 -0.1220 -0.3367
15804TIP3    H168903   6.468   3.214  11.863 -3.6631 -2.3987 -0.1254
15804TIP3    H268904   6.392   3.335  11.811  1.9855  1.3100 -0.6446
15805TIP3   OH268905   3.598   5.646   1.017  0.3118 -0.2368  0.5966
15805TIP3    H168906   3.515   5.612   0.984  1.2882 -1.1387 -1.0718
15805TIP3    H268907   3.649   5.568   1.039  1.3436  0.2417 -0.0367
15806TIP3   OH268908   6.166   4.505  14.589 -0.3885 -0.4596 -0.1927
15806TIP3    H168909   6.097   4.541  14.645 -0.7691 -0.7056 -0.4995
15806TIP3    H268910   6.128   4.504  14.502  0.7198  1.3187 -0.7518
15807TIP3   OH268911   0.971   6.353   3.348  0.5562  0.2682 -0.4571
15807TIP3    H168912   1.035   6.281   3.343 -0.1091 -0.5018  1.2132
15807TIP3    H268913   0.886   6.309   3.345  0.0956  1.1924 -1.5105
15808TIP3   OH268914   1.867   1.461  13.789  0.2961  0.2177  0.2960
15808TIP3    H168915   1.926   1.393  13.821  1.3040  1.5322  1.3369
15808TIP3    H268916   1.816   1.487  13.866 -0.4801  0.2404 -0.2199
15809TIP3   OH268917   4.524   5.365  15.475  0.8355  0.5997 -0.0652
15809TIP3    H168918   4.563   5.308  15.542  0.2833  0.7105  0.3505
15809TIP3    H268919   4.599   5.397  15.425  1.5192  2.4350  1.9860
15810TIP3   OH268920   4.299   5.595   0.343 -0.3073  0.3746 -0.0468
15810TIP3    H168921   4.212   5.613   0.307 -0.1876  0.2186 -0.4287
15810TIP3    H268922   4.350   5.564   0.267  0.4385  1.6333 -0.0815
15811TIP3   OH268923   0.232   3.086  16.906 -0.2115  0.2172  1.0136
15811TIP3    H168924   0.266   2.997  16.904  2.6772  1.2084  0.4384
15811TIP3    H268925   0.214   3.108  16.815  2.3989  1.2426  0.6417
15812TIP3   OH268926   3.839   0.654   2.690  0.2530 -0.3945  0.4190
15812TIP3    H168927   3.838   0.572   2.641  1.2020  0.0123 -0.3109
15812TIP3    H268928   3.931   0.678   2.695 -0.0974  1.3662 -0.6453
15813TIP3   OH268929   2.232   2.395   6.569  0.5180  0.2923 -0.5406
15813TIP3    H168930   2.314   2.355   6.597  0.0710 -1.1634 -1.2224
15813TIP3    H268931   2.187   2.420   6.650  1.9374  1.8284 -0.1667
15814TIP3   OH268932   0.036   0.499   1.630 -0.0047 -0.2208 -0.1287
15814TIP3    H168933  -0.013   0.578   1.653  0.2239 -0.1995  0.2872
15814TIP3    H268934   0.078   0.471   1.712  1.4248  0.2773 -0.6476
15815TIP3   OH268935   2.876   5.337   6.098  0.4946  0.4485 -0.7754
15815TIP3    H168936   2.962   5.363   6.065  1.1233 -1.2389 -0.5614
15815TIP3    H268937   2.894   5.302   6.185 -0.2677 -0.7239 -1.0713
15816TIP3   OH268938   6.125   3.521  13.982 -0.4152  0.3784  0.4286
15816TIP3    H168939   6.077   3.542  13.902 -1.8991 -1.1195  0.8657
15816TIP3    H268940   6.061   3.474  14.036  0.8347  0.5370  2.1014
15817TIP3   OH268941   0.971   2.825  11.451 -0.2455 -0.2683 -0.2407
15817TIP3    H168942   0.900   2.877  11.490  0.6675  2.1887 -1.6254
15817TIP3    H268943   0.957   2.834  11.357  2.1879  0.7787 -0.5558
15818TIP3   OH268944   3.428   0.215  12.245 -0.1848 -0.4180 -0.5992
15818TIP3    H168945   3.438   0.286  12.308  1.0952 -1.3326  0.2809
15818TIP3    H268946   3.510   0.166  12.250 -0.5465 -1.2373 -2.0876
15819TIP3   OH268947   3.610   3.142  11.264 -0.4628 -0.5443 -0.2345
15819TIP3    H168948   3.542   3.204  11.288  0.7060  0.9694 -0.6675
15819TIP3    H268949   3.633   3.166  11.174 -0.3976 -2.0287 -0.6500
15820TIP3   OH268950   4.949   1.426   3.008  0.2208  0.5075  0.4985
15820TIP3    H168951   5.029   1.448   2.961 -0.6327  0.7482 -0.8733
15820TIP3    H268952   4.888   1.497   2.989 -0.1634  0.6115  1.9767
15821TIP3   OH268953   5.040   4.242   2.649  0.1505 -0.3579  0.6257
15821TIP3    H168954   5.032   4.301   2.725 -0.6251  1.2163 -0.6111
15821TIP3    H268955   4.955   4.198   2.645 -0.3507  0.6251 -0.1202
15822TIP3   OH268956   5.167   5.110  11.686 -0.1081  0.3062 -0.0355
15822TIP3    H168957   5.242   5.053  11.666 -0.1872  0.6129 -1.2583
15822TIP3    H268958   5.174   5.124  11.781  0.1123 -1.4374  0.2571
15823TIP3   OH268959   6.760   2.065  14.173 -0.5191 -0.7135  0.7634
15823TIP3    H168960   6.699   2.083  14.244 -0.0903 -0.5138  1.0894
15823TIP3    H268961   6.821   2.001  14.211 -0.4270 -0.7807  0.4998
15824TIP3   OH268962   1.809   3.034   5.031  0.3354  0.5138 -0.3312
15824TIP3    H168963   1.815   3.119   4.988 -0.4593 -0.3725 -2.3078
15824TIP3    H268964   1.717   3.009   5.022  0.5110 -0.4830  0.4000
15825TIP3   OH268965   4.830   2.381   3.622  0.1013 -0.3915  0.1557
15825TIP3    H168966   4.746   2.409   3.659 -0.3129 -1.1466 -0.1763
15825TIP3    H268967   4.849   2.298   3.665  0.2651 -0.6274 -0.3615
15826TIP3   OH268968   3.994   2.134   0.885 -0.3525  0.3377 -0.0545
15826TIP3    H168969   4.028   2.222   0.872  0.7238  0.3606  2.3119
15826TIP3    H268970   4.020   2.111   0.975 -1.5232 -1.9771 -0.2180
15827TIP3   OH268971   1.694   5.060   5.527  0.2028  0.1720  0.1782
15827TIP3    H168972   1.755   5.048   5.453  0.3833  1.3383  0.1322
15827TIP3    H268973   1.633   5.127   5.497 -2.1199 -2.0226 -0.3896
15828TIP3   OH268974   0.227   3.349   1.507  0.1455 -0.7227  0.0789
15828TIP3    H168975   0.256   3.439   1.519  0.8761 -0.8104 -0.9076
15828TIP3    H268976   0.207   3.342   1.413  0.4869 -1.6851  0.0623
15829TIP3   OH268977   2.513   2.563   0.705  0.2154  0.2909  0.1510
15829TIP3    H168978   2.445   2.521   0.652 -1.0203 -0.4754  2.2253
15829TIP3    H268979   2.481   2.652   0.719 -1.2386 -0.4855  2.3644
15830TIP3   OH268980   0.332   5.312  13.279 -0.2854 -0.6579 -0.4397
15830TIP3    H168981   0.377   5.323  13.195 -0.7949  1.2338 -0.5062
15830TIP3    H268982   0.397   5.339  13.344 -0.0887 -1.5475 -0.2644
15831TIP3   OH268983   1.140   4.895   0.620 -0.5157  0.4717 -0.2106
15831TIP3    H168984   1.201   4.833   0.659 -0.8753 -0.3022 -0.8443
15831TIP3    H268985   1.171   4.906   0.530 -1.4670 -0.1754 -0.6377
15832TIP3   OH268986   2.526   1.771  16.589  0.3064 -0.1266  0.2224
15832TIP3    H168987   2.577   1.776  16.670 -0.0005 -1.8852  0.5583
15832TIP3    H268988   2.435   1.764  16.620  0.1916 -0.8365 -0.2778
15833TIP3   OH268989   6.230   3.708   0.999 -0.8289  0.1354 -0.3345
15833TIP3    H168990   6.230   3.651   1.076  1.7595 -1.1829 -1.1990
15833TIP3    H268991   6.140   3.703   0.965 -1.4580 -0.9438  1.3713
15834TIP3   OH268992   0.073   4.758  13.093  0.4797 -0.3318  0.8937
15834TIP3    H168993   0.041   4.779  13.006  0.8504  1.9386  1.2420
15834TIP3    H268994   0.003   4.705  13.133 -0.2632 -0.2661 -0.2961
15835TIP3   OH268995   3.029   3.852   3.343  0.0371  0.1968  0.2299
15835TIP3    H168996   2.993   3.820   3.426  0.6338  2.0095  1.2558
15835TIP3    H268997   2.970   3.922   3.316  0.3403  0.2099 -0.4138
15836TIP3   OH268998   1.051   6.448   4.516  0.1523  0.1784 -0.5642
15836TIP3    H168999   1.026   6.359   4.539  0.6932  0.4143  1.0595
15836TIP3    H269000   1.140   6.440   4.481  2.0289  0.4344  3.5786
15837TIP3   OH269001   6.386   0.942   2.276  0.1142  0.4249  0.6601
15837TIP3    H169002   6.347   0.880   2.338 -2.6805  2.2088  0.8800
15837TIP3    H269003   6.461   0.979   2.322  0.3511 -0.9814  1.4603
15838TIP3   OH269004   1.520   4.626   1.867  0.5798  0.0868  0.4397
15838TIP3    H169005   1.476   4.589   1.790 -1.6815  1.0988  1.1583
15838TIP3    H269006   1.456   4.618   1.937  1.6474  1.4669  1.6296
15839TIP3   OH269007   0.608   6.619   1.516 -0.2242 -0.1438  0.2050
15839TIP3    H169008   0.635   6.701   1.475  0.8703 -0.5501  0.0611
15839TIP3    H269009   0.605   6.638   1.609 -0.8287  0.2825  0.1001
15840TIP3   OH269010   2.927   1.827  14.079 -0.0077 -0.5509 -0.4109
15840TIP3    H169011   2.878   1.910  14.080  1.1589  0.1603 -0.6327
15840TIP3    H269012   2.933   1.804  13.987  1.2574  0.1015 -0.5088
15841TIP3   OH269013   4.234   1.106   5.711 -0.5138  0.1102  0.1262
15841TIP3    H169014   4.314   1.054   5.704 -1.2889 -1.3265  1.1748
15841TIP3    H269015   4.257   1.191   5.675  1.9211  0.2503  1.7564
15842TIP3   OH269016   3.994   6.154   5.625  0.3651  0.4448 -1.0985
15842TIP3    H169017   3.966   6.099   5.552 -0.4186 -0.6457 -0.0095
15842TIP3    H269018   3.915   6.169   5.676  1.1155  0.1338  0.2056
15843TIP3   OH269019   0.745   5.761   5.489 -0.0106  0.3778 -0.0320
15843TIP3    H169020   0.756   5.711   5.408 -0.2743  0.7599 -0.3108
15843TIP3    H269021   0.785   5.846   5.470  1.0292  0.0690  0.6578
15844TIP3   OH269022   3.391   4.183  15.262  0.0503 -0.2101  0.1339
15844TIP3    H169023   3.304   4.174  15.224  0.6809 -0.1077 -1.4141
15844TIP3    H269024   3.402   4.106  15.317 -0.3929 -1.1034 -0.9962
15845TIP3   OH269025   5.217   6.216   0.825 -0.4123  0.2605  0.1554
15845TIP3    H169026   5.186   6.234   0.737  0.0806  0.3635 -0.0020
15845TIP3    H269027   5.291   6.155   0.813 -0.3884  0.2172  0.4982
15846TIP3   OH269028   1.990   2.416   1.661 -0.4428  0.0264  0.3993
15846TIP3    H169029   1.966   2.391   1.750 -1.9976 -0.3798 -0.1049
15846TIP3    H269030   2.082   2.442   1.667  0.2905 -2.5262  1.6172
15847TIP3   OH269031   4.519   6.798   3.580 -0.1018  0.1189  0.4340
15847TIP3    H169032   4.465   6.793   3.501  0.6776 -0.1748 -0.0891
15847TIP3    H269033   4.549   6.889   3.582  1.2585 -0.2655 -0.5703
15848TIP3   OH269034   4.472   5.772  14.255 -0.0033 -0.3430  0.3836
15848TIP3    H169035   4.483   5.746  14.347  1.2521 -1.1101  0.0336
15848TIP3    H269036   4.478   5.690  14.206 -0.7549  0.0491 -0.3970
15849TIP3   OH269037   2.801   1.439   4.482  0.6403  0.7652  0.0378
15849TIP3    H169038   2.750   1.514   4.451 -0.3060 -0.3298 -1.1713
15849TIP3    H269039   2.892   1.468   4.476  0.2401  3.0836  3.1165
15850TIP3   OH269040   0.798   6.184   1.681 -0.1270 -0.4900 -0.0741
15850TIP3    H169041   0.824   6.156   1.769 -0.1968 -1.5972 -0.3867
15850TIP3    H269042   0.831   6.114   1.623 -0.3922  0.0426 -0.8901
15851TIP3   OH269043   6.782   4.585  17.201 -0.2194 -0.4880  0.2027
15851TIP3    H169044   6.771   4.507  17.256 -0.6737  0.2996  1.2850
15851TIP3    H269045   6.779   4.658  17.263 -2.2852  0.5558 -1.0026
15852TIP3   OH269046   6.500   5.386   3.438  0.5451  0.2321  1.0229
15852TIP3    H169047   6.558   5.393   3.362 -0.4752  0.6571  0.2572
15852TIP3    H269048   6.427   5.331   3.408  1.2044 -1.5037  2.4052
15853TIP3   OH269049   3.444   4.676  12.215  0.0797 -0.2419 -0.2157
15853TIP3    H169050   3.536   4.660  12.192  0.9448  2.4689  1.0071
15853TIP3    H269051   3.429   4.768  12.193 -2.1328 -0.4102  0.3556
15854TIP3   OH269052   4.096   1.818  15.560  0.6970 -0.6200 -0.2599
15854TIP3    H169053   4.060   1.764  15.630  2.5358 -0.7586  0.6171
15854TIP3    H269054   4.042   1.796  15.483 -1.1927 -0.6389  1.0037
15855TIP3   OH269055   1.153   1.015   1.655  0.6916 -0.1232  0.0673
15855TIP3    H169056   1.239   0.974   1.655  0.1906 -1.2161 -0.9278
15855TIP3    H269057   1.092   0.943   1.643 -0.4920  0.4293  2.2603
15856TIP3   OH269058   5.510   6.107  12.336 -0.1969 -0.3388  0.0432
15856TIP3    H169059   5.455   6.180  12.308  0.1691 -0.2119 -0.3552
15856TIP3    H269060   5.479   6.032  12.286  0.3051 -0.1621 -0.5456
15857TIP3   OH269061   0.327   6.483  11.174 -0.1672  0.6286 -0.2304
15857TIP3    H169062   0.415   6.501  11.141  0.0479 -0.1934 -0.1349
15857TIP3    H269063   0.317   6.540  11.250  0.7381 -0.0955  0.4598
15858TIP3   OH269064   6.586   3.724   0.097  0.0838 -0.1589  0.3860
15858TIP3    H169065   6.490   3.722   0.102  0.0558 -1.1250 -0.1517
15858TIP3    H269066   6.611   3.804   0.141 -0.8798 -0.6798  1.9643
15859TIP3   OH269067   0.690   4.783   2.417  0.5597 -0.3332 -0.3025
15859TIP3    H169068   0.716   4.850   2.353 -1.1627  0.5050 -0.1626
15859TIP3    H269069   0.669   4.706   2.363  0.5060 -0.0866 -0.6389
15860TIP3   OH269070   6.164   2.153   1.403  0.1987 -0.1092 -0.2105
15860TIP3    H169071   6.220   2.111   1.468  1.4050  2.1033  0.2935
15860TIP3    H269072   6.195   2.120   1.319  1.3096 -0.0300  0.1507
15861TIP3   OH269073   3.059   5.626  11.637 -0.6212 -0.3515  0.0950
15861TIP3    H169074   3.137   5.681  11.625 -0.6411 -0.5703 -1.2301
15861TIP3    H269075   3.064   5.563  11.566 -0.9239 -1.6981  1.2307
15862TIP3   OH269076   3.610   3.603  15.319  0.5042 -0.1265 -0.0879
15862TIP3    H169077   3.698   3.587  15.284  0.8924  3.2595 -1.0183
15862TIP3    H269078   3.555   3.537  15.277  2.2317 -0.9070 -1.2356
15863TIP3   OH269079   1.293   0.641   0.312 -0.6357  0.2044  0.0846
15863TIP3    H169080   1.378   0.656   0.354 -0.3757  0.1121 -0.4063
15863TIP3    H269081   1.297   0.551   0.282 -0.4484  0.5580 -0.9826
15864TIP3   OH269082   0.846   3.086  16.496  0.3074  0.3296 -0.3603
15864TIP3    H169083   0.863   3.052  16.584 -2.1964 -0.1011  0.0376
15864TIP3    H269084   0.864   3.179  16.503 -0.1821  0.3677  0.7444
15865TIP3   OH269085   2.110   1.574   4.891  0.1151  0.3650  0.1338
15865TIP3    H169086   2.062   1.492   4.896  0.4098  0.0483 -1.5202
15865TIP3    H269087   2.171   1.571   4.965 -0.1861 -0.6957  0.3549
15866TIP3   OH269088   4.103   6.815  16.043  0.2290  0.3234  0.2998
15866TIP3    H169089   4.037   6.806  16.112  0.5172  0.2901  0.5720
15866TIP3    H269090   4.171   6.752  16.066  0.0020 -0.1994 -0.4005
15867TIP3   OH269091   2.125   1.549  15.192 -0.4425  0.2903  0.1744
15867TIP3    H169092   2.123   1.637  15.154  2.5553  0.1378 -0.5529
15867TIP3    H269093   2.142   1.564  15.285 -0.5265  0.4879  0.1585
15868TIP3   OH269094   2.339   6.156   5.157  0.1215  0.5670  0.1264
15868TIP3    H169095   2.410   6.146   5.094 -0.2460  1.3947 -0.4368
15868TIP3    H269096   2.372   6.116   5.237  0.8507  0.0950 -0.3972
15869TIP3   OH269097   3.179   1.762   4.376 -0.1585 -0.4771  0.0922
15869TIP3    H169098   3.210   1.721   4.295 -0.3913  0.2580 -0.3807
15869TIP3    H269099   3.189   1.856   4.360  0.1312 -0.3349  1.0615
15870TIP3   OH269100   5.983   0.075   2.562 -0.1008  0.3912 -0.2204
15870TIP3    H169101   5.995   0.163   2.526  0.9122 -0.0867 -1.0956
15870TIP3    H269102   5.937   0.028   2.492  0.6808 -0.1790 -0.3531
15871TIP3   OH269103   1.703   1.911   4.488 -0.0341 -0.8531  0.4730
15871TIP3    H169104   1.623   1.963   4.490  0.4902 -0.0656  1.6911
15871TIP3    H269105   1.695   1.859   4.407 -1.6205 -0.5831  0.4143
15872TIP3   OH269106   4.919   1.861   3.596 -0.3487  0.0265  0.1720
15872TIP3    H169107   4.916   1.766   3.583 -1.6908 -0.0559  0.9571
15872TIP3    H269108   4.978   1.873   3.671 -0.7081 -0.2363  0.4972
15873TIP3   OH269109   2.451   0.531   0.613 -0.2137  0.0627 -0.5657
15873TIP3    H169110   2.517   0.500   0.674  1.0425  0.2548 -1.7817
15873TIP3    H269111   2.406   0.451   0.584  0.5746 -0.2526 -0.9417
15874TIP3   OH269112   6.619   4.123   5.058 -0.2314  0.6369  0.3104
15874TIP3    H169113   6.647   4.050   5.112 -1.4022 -0.2284 -0.2213
15874TIP3    H269114   6.621   4.199   5.117 -1.0098 -0.1959  1.4299
15875TIP3   OH269115   0.481   4.469   5.177  0.5143 -0.1806 -0.1944
15875TIP3    H169116   0.405   4.507   5.133 -0.4763 -1.6384  0.1777
15875TIP3    H269117   0.448   4.444   5.263  1.0169 -2.0747 -0.5065
15876TIP3   OH269118   3.922   6.207  14.367 -0.1104  0.5885 -0.2169
15876TIP3    H169119   3.990   6.152  14.327 -1.6649 -0.6332 -1.2867
15876TIP3    H269120   3.971   6.272  14.417  1.8747 -1.7969  1.2161
15877TIP3   OH269121   3.773   0.575   2.178 -0.4410  0.4991 -0.0221
15877TIP3    H169122   3.746   0.528   2.099 -1.7733  0.2844  0.5411
15877TIP3    H269123   3.694   0.582   2.230  0.4837  0.3502  1.4615
15878TIP3   OH269124   5.251   1.387  11.376  0.3248 -0.0213  0.2434
15878TIP3    H169125   5.215   1.455  11.318 -0.1059 -0.6862 -0.2943
15878TIP3    H269126   5.253   1.308  11.321 -0.1787 -0.6923  1.1606
15879TIP3   OH269127   1.067   3.846  13.436 -0.4902  0.0917 -0.7239
15879TIP3    H169128   0.972   3.847  13.445 -0.3763 -0.3538  1.1232
15879TIP3    H269129   1.083   3.861  13.343 -2.3353  0.7719 -0.9778
15880TIP3   OH269130   4.822   6.207   3.843  0.5938  0.2989 -0.2149
15880TIP3    H169131   4.750   6.173   3.896  1.6689 -2.1390 -0.1918
15880TIP3    H269132   4.884   6.243   3.908  0.9139 -0.6997  0.0537
15881TIP3   OH269133   6.336   1.319  13.885 -0.0963  0.6776  0.1736
15881TIP3    H169134   6.307   1.238  13.843 -1.3087  1.6749 -1.0127
15881TIP3    H269135   6.255   1.361  13.915  0.4646  1.6389  0.3948
15882TIP3   OH269136   2.780   0.386  11.145  0.0627  0.3964  0.2559
15882TIP3    H169137   2.854   0.337  11.182  1.2518  0.4082 -1.9582
15882TIP3    H269138   2.821   0.461  11.101 -1.5060  1.8598  1.1825
15883TIP3   OH269139   0.026   0.702   5.812 -0.3958 -0.2163 -0.3011
15883TIP3    H169140   0.065   0.719   5.898 -2.0885 -3.1369  1.2192
15883TIP3    H269141  -0.057   0.749   5.814 -0.2843 -0.0152 -0.4585
15884TIP3   OH269142   5.164   1.763   1.963  0.3062  0.4967 -0.0774
15884TIP3    H169143   5.188   1.850   1.931  0.1025 -0.0994 -2.0178
15884TIP3    H269144   5.072   1.770   1.986  0.1184  0.6663 -0.8362
15885TIP3   OH269145   5.316   6.186   2.018 -0.4606  0.2555 -0.2876
15885TIP3    H169146   5.377   6.124   2.058 -0.0527 -0.0441 -1.3598
15885TIP3    H269147   5.349   6.272   2.045  1.1461  0.1633 -1.7834
15886TIP3   OH269148   0.627   4.883   0.879  0.7442 -0.2279 -0.0965
15886TIP3    H169149   0.678   4.818   0.929  2.4004  2.5044  2.1013
15886TIP3    H269150   0.691   4.921   0.819 -0.1384 -0.3869 -1.1628
15887TIP3   OH269151   3.345   3.367  11.377  0.3456 -0.3344 -0.2455
15887TIP3    H169152   3.395   3.434  11.330  1.6873  0.9250  2.6798
15887TIP3    H269153   3.287   3.417  11.434  0.2687 -1.6812  0.9121
15888TIP3   OH269154   3.633   0.061   3.550 -0.0796 -0.3604 -0.3478
15888TIP3    H169155   3.661   0.152   3.555  1.5925 -0.8538 -0.0349
15888TIP3    H269156   3.538   0.065   3.544  0.0297  1.4397 -1.5852
15889TIP3   OH269157   5.862   1.579  17.182 -0.0468 -0.1207  0.0203
15889TIP3    H169158   5.921   1.651  17.204 -0.6856  0.0364  1.2843
15889TIP3    H269159   5.798   1.619  17.122 -1.3392  0.8398  1.9358
15890TIP3   OH269160   5.736   0.927  17.208  0.4309 -0.5833  0.6707
15890TIP3    H169161   5.751   0.956  17.298 -0.3988  0.6703  0.4272
15890TIP3    H269162   5.807   0.969  17.158 -0.3607  0.5153  0.4286
15891TIP3   OH269163   5.290   5.124  14.421  0.2979 -0.3057 -0.0816
15891TIP3    H169164   5.206   5.167  14.410  0.4030 -0.1989 -0.4709
15891TIP3    H269165   5.279   5.037  14.382  0.2099 -0.4825  0.3356
15892TIP3   OH269166   6.479   5.321   1.853 -0.1564 -0.1470 -0.1760
15892TIP3    H169167   6.491   5.229   1.877  2.2980  0.2943  0.6267
15892TIP3    H269168   6.416   5.355   1.916 -3.4123 -1.8425 -2.2508
15893TIP3   OH269169   6.043   6.289  12.970  0.5884  0.1941  0.2672
15893TIP3    H169170   5.998   6.288  12.886  1.5768  0.9214 -0.2867
15893TIP3    H269171   6.122   6.236  12.956 -0.5016 -1.8894  1.5017
15894TIP3   OH269172   1.622   6.013   5.257  0.5460  0.3499  0.1524
15894TIP3    H169173   1.647   5.921   5.257  0.1819  0.2444  0.6189
15894TIP3    H269174   1.648   6.044   5.344  0.9304  0.7623 -0.1076
15895TIP3   OH269175   6.504   1.305  12.738  0.2479  0.5382 -0.0199
15895TIP3    H169176   6.450   1.384  12.734 -1.0670 -0.0377  3.1978
15895TIP3    H269177   6.441   1.233  12.736  1.1295 -0.2809  0.5361
15896TIP3   OH269178   5.929   0.347  17.063  0.0304  0.2633  0.3086
15896TIP3    H169179   5.886   0.420  17.108  1.9426  1.1823  0.7498
15896TIP3    H269180   6.007   0.386  17.023 -0.0036 -1.1468 -1.2554
15897TIP3   OH269181   5.798   3.797  14.763 -0.1221  0.5624 -0.6115
15897TIP3    H169182   5.716   3.788  14.812 -0.7797 -0.0060 -1.7874
15897TIP3    H269183   5.855   3.845  14.823 -0.5302 -1.0071  1.1324
15898TIP3   OH269184   0.735   4.385  16.419 -0.5070 -0.1443 -0.5133
15898TIP3    H169185   0.724   4.405  16.326  1.7807 -0.0151 -0.8254
15898TIP3    H269186   0.663   4.431  16.462 -1.7884 -0.4437 -2.2207
15899TIP3   OH269187   2.754   2.710  12.913 -0.6697 -0.2630  0.3016
15899TIP3    H169188   2.737   2.732  12.821 -0.0638  1.5710  0.5948
15899TIP3    H269189   2.845   2.679  12.913 -0.0362  1.4777  0.5087
15900TIP3   OH269190   1.939   5.220   0.439  0.4766  0.8517  0.6534
15900TIP3    H169191   1.854   5.265   0.444  1.0806  2.0727  0.4663
15900TIP3    H269192   2.001   5.283   0.477  1.2454 -0.1753  1.1357
15901TIP3   OH269193   6.212   0.313   2.498  0.4296 -0.4535 -0.2115
15901TIP3    H169194   6.179   0.384   2.554  1.0605 -1.2142  1.1807
15901TIP3    H269195   6.158   0.317   2.419 -1.0955  0.1028  0.8164
15902TIP3   OH269196   5.258   6.686   4.962  0.2586  0.3214 -0.3139
15902TIP3    H169197   5.236   6.670   4.870  3.5731 -2.4176 -0.8477
15902TIP3    H269198   5.343   6.730   4.959  0.4167  0.2111  1.4515
15903TIP3   OH269199   0.207   4.763  13.714 -0.0322  0.1339  0.4450
15903TIP3    H169200   0.115   4.787  13.713  0.4323  2.2215  1.5566
15903TIP3    H269201   0.226   4.738  13.623 -1.2651  1.5348 -0.2502
15904TIP3   OH269202   3.535   1.489  10.431  0.6305 -0.0849 -0.4975
15904TIP3    H169203   3.481   1.557  10.471  0.9749  0.5501 -1.0815
15904TIP3    H269204   3.622   1.529  10.425  0.6856 -0.3207 -1.4626
15905TIP3   OH269205   0.160   5.859   2.436 -0.3274 -0.1176 -0.2373
15905TIP3    H169206   0.243   5.906   2.450 -0.1061 -0.1122 -1.4510
15905TIP3    H269207   0.181   5.767   2.455  0.0675 -0.1708 -0.8911
15906TIP3   OH269208   5.454   2.827   4.852 -0.2687 -0.0849  0.2965
15906TIP3    H169209   5.496   2.902   4.893  0.2793  0.2629 -0.8918
15906TIP3    H269210   5.526   2.770   4.826 -0.6209 -0.3398 -0.1240
15907TIP3   OH269211   6.817   4.226  16.133  0.3914 -0.0624 -0.1218
15907TIP3    H169212   6.769   4.179  16.065 -0.7988  3.5999 -2.0848
15907TIP3    H269213   6.904   4.241  16.095  0.7109 -0.5204  0.4165
15908TIP3   OH269214   0.054   2.432   3.421  0.3116 -0.2126  0.4757
15908TIP3    H169215   0.142   2.466   3.433 -0.1079  0.7527  0.9890
15908TIP3    H269216   0.059   2.340   3.447  1.2134 -0.2349  0.2425
15909TIP3   OH269217   2.398   5.252  11.235  0.3498 -0.4931 -0.0012
15909TIP3    H169218   2.332   5.291  11.178  0.1110 -1.5130 -0.4372
15909TIP3    H269219   2.454   5.326  11.260  0.1194  0.0796 -1.0898
15910TIP3   OH269220   3.193   5.558   0.138  0.7023  0.2658  0.0344
15910TIP3    H169221   3.227   5.638   0.178  1.2240 -0.6171  1.4426
15910TIP3    H269222   3.130   5.589   0.073  0.5840  1.8112  0.8283
15911TIP3   OH269223   0.851   6.815  16.003 -0.0563 -0.4322  0.7082
15911TIP3    H169224   0.850   6.857  16.089  1.4462  1.9726 -0.3325
15911TIP3    H269225   0.938   6.774  15.998  1.0879  1.9553 -0.6618
15912TIP3   OH269226   4.924   6.565  16.762 -0.1223 -0.8874 -0.0407
15912TIP3    H169227   4.869   6.527  16.693 -0.1832 -0.6416 -0.1303
15912TIP3    H269228   4.928   6.658  16.740 -1.7854 -0.4308  1.3801
15913TIP3   OH269229   3.179   3.503  13.737 -0.7049 -0.8188 -0.0736
15913TIP3    H169230   3.140   3.565  13.675  0.7595  2.8925  2.3515
15913TIP3    H269231   3.190   3.554  13.818  1.1837 -4.1465  1.9916
15914TIP3   OH269232   4.171   6.241  16.718 -0.4308 -0.0501 -0.0389
15914TIP3    H169233   4.176   6.220  16.811 -1.2681 -0.6032 -0.1090
15914TIP3    H269234   4.077   6.249  16.700 -0.3277 -0.8699 -1.0276
15915TIP3   OH269235   1.257   2.428  16.944 -0.3501 -0.6525 -0.7012
15915TIP3    H169236   1.242   2.346  16.897 -0.3885 -1.7170  1.0770
15915TIP3    H269237   1.344   2.456  16.918 -0.4437 -1.1088 -1.5265
15916TIP3   OH269238   0.378   1.786   1.214  0.1942 -0.0589 -0.2742
15916TIP3    H169239   0.381   1.840   1.134  0.1254 -0.0449 -0.2676
15916TIP3    H269240   0.468   1.754   1.224  0.4765  0.8523  0.2666
15917TIP3   OH269241   1.978   2.542   4.349  0.8573  0.5295  0.6126
15917TIP3    H169242   2.024   2.608   4.403  0.2989  1.9136 -0.5287
15917TIP3    H269243   2.011   2.558   4.261  0.7838 -0.8281  0.3326
15918TIP3   OH269244   5.531   2.537  14.946  0.1556  0.5656 -0.0862
15918TIP3    H169245   5.558   2.532  14.854  2.9316  0.9117  0.6397
15918TIP3    H269246   5.488   2.454  14.963  1.3824 -0.3404 -1.1968
15919TIP3   OH269247   0.528   2.601   3.714  0.4053 -0.4917 -0.4492
15919TIP3    H169248   0.575   2.669   3.762  0.3296 -1.1132  0.5406
15919TIP3    H269249   0.499   2.540   3.782 -0.2276 -1.0835 -1.2358
15920TIP3   OH269250   2.336   1.524  16.422 -0.1869 -0.1124  0.2801
15920TIP3    H169251   2.326   1.527  16.327  3.6542  1.3044 -0.2701
15920TIP3    H269252   2.281   1.595  16.455 -1.4336 -0.5173 -0.8744
15921TIP3   OH269253   0.186   0.823  12.481 -0.3043  0.4134 -0.0957
15921TIP3    H169254   0.152   0.841  12.393 -0.4159  0.8123  0.0251
15921TIP3    H269255   0.239   0.900  12.502  0.5809 -0.1499 -0.2281
15922TIP3   OH269256   5.373   6.460   6.681 -0.0637 -0.3372  0.3245
15922TIP3    H169257   5.460   6.483   6.714  0.7180 -0.4830 -1.4638
15922TIP3    H269258   5.391   6.417   6.597 -1.8570 -0.5881  0.0381
15923TIP3   OH269259   0.975   5.591  11.828  0.3421 -0.3015 -0.2538
15923TIP3    H169260   1.060   5.570  11.789  0.3963 -0.0025 -0.3008
15923TIP3    H269261   0.993   5.596  11.922  0.8077  1.7155 -0.4126
15924TIP3   OH269262   1.270   5.107  14.114  0.0025  0.4226  0.7749
15924TIP3    H169263   1.205   5.078  14.177 -0.4234  0.4650  0.3593
15924TIP3    H269264   1.245   5.063  14.032 -0.7733  2.1192  0.0716
15925TIP3   OH269265   2.316   5.455  11.520  0.5318 -0.1868  0.4115
15925TIP3    H169266   2.252   5.474  11.451 -1.1148 -0.6639  1.7311
15925TIP3    H269267   2.343   5.365  11.504  0.7123 -0.0557 -0.0262
15926TIP3   OH269268   5.970   4.252   4.883 -0.6750  0.8072  0.2055
15926TIP3    H169269   6.047   4.195   4.887  0.2781  1.9596 -0.7010
15926TIP3    H269270   5.906   4.210   4.940  0.4292 -0.4805  0.5633
15927TIP3   OH269271   1.600   4.589  11.460  0.6694  0.0128 -0.0315
15927TIP3    H169272   1.631   4.526  11.395  0.0149 -1.8121  1.3538
15927TIP3    H269273   1.634   4.673  11.430  1.4935 -0.9701 -2.0001
15928TIP3   OH269274   4.255   6.210  13.542 -0.3721  0.4277 -0.1591
15928TIP3    H169275   4.309   6.155  13.598 -1.6564 -0.7754 -0.0389
15928TIP3    H269276   4.317   6.259  13.489  1.0340 -4.3656 -3.6059
15929TIP3   OH269277   3.166   2.407   0.056 -0.1343  0.1577  0.1432
15929TIP3    H169278   3.251   2.368   0.036  1.8687  3.2019  1.8114
15929TIP3    H269279   3.162   2.485  -0.001 -2.5236 -0.6232 -0.8874
15930TIP3   OH269280   4.315   1.320   2.854  0.2728 -0.6334 -0.2183
15930TIP3    H169281   4.298   1.349   2.765  0.2931  1.8629  0.5001
15930TIP3    H269282   4.407   1.343   2.869 -0.6094  2.2936  1.4797
15931TIP3   OH269283   4.762   1.850  11.707  0.3160  0.4740  0.4161
15931TIP3    H169284   4.798   1.762  11.710 -2.1545 -0.7699 -1.8881
15931TIP3    H269285   4.688   1.848  11.768 -0.9405  0.2496 -1.0471
15932TIP3   OH269286   5.372   5.726   3.902  0.1083  0.3697  0.2024
15932TIP3    H169287   5.315   5.792   3.865  0.1892  0.5459  0.3904
15932TIP3    H269288   5.321   5.685   3.971 -0.7808 -1.3354 -1.3946
15933TIP3   OH269289   0.755   3.196  12.635 -0.4674 -0.6104 -0.5155
15933TIP3    H169290   0.843   3.213  12.671 -0.7466  0.2295 -0.2042
15933TIP3    H269291   0.698   3.258  12.680 -1.5562 -2.3452  0.6158
15934TIP3   OH269292   3.824   5.657  11.962  0.2641 -0.1064 -0.0158
15934TIP3    H169293   3.824   5.651  11.866  0.7499 -1.8869  0.0577
15934TIP3    H269294   3.775   5.581  11.991 -0.0740  0.5370  1.1786
15935TIP3   OH269295   0.976   0.042   0.522  0.1338  0.4943  0.1943
15935TIP3    H169296   0.882   0.043   0.543 -0.3185  0.3467 -1.6322
15935TIP3    H269297   0.993  -0.047   0.490  0.6324  0.8278 -0.5045
15936TIP3   OH269298   4.286   2.663   2.923 -0.2753 -0.0758 -0.3924
15936TIP3    H169299   4.197   2.672   2.957 -0.7579 -1.1150 -1.3269
15936TIP3    H269300   4.288   2.722   2.847 -0.2905 -0.3443 -0.6016
15937TIP3   OH269301   2.416   5.184  16.638  0.3532 -0.5287 -0.7924
15937TIP3    H169302   2.347   5.140  16.588 -0.5602 -0.6912  0.5340
15937TIP3    H269303   2.490   5.123  16.636  0.0710 -0.8602 -1.3108
15938TIP3   OH269304   5.202   2.758  13.888 -0.3949  0.0131  0.2325
15938TIP3    H169305   5.167   2.846  13.900  0.3180  0.2143  0.8682
15938TIP3    H269306   5.263   2.766  13.815  0.8052  0.3992  1.2317
15939TIP3   OH269307   6.493   2.139  11.740 -0.4022 -0.3237 -0.5584
15939TIP3    H169308   6.418   2.182  11.781 -0.1454 -1.3163  1.0427
15939TIP3    H269309   6.563   2.148  11.804  0.5858 -0.2645 -1.6138
15940TIP3   OH269310   4.603   1.743   4.930  0.0292 -0.1117 -0.0224
15940TIP3    H169311   4.575   1.731   4.839  1.1632 -0.6312 -0.3152
15940TIP3    H269312   4.698   1.734   4.927 -0.0901 -3.0630  1.6451
15941TIP3   OH269313   4.249   4.742  12.310  0.3027 -0.4413 -0.4763
15941TIP3    H169314   4.165   4.786  12.326  0.9360  0.5362  0.2995
15941TIP3    H269315   4.252   4.672  12.376  0.0054 -0.6161 -0.6466
15942TIP3   OH269316   0.130   1.769  14.094  0.6960  1.0622 -0.4946
15942TIP3    H169317   0.043   1.736  14.117  1.2138  1.7658  2.9826
15942TIP3    H269318   0.189   1.698  14.118  1.3886  2.3762  1.9910
15943TIP3   OH269319   4.566   5.861   1.420 -0.5222 -0.1409 -0.3806
15943TIP3    H169320   4.540   5.892   1.333 -0.8888 -0.8576 -0.5354
15943TIP3    H269321   4.520   5.778   1.431 -0.4692 -0.0712  0.4955
15944TIP3   OH269322   6.501   5.243  14.675  0.0753 -0.6199 -0.3197
15944TIP3    H169323   6.577   5.298  14.695 -1.3125  1.4561 -0.4108
15944TIP3    H269324   6.467   5.219  14.761  0.7355 -1.4449 -0.2791
15945TIP3   OH269325   4.848   5.232   0.028  0.4796 -0.0205  0.3690
15945TIP3    H169326   4.865   5.168   0.097 -1.4590 -1.1200 -0.0983
15945TIP3    H269327   4.768   5.200  -0.015  1.7126  0.4716 -2.5428
15946TIP3   OH269328   5.599   3.157  15.491  0.7989 -0.3083  0.2096
15946TIP3    H169329   5.631   3.123  15.408  0.2983  2.2012 -1.1003
15946TIP3    H269330   5.504   3.158  15.482  0.6423 -1.3029  1.4100
15947TIP3   OH269331   1.216   0.280  15.921  0.1432  0.0020  0.1719
15947TIP3    H169332   1.124   0.286  15.895 -0.0008 -2.0474  0.0674
15947TIP3    H269333   1.260   0.242  15.844  1.0996  0.9523  0.2187
15948TIP3   OH269334   1.653   5.529  14.307 -0.0680  0.4813  0.6498
15948TIP3    H169335   1.646   5.613  14.351 -1.7706  0.1308  1.1130
15948TIP3    H269336   1.619   5.545  14.219 -0.8793  0.1753  0.9011
15949TIP3   OH269337   0.527   5.703   4.969  0.1032  0.6576 -0.3847
15949TIP3    H169338   0.589   5.736   5.034  0.9297  1.3900 -1.5015
15949TIP3    H269339   0.442   5.734   4.998  0.5054  1.2550  0.1795
15950TIP3   OH269340   2.925   1.696   3.331 -0.2944  0.7595 -0.1804
15950TIP3    H169341   2.995   1.676   3.270  0.6411  0.8199  0.8451
15950TIP3    H269342   2.844   1.674   3.283  0.3627  1.4469 -1.6572
15951TIP3   OH269343   0.507   1.622  14.791 -0.2025 -0.1282 -0.2066
15951TIP3    H169344   0.430   1.580  14.752 -0.5500  2.2024 -2.3110
15951TIP3    H269345   0.492   1.618  14.885 -2.1125 -1.1647 -0.5119
15952TIP3   OH269346   1.438   4.969  16.165  0.4069 -0.1677 -0.5940
15952TIP3    H169347   1.392   5.015  16.235 -0.1720  0.1356 -1.1682
15952TIP3    H269348   1.505   5.031  16.135 -0.0722  0.1317 -1.0563
15953TIP3   OH269349   0.006   1.857  15.382  0.2389  0.1798 -0.0609
15953TIP3    H169350   0.028   1.929  15.322  0.0992  0.6544  0.4441
15953TIP3    H269351  -0.087   1.869  15.401  0.3473  0.2057  0.4716
15954TIP3   OH269352   6.272   6.388   5.463 -0.0341 -0.3983 -0.2347
15954TIP3    H169353   6.323   6.363   5.540  2.7684  2.2111 -1.0351
15954TIP3    H269354   6.257   6.482   5.475 -3.9852 -0.8108 -0.5734
15955TIP3   OH269355   2.639   0.171  10.430  0.0656  0.4040 -0.3275
15955TIP3    H169356   2.595   0.230  10.370  0.5547  0.2567 -0.8443
15955TIP3    H269357   2.615   0.202  10.517 -1.4405  0.0346 -0.5842
15956TIP3   OH269358   4.314   4.837   4.009  0.0030 -0.1126 -0.1811
15956TIP3    H169359   4.333   4.912   4.067 -1.2608  0.0895 -0.0168
15956TIP3    H269360   4.395   4.786   4.010  1.2869  1.7921 -1.1485
15957TIP3   OH269361   2.652   1.930  13.289 -0.3357  0.4982  0.7933
15957TIP3    H169362   2.601   1.911  13.210 -0.3174  1.1496  0.6196
15957TIP3    H269363   2.737   1.958  13.257  0.0820 -0.4120  1.0842
15958TIP3   OH269364   4.129   4.872  12.891 -0.3799  0.4159 -0.0678
15958TIP3    H169365   4.111   4.825  12.973  0.9375  0.5210  0.2999
15958TIP3    H269366   4.222   4.857  12.875  0.0512  2.7403 -0.0172
15959TIP3   OH269367   1.443   4.395   3.423 -0.2444 -0.2555  0.2140
15959TIP3    H169368   1.427   4.308   3.387 -1.1781  0.0510 -0.1541
15959TIP3    H269369   1.534   4.393   3.453 -0.0107 -1.0926 -0.5263
15960TIP3   OH269370   1.810   5.752   3.550 -0.3216 -0.5024  0.6224
15960TIP3    H169371   1.754   5.677   3.531 -1.3303  0.1584  0.9560
15960TIP3    H269372   1.882   5.744   3.488  0.0668 -2.2473  1.2370
15961TIP3   OH269373   0.962   4.598  11.213  0.0875 -0.1420 -0.5433
15961TIP3    H169374   0.877   4.639  11.197 -0.8071 -1.4366  0.6147
15961TIP3    H269375   1.016   4.667  11.251 -0.0732  0.9815 -2.2460
15962TIP3   OH269376   6.753   4.405  11.656 -0.1751  0.0121 -0.3365
15962TIP3    H169377   6.767   4.478  11.717  0.9531  0.4377 -1.0895
15962TIP3    H269378   6.665   4.420  11.621 -1.2756 -0.7921  1.8915
15963TIP3   OH269379   2.068   4.500  14.968 -0.1184 -0.2561 -0.3576
15963TIP3    H169380   1.980   4.510  15.004  0.0499 -2.2596  0.7693
15963TIP3    H269381   2.126   4.535  15.036  0.0043 -0.0707 -0.5568
15964TIP3   OH269382   0.533   6.113  16.657  0.1557 -0.2416  0.0256
15964TIP3    H169383   0.571   6.166  16.587 -0.0899 -1.4988 -1.1067
15964TIP3    H269384   0.571   6.026  16.644  0.5905 -0.3543  1.8754
15965TIP3   OH269385   2.726   5.046  11.557 -0.1683 -0.3300  0.1192
15965TIP3    H169386   2.805   4.995  11.542  2.0082  2.4631  1.2806
15965TIP3    H269387   2.671   5.027  11.480  2.2670 -1.1484 -1.5494
15966TIP3   OH269388   4.268   2.585   0.757  0.0572  0.0240 -0.0386
15966TIP3    H169389   4.350   2.544   0.783 -0.4995 -0.1002  1.6260
15966TIP3    H269390   4.271   2.672   0.797 -0.0563  0.5357 -1.0921
15967TIP3   OH269391   2.451   3.389  11.112  0.3921 -0.1950 -0.2462
15967TIP3    H169392   2.391   3.335  11.061 -0.8373  1.7910 -1.0403
15967TIP3    H269393   2.499   3.439  11.046 -0.4852  1.6575  0.4576
15968TIP3   OH269394   5.720   0.710  12.671  0.0756  0.2794 -0.4338
15968TIP3    H169395   5.773   0.631  12.682  0.1211  0.3659 -0.0138
15968TIP3    H269396   5.639   0.690  12.718  0.4460  0.8249  0.4442
15969TIP3   OH269397   2.851   0.290   5.204 -0.0001  0.0901 -0.4362
15969TIP3    H169398   2.865   0.305   5.111  0.0847 -0.1724 -0.4669
15969TIP3    H269399   2.938   0.277   5.240 -0.1565 -1.9826 -0.7038
15970TIP3   OH269400   1.469   3.850  13.419 -0.3957  0.2014  0.0758
15970TIP3    H169401   1.518   3.812  13.492 -0.4007  4.0665  2.3884
15970TIP3    H269402   1.511   3.815  13.341  2.1152 -1.2720  1.9366
15971TIP3   OH269403   4.389   1.523  15.982 -0.1033 -0.3102 -0.0049
15971TIP3    H169404   4.429   1.439  15.961 -0.2193 -0.4091  0.1710
15971TIP3    H269405   4.322   1.536  15.914 -0.8558 -0.8887  0.6051
15972TIP3   OH269406   0.001   1.410   4.629  0.7379  0.0655  0.4759
15972TIP3    H169407   0.083   1.361   4.619  1.2072  0.9711 -0.3669
15972TIP3    H269408   0.005   1.476   4.560 -1.4035 -0.8026 -0.5565
15973TIP3   OH269409   3.818   0.023  11.055  0.4274 -0.2434 -0.0904
15973TIP3    H169410   3.886   0.090  11.046  1.1531 -1.0400 -0.6606
15973TIP3    H269411   3.768   0.050  11.132  0.2210  1.3675 -0.7335
15974TIP3   OH269412   1.378   2.705  16.207 -1.0856 -0.1268 -0.1410
15974TIP3    H169413   1.319   2.686  16.280 -0.8981 -0.8601 -0.1728
15974TIP3    H269414   1.449   2.642  16.218 -0.4930  0.5072 -0.3139
15975TIP3   OH269415   2.783   5.298   4.220 -0.2837  0.1890  0.3240
15975TIP3    H169416   2.696   5.325   4.251 -0.2356  1.1975 -0.3926
15975TIP3    H269417   2.841   5.317   4.293 -0.5695  0.0659  0.5889
15976TIP3   OH269418   0.556   1.144   3.098 -0.0595  0.2110  0.1279
15976TIP3    H169419   0.542   1.158   3.004 -0.4564 -0.4313  0.0881
15976TIP3    H269420   0.546   1.231   3.137  0.5597  0.5594 -0.4773
15977TIP3   OH269421   3.367   2.429   1.542 -0.0672 -0.0546 -0.4763
15977TIP3    H169422   3.285   2.466   1.574  0.2658  0.4348 -0.1524
15977TIP3    H269423   3.420   2.418   1.622  0.2386 -0.2065 -0.6991
15978TIP3   OH269424   3.134   2.684  17.217 -0.0140  0.0284  0.1205
15978TIP3    H169425   3.185   2.693  17.137 -1.7111  2.7276 -0.7754
15978TIP3    H269426   3.171   2.748  17.278 -0.2652 -0.3272  0.6628
15979TIP3   OH269427   5.443   3.844  11.224  0.2711  0.1728  0.4942
15979TIP3    H169428   5.462   3.932  11.192  1.0602  0.1343  0.8443
15979TIP3    H269429   5.431   3.792  11.145  0.0973  0.5299  0.2830
15980TIP3   OH269430   6.216   2.554  14.837 -0.0903  0.5775  0.2264
15980TIP3    H169431   6.139   2.604  14.810  0.4345  1.5262  0.4099
15980TIP3    H269432   6.280   2.570  14.767 -0.3834 -1.0303 -0.4432
15981TIP3   OH269433   2.619   5.258   2.166 -0.0199 -0.0334  0.2975
15981TIP3    H169434   2.608   5.225   2.077 -0.6035 -3.1630  1.4047
15981TIP3    H269435   2.546   5.221   2.215 -0.0078  2.0219  2.0396
15982TIP3   OH269436   5.651   0.649  15.029  0.1663  0.9376  0.5528
15982TIP3    H169437   5.570   0.602  15.047  0.9262 -0.7226 -0.2114
15982TIP3    H269438   5.623   0.730  14.987 -1.1003  0.3757  0.2761
15983TIP3   OH269439   3.003   6.324  14.123  0.3341 -0.4373 -0.8705
15983TIP3    H169440   3.051   6.402  14.096  0.1849 -0.2084 -0.4845
15983TIP3    H269441   2.937   6.312  14.055  0.0017  0.0979 -0.6521
15984TIP3   OH269442   4.653   1.707  12.923  0.3826  0.2106 -0.1738
15984TIP3    H169443   4.710   1.697  12.999 -0.9153  0.8272  0.9356
15984TIP3    H269444   4.632   1.801  12.921 -0.3508  0.0483 -0.7080
15985TIP3   OH269445   2.038   2.178   3.938  0.3443  0.5950  0.0389
15985TIP3    H169446   2.081   2.214   4.016 -0.4220 -0.0873  0.7834
15985TIP3    H269447   2.061   2.085   3.938 -1.4610  0.1144  0.6972
15986TIP3   OH269448   1.575   4.136   0.541  0.0425 -0.5211 -0.0590
15986TIP3    H169449   1.643   4.144   0.608  0.0384 -2.4517  0.2526
15986TIP3    H269450   1.614   4.175   0.462  0.3682  1.0051  0.8239
15987TIP3   OH269451   5.241   0.776  13.481 -0.1162  0.1837  0.4587
15987TIP3    H169452   5.270   0.844  13.542 -0.1934  0.3818  0.2754
15987TIP3    H269453   5.209   0.706  13.537 -1.9730  1.1266  0.6511
15988TIP3   OH269454   5.812   1.675   3.277  0.5278  0.5938 -0.0863
15988TIP3    H169455   5.792   1.724   3.197  0.3259 -2.7460 -2.2592
15988TIP3    H269456   5.731   1.631   3.300  1.5379 -1.6533 -0.5077
15989TIP3   OH269457   4.571   4.341  16.936 -0.0388 -0.3459  0.7338
15989TIP3    H169458   4.501   4.403  16.952  1.2846  1.6500 -0.7770
15989TIP3    H269459   4.540   4.286  16.864  0.8332  2.2562 -1.8131
15990TIP3   OH269460   2.625   2.714  12.279  0.2810 -0.3131  0.5727
15990TIP3    H169461   2.550   2.718  12.339  0.0072 -0.6407  0.2630
15990TIP3    H269462   2.639   2.804  12.252 -0.5493 -0.3479 -0.0201
15991TIP3   OH269463   6.119   5.073   5.185 -0.1062 -0.4399  0.1778
15991TIP3    H169464   6.028   5.059   5.158 -0.1757  2.3821 -1.4607
15991TIP3    H269465   6.112   5.127   5.264  0.1697 -1.8605  1.1946
15992TIP3   OH269466   4.563   3.107  12.652  0.2788 -0.2156 -0.0263
15992TIP3    H169467   4.499   3.036  12.649  1.9096 -1.9613  2.4392
15992TIP3    H269468   4.636   3.077  12.598  0.9566 -0.4338  0.9834
15993TIP3   OH269469   0.202   6.109   0.373 -0.5353  0.6098  0.2743
15993TIP3    H169470   0.189   6.017   0.394 -1.2800  0.5767 -0.2861
15993TIP3    H269471   0.197   6.113   0.278  0.4133  1.0993  0.2382
15994TIP3   OH269472   0.988   3.808   4.526 -0.0355  0.1639 -0.1510
15994TIP3    H169473   0.972   3.727   4.574  0.4541  0.5427  0.6760
15994TIP3    H269474   1.065   3.790   4.472  2.0966  0.9888  2.3882
15995TIP3   OH269475   0.383   2.356   4.423  0.2951  0.6213 -0.0589
15995TIP3    H169476   0.455   2.317   4.375 -1.1748 -2.0076 -0.3604
15995TIP3    H269477   0.336   2.409   4.359  0.8943  0.8108 -0.3427
15996TIP3   OH269478   6.623   4.845  14.243 -0.3271 -0.0805  0.7503
15996TIP3    H169479   6.603   4.916  14.304 -0.0768  0.2534  0.4489
15996TIP3    H269480   6.604   4.766  14.292 -1.3490  0.2028  0.8255
15997TIP3   OH269481   0.554   1.756  11.824  0.0516 -0.0637  0.1396
15997TIP3    H169482   0.592   1.675  11.857  0.7796  0.8035  1.4997
15997TIP3    H269483   0.622   1.794  11.768  0.1895  0.2130  0.4932
15998TIP3   OH269484   6.106   1.590   5.823  0.3201  0.1797 -0.3668
15998TIP3    H169485   6.153   1.515   5.784  0.4396 -0.3154  0.6854
15998TIP3    H269486   6.156   1.666   5.794  3.0671 -0.4185  2.2684
15999TIP3   OH269487   6.473   3.904  14.670  0.3397  0.2584 -0.3889
15999TIP3    H169488   6.565   3.893  14.648  0.4580 -0.4514  0.4149
15999TIP3    H269489   6.427   3.894  14.587  0.9818  0.7261 -0.8141
16000TIP3   OH269490   0.002   5.260  14.950 -0.4194  0.4076 -0.2602
16000TIP3    H169491  -0.050   5.291  14.875 -0.8240 -0.2854 -0.2753
16000TIP3    H269492  -0.054   5.195  14.993 -0.4618  1.2521  1.0298
16001TIP3   OH269493   4.304   5.600   3.861 -0.2475  0.0396 -0.2127
16001TIP3    H169494   4.361   5.676   3.870  1.2870 -0.8053 -1.8944
16001TIP3    H269495   4.236   5.611   3.927  0.0173  2.7509 -0.3103
16002TIP3   OH269496   0.069   1.413   4.327  0.4265 -0.4508 -0.0526
16002TIP3    H169497   0.141   1.384   4.383  1.0951 -0.6700 -1.0067
16002TIP3    H269498   0.105   1.413   4.238 -0.6650 -0.3006 -0.5190
16003TIP3   OH269499   2.312   3.778   1.218 -0.1713 -0.4829  0.2609
16003TIP3    H169500   2.364   3.706   1.254  0.4004 -0.9243 -1.3570
16003TIP3    H269501   2.376   3.837   1.178 -0.7312  0.3275  0.5341
16004TIP3   OH269502   4.176   6.814   4.833 -0.1182  0.3951 -0.1721
16004TIP3    H169503   4.098   6.867   4.851 -1.1883 -0.9897 -0.6121
16004TIP3    H269504   4.204   6.841   4.745  0.5357  1.6275  0.3916
16005TIP3   OH269505   4.987   4.498   0.003  0.0260 -0.6361 -0.8040
16005TIP3    H169506   4.987   4.486   0.098 -0.9901 -0.3162 -0.7518
16005TIP3    H269507   4.926   4.431  -0.030 -1.1345  0.4845 -1.0339
16006TIP3   OH269508   2.801   0.360   4.313 -0.1465  0.2747  0.2963
16006TIP3    H169509   2.870   0.315   4.265 -0.3018 -0.9508  1.1667
16006TIP3    H269510   2.836   0.448   4.330  2.0077 -0.8465  2.2858
16007TIP3   OH269511   3.895   2.083   3.499 -0.1609 -0.3677  0.2501
16007TIP3    H169512   3.879   2.173   3.527  1.0578  0.1043 -0.5101
16007TIP3    H269513   3.884   2.085   3.404  0.3439 -0.9076  0.1729
16008TIP3   OH269514   4.115   3.488  13.262  0.0617 -0.2194  0.4528
16008TIP3    H169515   4.097   3.505  13.169 -1.5013  0.0349  0.7715
16008TIP3    H269516   4.122   3.575  13.301 -1.6160 -0.2746  0.9566
16009TIP3   OH269517   0.971   6.271  15.281 -0.1887 -0.3712  0.1987
16009TIP3    H169518   1.052   6.319  15.261 -0.4419  0.6664  1.5452
16009TIP3    H269519   0.901   6.332  15.257 -0.5459 -0.6384  0.5632
16010TIP3   OH269520   5.840   4.939   5.725  0.4486  0.1743  0.5843
16010TIP3    H169521   5.765   4.995   5.704  0.9913  0.0934 -1.8653
16010TIP3    H269522   5.822   4.906   5.813 -1.1899  2.0551  1.0158
16011TIP3   OH269523   4.955   6.506   2.487 -0.2675  0.2280  0.7400
16011TIP3    H169524   4.861   6.520   2.491 -0.4512 -0.5890 -0.2724
16011TIP3    H269525   4.993   6.591   2.509 -1.2919  1.4095 -1.6812
16012TIP3   OH269526   4.639   3.166  14.973 -0.3576  0.4944 -0.6461
16012TIP3    H169527   4.702   3.147  15.043 -0.1555 -1.8376 -1.3816
16012TIP3    H269528   4.633   3.261  14.973  3.9417  0.9832 -1.1946
16013TIP3   OH269529   2.583   6.726  13.012  0.2682  0.4163  0.0489
16013TIP3    H169530   2.656   6.707  12.954  1.2201 -0.4911  1.4883
16013TIP3    H269531   2.545   6.640  13.032 -0.9244  0.8325 -0.3125
16014TIP3   OH269532   4.025   5.347   1.378 -0.1233  0.2947 -0.7422
16014TIP3    H169533   3.938   5.340   1.417 -0.4341  0.1739 -1.4521
16014TIP3    H269534   4.082   5.298   1.437 -0.5695  0.2012 -0.3879
16015TIP3   OH269535   6.118   6.521   0.096  0.4017  0.2921 -0.4403
16015TIP3    H169536   6.213   6.531   0.088  0.6382  0.6288  1.9987
16015TIP3    H269537   6.089   6.603   0.137 -0.6151 -0.6804  0.8555
16016TIP3   OH269538   0.752   3.321   6.164  0.1345  0.4165  0.1950
16016TIP3    H169539   0.748   3.362   6.250  1.7516 -0.9516  0.9933
16016TIP3    H269540   0.846   3.310   6.147 -0.1886 -0.6835 -1.0548
16017TIP3   OH269541   0.806   2.817  12.886  0.3805  0.6153  0.0204
16017TIP3    H169542   0.852   2.822  12.970  0.3235 -0.7963  0.1715
16017TIP3    H269543   0.720   2.856  12.903 -0.2922 -1.1982  1.1520
16018TIP3   OH269544   4.138   0.724   0.422  0.0984  0.5804  0.0052
16018TIP3    H169545   4.052   0.683   0.424 -0.0438  0.8195 -0.7125
16018TIP3    H269546   4.200   0.652   0.422 -0.0927  0.4109  0.7581
16019TIP3   OH269547   4.021   4.217  13.264 -0.0411 -0.3740 -0.3871
16019TIP3    H169548   4.041   4.136  13.217 -0.8222 -0.0017 -1.4014
16019TIP3    H269549   4.095   4.274  13.246  0.5874 -0.8885  0.4563
16020TIP3   OH269550   3.944   3.059  14.774 -0.0215 -0.1888  0.2368
16020TIP3    H169551   3.905   2.991  14.720  0.1780  0.4689 -0.7642
16020TIP3    H269552   3.950   3.136  14.717 -1.8225  1.2283  1.7960
16021TIP3   OH269553   3.018   4.144  12.983 -0.0528 -0.2975 -0.1189
16021TIP3    H169554   3.111   4.137  13.006 -0.3838  0.9339  1.8773
16021TIP3    H269555   2.992   4.055  12.959  0.7522 -1.5241  3.0932
16022TIP3   OH269556   5.958   5.449  16.933  0.0014  0.1792  0.8273
16022TIP3    H169557   6.048   5.417  16.938 -0.6151 -1.7908  0.2733
16022TIP3    H269558   5.919   5.400  16.861 -1.9982 -0.2839  2.1470
16023TIP3   OH269559   0.574   6.110  13.996 -0.0046 -0.1455 -0.0493
16023TIP3    H169560   0.534   6.129  13.911 -1.5662 -1.0024  0.4565
16023TIP3    H269561   0.597   6.196  14.031 -0.5321  0.3098 -0.7860
16024TIP3   OH269562   5.627   3.077  15.208  0.8492  0.1845 -0.4129
16024TIP3    H169563   5.660   3.079  15.118  0.1886  0.5230 -0.6543
16024TIP3    H269564   5.599   2.987  15.222  1.8082 -0.0976 -0.2203
16025TIP3   OH269565   4.739   3.925  14.353 -0.3542 -0.1256 -0.3835
16025TIP3    H169566   4.696   3.842  14.335 -0.7023 -0.2541  0.9240
16025TIP3    H269567   4.678   3.973  14.409  0.8179  0.0082  0.8616
16026TIP3   OH269568   2.505   2.729   2.160 -0.5733  0.2658  0.0926
16026TIP3    H169569   2.459   2.717   2.243 -0.4445 -0.7385  0.0401
16026TIP3    H269570   2.461   2.668   2.100 -1.7135  2.1127 -1.0234
16027TIP3   OH269571   4.929   3.170  11.384  0.2020 -0.1176 -0.3373
16027TIP3    H169572   4.893   3.258  11.396  0.2738  0.0792 -1.4367
16027TIP3    H269573   4.908   3.124  11.465  0.9899  1.1834  0.6564
16028TIP3   OH269574   2.474   0.842   5.514 -0.3816 -0.0405 -0.2934
16028TIP3    H169575   2.387   0.880   5.513 -0.3048  0.4704  2.7260
16028TIP3    H269576   2.483   0.804   5.602  2.6268  0.4797 -0.2554
16029TIP3   OH269577   5.270   2.250   4.298  0.2581 -0.0834 -0.0761
16029TIP3    H169578   5.181   2.269   4.328  0.0428 -0.2659 -0.5931
16029TIP3    H269579   5.266   2.160   4.266  0.7544 -0.2711  0.3689
16030TIP3   OH269580   6.635   1.735  16.698  0.5007 -0.5220  0.1914
16030TIP3    H169581   6.596   1.745  16.785  2.0318  1.6498  0.7056
16030TIP3    H269582   6.716   1.686  16.715  0.1027 -1.3660 -0.2646
16031TIP3   OH269583   3.072   3.918   2.228 -0.3036  0.0440  0.3770
16031TIP3    H169584   3.050   3.967   2.149 -0.4837  0.5208  0.7139
16031TIP3    H269585   2.993   3.867   2.248 -0.4286  0.2861  0.5101
16032TIP3   OH269586   6.712   3.236  15.095  0.4753  0.1004 -0.5515
16032TIP3    H169587   6.751   3.149  15.099  1.1060  0.4239  0.4693
16032TIP3    H269588   6.633   3.224  15.041 -1.0227 -1.7056  1.8642
16033TIP3   OH269589   4.084   5.426   2.157 -0.4328 -0.2630  0.0767
16033TIP3    H169590   4.003   5.387   2.188 -2.0863  1.8331 -1.3594
16033TIP3    H269591   4.082   5.416   2.062 -1.1197  3.3428 -0.4370
16034TIP3   OH269592   4.092   0.433  14.526 -0.1672  0.2323  0.0096
16034TIP3    H169593   4.081   0.517  14.570  0.4467  0.5268 -0.3768
16034TIP3    H269594   4.094   0.455  14.432 -0.5933 -0.2817 -0.1270
16035TIP3   OH269595   6.733   0.844  15.709  0.0874 -0.1778  0.4485
16035TIP3    H169596   6.638   0.836  15.710  0.1785 -1.7092  1.8062
16035TIP3    H269597   6.757   0.833  15.617 -1.0587  0.8550 -0.0042
16036TIP3   OH269598   0.004   4.679  16.640  0.4697  0.4408  0.2669
16036TIP3    H169599  -0.059   4.607  16.641  2.9538 -1.9116 -0.5353
16036TIP3    H269600   0.035   4.685  16.730  0.3968  0.3785  0.2957
16037TIP3   OH269601   2.934   1.856   1.058 -0.1341  0.3780  0.0179
16037TIP3    H169602   2.910   1.944   1.087  2.4002  1.0926  0.1407
16037TIP3    H269603   2.950   1.808   1.140 -0.2076  0.2083 -0.0677
16038TIP3   OH269604   2.247   6.142   0.528 -0.5745  0.3941  0.3206
16038TIP3    H169605   2.217   6.192   0.451 -1.7650 -1.0180 -0.1780
16038TIP3    H269606   2.179   6.157   0.594 -1.1636 -0.8511  0.0262
16039TIP3   OH269607   0.403   6.004   5.018 -0.5241 -0.1181 -0.8571
16039TIP3    H169608   0.469   6.067   5.044  1.1494 -1.5353 -1.4868
16039TIP3    H269609   0.371   5.966   5.100 -1.1894  1.1511 -0.5081
16040TIP3   OH269610   2.084   5.602  13.903  0.3531 -0.3812  0.0205
16040TIP3    H169611   2.090   5.519  13.857  1.6043 -0.4131  0.2018
16040TIP3    H269612   2.166   5.608  13.953 -0.3290  0.3123  1.1047
16041TIP3   OH269613   0.821   6.710  15.406 -0.4029  0.2046 -0.0441
16041TIP3    H169614   0.781   6.694  15.321  2.4215 -2.2495 -1.0904
16041TIP3    H269615   0.810   6.628  15.454  0.0837  0.7584  1.0559
16042TIP3   OH269616   4.653   2.341  13.589 -0.0475 -0.8322 -0.1253
16042TIP3    H169617   4.703   2.306  13.515 -0.9783 -0.5000 -0.9536
16042TIP3    H269618   4.717   2.391  13.640  0.3875  0.0731 -1.4736
16043TIP3   OH269619   1.244   3.777   4.405 -0.4155 -0.6549  0.2413
16043TIP3    H169620   1.304   3.758   4.477 -1.1025  0.3383  1.1023
16043TIP3    H269621   1.295   3.757   4.326  1.3777  0.9675  0.9073
16044TIP3   OH269622   2.322   2.797  15.412  0.4220 -0.7408  0.1064
16044TIP3    H169623   2.371   2.880  15.409  1.2022 -1.2143 -1.0002
16044TIP3    H269624   2.262   2.807  15.486  2.2735 -0.1749  1.6178
16045TIP3   OH269625   2.940   5.628  10.622  0.5496  0.1386  0.8191
16045TIP3    H169626   2.967   5.690  10.554 -0.8272 -0.7982 -0.6463
16045TIP3    H269627   2.845   5.621  10.612  0.5516 -1.4331  1.6111
16046TIP3   OH269628   0.848   2.227  14.763  0.1910  0.2676 -0.0303
16046TIP3    H169629   0.907   2.292  14.726 -0.3397  0.1331 -1.1676
16046TIP3    H269630   0.882   2.143  14.731 -0.6152  0.1939 -0.7339
16047TIP3   OH269631   2.482   1.942  12.676 -0.0439  0.2726 -0.2997
16047TIP3    H169632   2.550   2.009  12.678 -0.7066  0.9385  0.7710
16047TIP3    H269633   2.417   1.972  12.739  0.0626 -1.8204  0.8997
16048TIP3   OH269634   1.548   5.461   1.245  0.3988  0.1821  0.1928
16048TIP3    H169635   1.502   5.447   1.328 -1.2435 -0.6521 -0.8080
16048TIP3    H269636   1.493   5.525   1.199  1.6023  1.0781 -0.0383
16049TIP3   OH269637   1.291   0.083  14.617 -0.2914 -0.0057 -0.6392
16049TIP3    H169638   1.361   0.073  14.552  0.0986 -0.1775 -0.1986
16049TIP3    H269639   1.289   0.177  14.635  1.7002 -0.2651  1.3568
16050TIP3   OH269640   6.025   4.701  14.766 -1.0683  0.1643  0.1252
16050TIP3    H169641   6.054   4.792  14.771  0.6422 -0.3166 -0.1791
16050TIP3    H269642   6.070   4.658  14.839 -2.1672 -0.3790  0.5076
16051TIP3   OH269643   3.965   0.716   5.717 -0.5767  0.5642  0.5502
16051TIP3    H169644   3.991   0.768   5.641  1.9522 -1.2290  0.0512
16051TIP3    H269645   4.023   0.746   5.788 -0.5405 -0.1218  0.8186
16052TIP3   OH269646   3.053   5.821   5.158  0.1075  0.4237 -0.0792
16052TIP3    H169647   2.998   5.745   5.175 -1.5195  0.5961 -3.7286
16052TIP3    H269648   3.142   5.788   5.161 -0.3232 -0.7056  2.1989
16053TIP3   OH269649   2.639   4.469   0.683 -1.0182 -0.0916 -0.4270
16053TIP3    H169650   2.556   4.489   0.726 -1.7967 -1.2936 -1.3214
16053TIP3    H269651   2.634   4.513   0.598 -0.3788  0.4901 -0.1815
16054TIP3   OH269652   2.292   3.938   5.997 -0.4906  0.5609 -0.1331
16054TIP3    H169653   2.340   3.909   6.075  2.0123  1.4794 -1.2230
16054TIP3    H269654   2.202   3.909   6.012  0.3302 -1.1110  2.1465
16055TIP3   OH269655   5.155   4.395  11.220 -0.6395  0.2768 -0.1730
16055TIP3    H169656   5.113   4.312  11.196  1.3173 -1.5581  2.1903
16055TIP3    H269657   5.245   4.386  11.190 -0.2024  1.2010  0.8097
16056TIP3   OH269658   6.505   1.375  15.889  0.6443  0.0532  0.3901
16056TIP3    H169659   6.418   1.413  15.895  0.2383 -0.4548 -1.6137
16056TIP3    H269660   6.544   1.415  15.812  1.5870 -0.9089  0.3401
16057TIP3   OH269661   6.805   2.432  11.616  0.2183  0.1154 -0.3036
16057TIP3    H169662   6.729   2.437  11.559  0.4591  0.3582 -0.6085
16057TIP3    H269663   6.863   2.368  11.574  1.5981  2.2265 -1.8170
16058TIP3   OH269664   2.017   5.872   4.129 -0.2433  0.2893 -0.0106
16058TIP3    H169665   1.957   5.799   4.110 -1.5018  1.8299 -2.3042
16058TIP3    H269666   2.102   5.843   4.094 -0.7000 -0.1439 -0.7891
16059TIP3   OH269667   1.881   3.140   0.703  0.4194 -0.0109  0.6355
16059TIP3    H169668   1.820   3.213   0.706 -0.9422 -1.0083 -0.9235
16059TIP3    H269669   1.829   3.063   0.724  0.6118 -1.1183 -2.3378
16060TIP3   OH269670   1.602   5.025  14.735 -0.8678  0.4397  0.2313
16060TIP3    H169671   1.684   4.992  14.700 -1.8809  1.2354 -3.3714
16060TIP3    H269672   1.621   5.115  14.762 -0.3267  0.2548  0.4642
16061TIP3   OH269673   6.268   1.631   0.654 -0.1195  0.4918  0.0067
16061TIP3    H169674   6.186   1.670   0.684  0.7027  2.5142 -0.2090
16061TIP3    H269675   6.244   1.584   0.574 -0.9639  1.6369 -0.4442
16062TIP3   OH269676   1.411   1.025   4.221  0.5370 -0.3906 -0.1230
16062TIP3    H169677   1.392   1.013   4.128  0.9114 -0.8749 -0.1424
16062TIP3    H269678   1.442   1.116   4.228  2.5575 -0.9682 -0.8442
16063TIP3   OH269679   1.693   3.337  15.569  0.3370  0.2364  0.3161
16063TIP3    H169680   1.648   3.417  15.597  1.4187  0.4775  1.4381
16063TIP3    H269681   1.729   3.359  15.483  0.2897  0.8175  0.4425
16064TIP3   OH269682   0.832   6.641   4.612  0.1177  0.5140  0.2615
16064TIP3    H169683   0.900   6.633   4.679  0.5815 -1.4044 -0.3672
16064TIP3    H269684   0.849   6.568   4.553 -1.5786  0.9153 -0.7734
16065TIP3   OH269685   3.919   0.874  13.837 -0.1672  1.2241 -0.0403
16065TIP3    H169686   3.857   0.831  13.779  0.7096  0.2976 -0.3182
16065TIP3    H269687   3.884   0.962  13.848 -1.5249  0.7266 -0.1831
16066TIP3   OH269688   2.044   3.451   1.412  0.1418 -0.0796 -0.1951
16066TIP3    H169689   2.054   3.473   1.320 -1.7123 -1.0254 -0.6866
16066TIP3    H269690   1.949   3.437   1.423  0.6223 -3.1699  1.0483
16067TIP3   OH269691   0.543   6.347   2.051  0.2888  0.2102 -0.3466
16067TIP3    H169692   0.495   6.298   2.118 -1.0842  0.5137 -1.0731
16067TIP3    H269693   0.555   6.285   1.979  1.6165 -0.0653  0.0765
16068TIP3   OH269694   2.524   3.542  10.584 -0.0462 -0.4637  0.7128
16068TIP3    H169695   2.491   3.462  10.542 -1.5349 -0.8835  2.5599
16068TIP3    H269696   2.520   3.608  10.515  0.4146 -1.7684 -0.6204
16069TIP3   OH269697   2.351   0.806  15.234  0.4329 -0.8015  0.1049
16069TIP3    H169698   2.302   0.723  15.231 -0.1464 -0.4373 -1.5605
16069TIP3    H269699   2.294   0.868  15.189  1.0985  0.4022  0.8822
16070TIP3   OH269700   1.439   3.185  15.604  0.0975  0.1313 -0.4905
16070TIP3    H169701   1.408   3.117  15.664 -0.6464  0.8797 -0.0137
16070TIP3    H269702   1.533   3.193  15.623 -0.1129  0.2931  0.4963
16071TIP3   OH269703   2.005   3.502  11.999  0.1296 -0.9618  0.0430
16071TIP3    H169704   2.065   3.497  11.925  0.9672  0.4381  0.5893
16071TIP3    H269705   2.030   3.429  12.055  1.5606 -0.2218  0.4031
16072TIP3   OH269706   2.406   4.225   2.169 -0.8804  0.4563  0.3616
16072TIP3    H169707   2.499   4.243   2.180 -0.8116  0.1377  0.3154
16072TIP3    H269708   2.398   4.193   2.079 -0.9819  0.1501  0.4786
16073TIP3   OH269709   6.237   5.205   4.653  0.1705  0.0808  0.1137
16073TIP3    H169710   6.210   5.206   4.745 -0.4017 -0.5499 -0.0361
16073TIP3    H269711   6.330   5.226   4.655  0.0877  0.4168  0.8081
16074TIP3   OH269712   6.609   3.047  13.602 -0.0986 -0.8721  0.5199
16074TIP3    H169713   6.628   2.955  13.620  0.2955 -1.5415 -2.6095
16074TIP3    H269714   6.513   3.053  13.609  0.0063 -1.0458  2.4624
16075TIP3   OH269715   0.520   3.482  16.024 -0.1803  0.2467  1.0755
16075TIP3    H169716   0.498   3.550  15.961  0.2125  0.9163  1.6438
16075TIP3    H269717   0.448   3.484  16.087 -1.5021 -1.6389 -0.2754
16076TIP3   OH269718   3.883   6.627   4.066 -0.4169  0.6348 -0.0385
16076TIP3    H169719   3.919   6.660   4.148  0.7922  0.9362 -0.6620
16076TIP3    H269720   3.788   6.634   4.076 -0.3623 -0.7988  1.9182
16077TIP3   OH269721   2.551   6.589  15.110  0.4363  0.0188 -0.4936
16077TIP3    H169722   2.639   6.613  15.079 -0.1093 -0.4646 -2.5614
16077TIP3    H269723   2.567   6.526  15.181  1.7512  0.4978 -0.3338
16078TIP3   OH269724   0.835   6.001  15.063 -0.6506 -0.5868 -0.5100
16078TIP3    H169725   0.819   5.907  15.064  0.7426 -0.8375 -0.0212
16078TIP3    H269726   0.857   6.023  15.153 -0.2915  0.0809 -0.7560
16079TIP3   OH269727   2.992   6.444   1.800  0.3294 -0.1824  0.1009
16079TIP3    H169728   2.970   6.514   1.739 -1.0901 -1.4979 -0.9658
16079TIP3    H269729   3.047   6.487   1.866 -1.0573  2.0890 -0.1030
16080TIP3   OH269730   4.028   5.726   2.470  0.4677 -0.2781 -0.0228
16080TIP3    H169731   4.014   5.818   2.449  0.6347 -0.5618 -1.5203
16080TIP3    H269732   4.099   5.698   2.412  2.8673 -0.5269  2.7742
16081TIP3   OH269733   1.552   4.831   0.209 -0.3084  0.2829  0.2712
16081TIP3    H169734   1.570   4.764   0.274  0.8877 -0.0689 -0.3979
16081TIP3    H269735   1.485   4.791   0.152  0.2176 -0.2613  0.0215
16082TIP3   OH269736   5.235   3.316  13.108  0.5566 -0.1310  0.0297
16082TIP3    H169737   5.198   3.298  13.194 -1.1199 -0.2164 -0.6631
16082TIP3    H269738   5.303   3.249  13.096 -0.1747 -1.0221  0.7053
16083TIP3   OH269739   4.261   4.377  13.005 -0.3582 -0.4395  0.0927
16083TIP3    H169740   4.270   4.472  13.010  0.3185 -0.5479  1.3290
16083TIP3    H269741   4.200   4.363  12.933  1.0412  0.8502 -1.4466
16084TIP3   OH269742   5.783   1.398   1.053 -0.3562 -0.5059 -0.1555
16084TIP3    H169743   5.857   1.394   1.114  0.6142  1.1190 -1.1421
16084TIP3    H269744   5.708   1.422   1.107  0.4732  0.8438  0.4571
16085TIP3   OH269745   4.714   5.392   4.157 -0.2504  0.7342 -0.5997
16085TIP3    H169746   4.669   5.379   4.241  1.2279  0.4800  0.1945
16085TIP3    H269747   4.780   5.322   4.154  0.5183  1.4594 -1.4074
16086TIP3   OH269748   5.022   0.737  14.948  0.1735  0.0790  0.1994
16086TIP3    H169749   5.117   0.738  14.937  0.4848 -1.9249  1.9558
16086TIP3    H269750   5.008   0.788  15.028 -0.4211  1.6579 -0.8839
16087TIP3   OH269751   5.524   6.038  12.792  0.4739  0.3383  1.2706
16087TIP3    H169752   5.603   6.038  12.847  0.5519 -1.3631  1.2167
16087TIP3    H269753   5.499   5.946  12.787 -0.2964  0.6035 -0.4705
16088TIP3   OH269754   2.395   2.853   5.159 -0.2683 -0.2583 -0.0193
16088TIP3    H169755   2.299   2.850   5.165 -0.2383  1.1462  1.8576
16088TIP3    H269756   2.423   2.767   5.192 -0.8378  0.0039  1.1878
16089TIP3   OH269757   6.761   1.542  15.120  0.5632 -0.1881 -1.0020
16089TIP3    H169758   6.749   1.540  15.215  0.8918 -0.4677 -0.9671
16089TIP3    H269759   6.696   1.606  15.090 -2.1677 -2.6915 -0.9733
16090TIP3   OH269760   2.617   0.261   2.852 -0.5100 -0.1256  0.0450
16090TIP3    H169761   2.678   0.188   2.864 -0.3613  0.1138  0.7879
16090TIP3    H269762   2.646   0.304   2.771 -0.8578 -1.1303 -0.6369
16091TIP3   OH269763   4.397   1.146   3.458 -0.2571 -0.1145  0.2484
16091TIP3    H169764   4.441   1.106   3.384 -0.2015  0.1263  0.1508
16091TIP3    H269765   4.463   1.205   3.496 -1.0736  1.7239 -1.0446
16092TIP3   OH269766   1.398   3.948  12.949  0.0904 -0.3595 -0.1504
16092TIP3    H169767   1.377   4.021  12.890 -2.0624 -0.6681  0.1334
16092TIP3    H269768   1.395   3.987  13.036  0.9229 -0.3992 -0.0954
16093TIP3   OH269769   6.814   3.508   3.281 -0.0385 -0.1500 -0.0496
16093TIP3    H169770   6.907   3.487   3.282 -0.3687 -1.7468  0.3745
16093TIP3    H269771   6.803   3.563   3.204  1.1424 -0.5027 -0.4947
16094TIP3   OH269772   3.688   3.443   0.415  0.1422 -0.4876  0.5185
16094TIP3    H169773   3.622   3.417   0.351  0.1640 -0.1431  0.3540
16094TIP3    H269774   3.715   3.530   0.388  0.1220 -0.3209  1.0201
16095TIP3   OH269775   1.506   3.718  12.189  0.3438 -0.0474 -0.3260
16095TIP3    H169776   1.558   3.640  12.168  1.2139  0.4802 -0.1857
16095TIP3    H269777   1.525   3.735  12.282  0.0659  0.2646 -0.3243
16096TIP3   OH269778   2.070   4.815   2.501 -0.0575  0.4094  0.2799
16096TIP3    H169779   2.064   4.910   2.512  2.0836  0.5392  0.7483
16096TIP3    H269780   2.139   4.802   2.435 -0.8361 -0.8201 -0.3429
16097TIP3   OH269781   0.315   3.813  13.602 -0.1598  0.4504 -0.0405
16097TIP3    H169782   0.280   3.754  13.669  0.6928  0.2998  0.2861
16097TIP3    H269783   0.379   3.866  13.649  0.2238  0.5503 -0.6752
16098TIP3   OH269784   2.087   5.533   6.179 -0.3848 -0.0616 -0.0575
16098TIP3    H169785   2.019   5.528   6.246  0.1117 -0.9475  0.4018
16098TIP3    H269786   2.169   5.525   6.228 -0.0256 -1.4494 -0.8147
16099TIP3   OH269787   6.176   5.968  11.485 -0.1149 -0.5936  0.1591
16099TIP3    H169788   6.256   5.955  11.536 -0.1811 -1.2339  0.1156
16099TIP3    H269789   6.207   5.987  11.396  0.0016  0.5882  0.4337
16100TIP3   OH269790   0.205   5.728  13.768 -0.5356 -0.2802  0.2640
16100TIP3    H169791   0.216   5.730  13.863 -0.4028 -0.8358  0.2690
16100TIP3    H269792   0.137   5.793  13.750  1.5816  2.1165  0.3901
16101TIP3   OH269793   3.494   5.912  16.720 -0.5182 -0.1914 -0.0345
16101TIP3    H169794   3.415   5.881  16.676 -1.0245  1.7744 -0.6143
16101TIP3    H269795   3.562   5.908  16.653 -0.5169 -0.3348 -0.0243
16102TIP3   OH269796   2.902   4.910  14.626 -0.7569  0.4607 -0.2619
16102TIP3    H169797   2.855   4.827  14.618  0.5226 -0.3672  0.5468
16102TIP3    H269798   2.919   4.936  14.535  1.9685 -2.0600 -0.6556
16103TIP3   OH269799   2.651   3.463  12.659  0.2319 -0.2241 -0.7270
16103TIP3    H169800   2.599   3.431  12.585  0.1017  0.1782 -0.8089
16103TIP3    H269801   2.590   3.467  12.732  0.8486 -2.8476  0.0361
16104TIP3   OH269802   2.456   6.434  12.312 -0.7095  0.0053  0.6213
16104TIP3    H169803   2.472   6.342  12.291 -2.1337 -0.0463 -0.3605
16104TIP3    H269804   2.495   6.446  12.399 -0.1162 -1.4007  0.5663
16105TIP3   OH269805   6.467   4.635   1.888 -0.8032  0.1399 -0.2942
16105TIP3    H169806   6.466   4.618   1.794 -0.6884  1.3060 -0.5188
16105TIP3    H269807   6.516   4.561   1.925 -0.3468 -0.0346 -1.2088
16106TIP3   OH269808   5.107   5.466  11.383 -0.3611  0.0930  0.6087
16106TIP3    H169809   5.066   5.462  11.296  0.3498 -0.3101  0.2838
16106TIP3    H269810   5.196   5.498  11.366  0.1723 -1.0816  1.0314
16107TIP3   OH269811   2.547   5.056  16.297  0.5942  0.2853 -0.3363
16107TIP3    H169812   2.614   5.081  16.362 -0.7222 -1.4976  1.8405
16107TIP3    H269813   2.479   5.123  16.307 -0.4427 -0.9516  1.5680
16108TIP3   OH269814   3.975   5.948   0.693  0.5344  0.6146 -0.5355
16108TIP3    H169815   4.037   5.877   0.678  1.0431  1.0962 -0.7403
16108TIP3    H269816   3.998   6.014   0.628 -0.2361  0.7779 -0.6555
16109TIP3   OH269817   2.459   1.710  12.817  0.4256  0.6667 -0.0468
16109TIP3    H169818   2.366   1.693  12.833  0.6827  0.7074  1.7912
16109TIP3    H269819   2.460   1.782  12.754 -0.7357 -0.7101 -1.7148
16110TIP3   OH269820   0.014   5.030   2.499  0.3085  0.2298 -0.3056
16110TIP3    H169821   0.028   5.124   2.490  0.6189  0.1708 -0.4463
16110TIP3    H269822  -0.037   5.006   2.421 -2.1370  0.7442  1.0382
16111TIP3   OH269823   6.182   0.129  11.886 -0.3088 -0.0994  0.2112
16111TIP3    H169824   6.120   0.187  11.842 -0.3172  1.0157  1.6078
16111TIP3    H269825   6.268   0.155  11.854 -0.4661 -1.2813 -1.3134
16112TIP3   OH269826   4.335   3.254   0.474  0.0660 -0.3916 -0.2547
16112TIP3    H169827   4.251   3.296   0.455  1.0321  1.4727 -0.6934
16112TIP3    H269828   4.398   3.326   0.468  1.8904 -2.0125 -1.4406
16113TIP3   OH269829   3.101   1.672  14.894 -0.5254  0.5114 -0.1188
16113TIP3    H169830   3.089   1.767  14.889  0.8413  0.6678 -1.0453
16113TIP3    H269831   3.195   1.661  14.907 -0.7942 -0.7160  1.0206
16114TIP3   OH269832   6.038   1.092   4.011  0.1481  0.0181  0.4856
16114TIP3    H169833   5.962   1.149   3.998 -0.1342 -0.0870  1.5713
16114TIP3    H269834   6.005   1.004   3.994  0.2021  0.0314  0.3052
16115TIP3   OH269835   5.866   0.081  13.061  0.0883 -0.2113  0.5817
16115TIP3    H169836   5.838   0.110  13.148 -0.2731 -0.6125  0.6044
16115TIP3    H269837   5.961   0.073  13.067  0.0399 -0.4538  1.0088
16116TIP3   OH269838   2.950   4.031   5.256  0.2527 -0.2793 -0.1240
16116TIP3    H169839   2.900   4.074   5.326  0.4892 -1.2143  0.6568
16116TIP3    H269840   2.946   3.938   5.279  2.9012 -0.3556  0.3606
16117TIP3   OH269841   6.374   5.166  14.241 -0.1705 -0.4576  0.1493
16117TIP3    H169842   6.451   5.183  14.294 -1.9747 -1.3233  3.3301
16117TIP3    H269843   6.392   5.084  14.196  1.6498  0.6182 -1.2167
16118TIP3   OH269844   2.085   5.699  14.196 -0.4352  0.1613 -0.1166
16118TIP3    H169845   2.111   5.647  14.272 -0.0981 -0.7261 -0.8202
16118TIP3    H269846   2.133   5.661  14.123 -1.4755  0.3836 -0.9490
16119TIP3   OH269847   2.182   6.404  11.574  0.1808  0.1039  0.0380
16119TIP3    H169848   2.185   6.450  11.658 -1.7460 -1.2683  0.9219
16119TIP3    H269849   2.240   6.329  11.586 -0.1701 -0.1461  0.2028
16120TIP3   OH269850   6.408   6.355  10.194  0.0085  0.1115 -0.2824
16120TIP3    H169851   6.401   6.329  10.286 -0.7804  3.7413  0.8534
16120TIP3    H269852   6.330   6.318  10.153  0.0111 -0.9788  0.6681
16121TIP3   OH269853   1.636   1.080   4.693  0.1150  0.1591 -0.5113
16121TIP3    H169854   1.644   0.988   4.719 -0.5726  0.4119  0.6752
16121TIP3    H269855   1.564   1.081   4.630  0.1474 -0.1255 -0.5532
16122TIP3   OH269856   6.779   1.404   5.342  0.0873 -0.2268  0.2557
16122TIP3    H169857   6.830   1.409   5.422 -0.7936  0.4508  0.7941
16122TIP3    H269858   6.709   1.468   5.353 -1.0296 -1.2763 -0.3472
16123TIP3   OH269859   5.177   0.388   1.225 -0.1269 -0.1643 -0.2821
16123TIP3    H169860   5.150   0.466   1.176 -0.2048  0.4203  0.6392
16123TIP3    H269861   5.219   0.424   1.304  0.8640 -1.0719 -0.3932
16124TIP3   OH269862   6.467   4.669  11.522  0.2670  0.3618 -0.0353
16124TIP3    H169863   6.557   4.681  11.492  0.4285  2.2979  1.0426
16124TIP3    H269864   6.415   4.666  11.442  1.2615 -0.8428 -0.6770
16125TIP3   OH269865   5.982   0.318  12.945 -0.4313 -0.6331 -0.2344
16125TIP3    H169866   5.904   0.263  12.952 -1.7128  1.0178 -0.9156
16125TIP3    H269867   6.048   0.262  12.905 -1.7442 -1.6357 -1.0723
16126TIP3   OH269868   6.404   6.561   4.436  0.3377 -0.2145  0.3529
16126TIP3    H169869   6.489   6.599   4.414  0.0226  0.5243  0.3669
16126TIP3    H269870   6.403   6.477   4.391  2.5277 -1.9591  3.2725
16127TIP3   OH269871   3.146   2.621  16.129  0.5097 -0.5876  0.2306
16127TIP3    H169872   3.056   2.645  16.109  0.9374  1.4874  0.6085
16127TIP3    H269873   3.150   2.624  16.225  0.4632 -2.8699  0.3744
16128TIP3   OH269874   1.050   6.406  13.135  0.0753  0.8576  0.0605
16128TIP3    H169875   0.999   6.417  13.055  0.6131  2.9362 -0.0489
16128TIP3    H269876   0.997   6.448  13.203  1.5492  3.0832 -0.0623
16129TIP3   OH269877   2.682   0.378   1.232  0.0617 -0.0768 -0.0503
16129TIP3    H169878   2.712   0.413   1.316  0.8767 -1.6584  0.3441
16129TIP3    H269879   2.586   0.381   1.237  0.0346 -1.9789  1.7762
16130TIP3   OH269880   6.560   2.097   6.304  0.1432 -0.2410  0.0981
16130TIP3    H169881   6.558   2.187   6.272 -1.3002 -0.0079  0.7779
16130TIP3    H269882   6.611   2.049   6.238  0.0980  0.8683 -0.7736
16131TIP3   OH269883   0.924   6.601  16.264 -0.2478  0.3893  0.0087
16131TIP3    H169884   0.946   6.608  16.357 -0.6902 -0.6497  0.1972
16131TIP3    H269885   0.833   6.629  16.258  0.2787  2.1327 -0.3868
16132TIP3   OH269886   3.581   0.297   1.346 -0.1779  0.2466  0.7817
16132TIP3    H169887   3.676   0.294   1.350 -0.1674 -3.0701  0.9788
16132TIP3    H269888   3.553   0.283   1.437 -0.8030 -0.3597  0.5058
16133TIP3   OH269889   2.088   1.470  13.285  0.5405  0.1477 -0.0193
16133TIP3    H169890   2.137   1.399  13.327 -0.4564 -0.4139  0.2017
16133TIP3    H269891   2.025   1.426  13.228  2.4400  0.8551 -2.9152
16134TIP3   OH269892   3.052   2.931   4.381 -0.0700  0.1420  0.0708
16134TIP3    H169893   3.128   2.885   4.345 -0.3700 -0.3922  0.1070
16134TIP3    H269894   3.083   2.970   4.462  0.6733  1.5212 -0.8395
16135TIP3   OH269895   4.782   2.031   2.350  0.0225 -0.8131 -0.1300
16135TIP3    H169896   4.732   2.072   2.420 -0.2703 -1.7279  0.2188
16135TIP3    H269897   4.719   2.019   2.279  0.2186 -0.2538 -0.3991
16136TIP3   OH269898   2.985   3.771   4.194  0.2792 -0.0825  0.2548
16136TIP3    H169899   2.968   3.815   4.111  0.4577  1.7422  1.1285
16136TIP3    H269900   3.080   3.767   4.201  0.3343 -2.7597 -0.8352
16137TIP3   OH269901   3.807   5.921  10.580  0.0805 -0.1438  0.5707
16137TIP3    H169902   3.793   5.874  10.662  0.1829 -0.8522  0.1854
16137TIP3    H269903   3.897   5.952  10.585  0.0647 -0.1242  0.7491
16138TIP3   OH269904   6.685   1.238   1.381 -0.3353 -0.4567 -0.0473
16138TIP3    H169905   6.608   1.232   1.438 -0.3742  2.0634  0.2448
16138TIP3    H269906   6.665   1.309   1.321  2.1671  0.9839  0.7076
16139TIP3   OH269907   4.102   1.156   3.443 -0.6866  0.0256 -0.0036
16139TIP3    H169908   4.021   1.199   3.469  0.0588  1.5856 -0.1152
16139TIP3    H269909   4.171   1.207   3.486  0.2221 -1.5451  0.4695
16140TIP3   OH269910   0.547   3.742   6.214  0.1333 -0.4744 -0.1823
16140TIP3    H169911   0.457   3.726   6.243  0.7216 -3.8113  0.2225
16140TIP3    H269912   0.598   3.747   6.294  0.5064  0.0411 -0.4445
16141TIP3   OH269913   0.216   1.175   6.527 -0.4728 -0.7430  0.4597
16141TIP3    H169914   0.253   1.241   6.468  0.5604 -1.7181 -0.0252
16141TIP3    H269915   0.194   1.223   6.607  0.2346  0.1802  0.1137
16142TIP3   OH269916   1.582   1.586   4.386 -0.5997 -0.5394 -0.2296
16142TIP3    H169917   1.638   1.508   4.386  1.2800  0.7370  0.7224
16142TIP3    H269918   1.581   1.614   4.478 -3.0436 -0.6365 -0.1701
16143TIP3   OH269919   0.485   5.128  15.069  0.9056  0.3570 -0.1308
16143TIP3    H169920   0.478   5.033  15.066 -1.4972  0.4492  0.2719
16143TIP3    H269921   0.535   5.152  14.991  0.1267 -1.1519 -1.1265
16144TIP3   OH269922   5.229   2.986   0.265 -0.3732 -0.0633  0.0852
16144TIP3    H169923   5.212   2.896   0.293 -0.7310  0.5587  2.0105
16144TIP3    H269924   5.142   3.024   0.253 -0.2662  0.5244  1.0554
16145TIP3   OH269925   6.672   1.724   1.893 -0.1938  0.2445  0.1818
16145TIP3    H169926   6.728   1.706   1.968  0.8474  0.4796 -0.5060
16145TIP3    H269927   6.679   1.819   1.880  0.5920  0.0586 -0.9055
16146TIP3   OH269928   2.330   2.723   0.477 -0.4314  0.3282  0.4519
16146TIP3    H169929   2.374   2.766   0.550 -0.4576  1.4633 -0.1935
16146TIP3    H269930   2.252   2.684   0.517  0.9803 -1.5526  1.5712
16147TIP3   OH269931   4.269   4.155   4.388 -0.5747 -0.1282  0.4259
16147TIP3    H169932   4.360   4.146   4.362  0.3095  1.4777  2.7105
16147TIP3    H269933   4.259   4.096   4.463 -1.3246  0.0170  0.4535
16148TIP3   OH269934   5.527   2.514  17.280 -0.1368 -0.0708  0.1436
16148TIP3    H169935   5.478   2.506  17.199  0.2921 -1.5135  0.0147
16148TIP3    H269936   5.558   2.426  17.300 -0.2800  0.2281  1.9117
16149TIP3   OH269937   3.148   5.699  16.362 -0.1003 -0.3362 -0.7450
16149TIP3    H169938   3.117   5.773  16.310 -0.2557 -0.3237 -0.6367
16149TIP3    H269939   3.077   5.635  16.359 -0.4822  0.0253  0.1742
16150TIP3   OH269940   5.477   3.057  14.193 -0.1626  0.1797 -0.1247
16150TIP3    H169941   5.433   2.973  14.203 -1.6695  0.8912 -0.5788
16150TIP3    H269942   5.410   3.123  14.215  1.0325  1.2675  0.4295
16151TIP3   OH269943   5.424   1.952   5.587 -0.0524 -0.1017  0.7427
16151TIP3    H169944   5.450   2.038   5.552 -0.7289 -0.3505 -0.4415
16151TIP3    H269945   5.334   1.941   5.557  0.2087 -1.4558  0.4061
16152TIP3   OH269946   5.820   4.852   0.169 -0.0280  0.2737 -0.2073
16152TIP3    H169947   5.755   4.918   0.193 -0.8978 -0.0630 -1.5316
16152TIP3    H269948   5.798   4.776   0.224 -0.4327  0.3449 -0.2653
16153TIP3   OH269949   2.796   3.514   3.518  0.2364  0.0988  0.3437
16153TIP3    H169950   2.851   3.449   3.474  1.6493  1.0939  0.5601
16153TIP3    H269951   2.834   3.599   3.492 -1.1188  0.8242  0.6293
16154TIP3   OH269952   4.763   3.899   1.214 -0.4758  0.9653 -0.2615
16154TIP3    H169953   4.734   3.821   1.167 -0.3427  1.6090 -1.4369
16154TIP3    H269954   4.732   3.972   1.162  0.1011  1.6993  0.3995
16155TIP3   OH269955   1.871   4.428  15.771 -0.4134 -0.4279 -0.1541
16155TIP3    H169956   1.905   4.457  15.687  0.0716  0.2923  0.2875
16155TIP3    H269957   1.879   4.503  15.829  0.3820 -1.2633  0.8656
16156TIP3   OH269958   2.959   2.800  12.251  0.0122 -0.4553 -0.4802
16156TIP3    H169959   2.887   2.738  12.265 -0.7820  0.6372  0.4849
16156TIP3    H269960   3.016   2.787  12.327  1.7926 -2.4792 -2.0326
16157TIP3   OH269961   0.926   1.465  16.384  0.1973  0.1113 -0.3224
16157TIP3    H169962   0.927   1.523  16.461  0.6601 -0.9749  0.5243
16157TIP3    H269963   0.835   1.437  16.376 -0.0618  1.0361 -0.8289
16158TIP3   OH269964   4.034   0.412  12.025  0.1255 -0.1487 -0.2831
16158TIP3    H169965   4.038   0.460  11.943 -0.0122 -0.7906 -0.6741
16158TIP3    H269966   4.052   0.477  12.092 -1.4111  0.7381 -0.6844
16159TIP3   OH269967   4.409   2.408  11.281 -0.0645 -0.0007  0.1444
16159TIP3    H169968   4.351   2.422  11.206 -0.5845 -1.6178  0.2015
16159TIP3    H269969   4.497   2.410  11.244 -0.1764  1.4913 -0.1062
16160TIP3   OH269970   0.202   5.120   4.955  0.4032  0.1537 -0.6330
16160TIP3    H169971   0.165   5.033   4.940  1.1885 -0.2594 -0.2224
16160TIP3    H269972   0.162   5.175   4.887 -0.4930 -0.4014 -0.5724
16161TIP3   OH269973   6.235   2.495   4.306 -0.1526 -0.4007  0.2479
16161TIP3    H169974   6.162   2.555   4.324  0.1063  0.1620 -0.5345
16161TIP3    H269975   6.250   2.450   4.390 -1.3239 -0.4584  0.4529
16162TIP3   OH269976   3.108   0.909  15.660  0.0361  0.1546 -0.5709
16162TIP3    H169977   3.094   0.816  15.639 -2.1845  0.5553 -1.1990
16162TIP3    H269978   3.193   0.929  15.623 -0.1424 -1.2583 -1.8947
16163TIP3   OH269979   0.757   6.621   1.184 -0.1770 -0.1366  0.5348
16163TIP3    H169980   0.713   6.652   1.105 -0.8535 -3.8393 -0.7682
16163TIP3    H269981   0.690   6.621   1.251 -0.3940  0.3457  0.3188
16164TIP3   OH269982   4.872   2.580   3.280 -0.1320  0.0016  0.4339
16164TIP3    H169983   4.922   2.502   3.304  0.8165  0.9629  1.7450
16164TIP3    H269984   4.933   2.653   3.292 -1.5982  1.1510  1.2855
16165TIP3   OH269985   0.217   0.432  13.831  0.1999 -0.0675 -0.2136
16165TIP3    H169986   0.209   0.504  13.768  0.5139  0.8029  0.7006
16165TIP3    H269987   0.129   0.397  13.839 -0.8157  2.5779  1.9566
16166TIP3   OH269988   1.707   5.244   1.251  0.2826  0.5946  0.0547
16166TIP3    H169989   1.644   5.316   1.253 -1.0865 -0.5587 -0.1185
16166TIP3    H269990   1.655   5.167   1.227  1.8469 -0.3187 -0.5328
16167TIP3   OH269991   2.366   1.267  12.834 -0.2175 -0.0930 -0.4689
16167TIP3    H169992   2.357   1.264  12.930  0.5583  0.0879 -0.3809
16167TIP3    H269993   2.416   1.189  12.812  1.3560  0.8800 -0.4943
16168TIP3   OH269994   0.887   3.897   5.174  0.1365 -0.1151 -0.1648
16168TIP3    H169995   0.831   3.929   5.104  1.1166 -1.6217 -1.7362
16168TIP3    H269996   0.934   3.974   5.205 -1.0984  0.7599 -0.3833
16169TIP3   OH269997   0.372   3.402   3.630  0.1971  0.0460 -0.1719
16169TIP3    H169998   0.395   3.478   3.577  0.3518  0.5054  0.5577
16169TIP3    H269999   0.279   3.387   3.610 -0.0382  0.8872  0.2427
16170TIP3   OH270000   5.487   6.769   2.129 -0.0852  0.0217  0.1349
16170TIP3    H170001   5.567   6.737   2.087  0.2415  0.9798  0.0033
16170TIP3    H270002   5.509   6.772   2.222  0.7134  2.0670 -0.0638
16171TIP3   OH270003   3.210   5.020  11.663 -0.4813  0.3696 -0.5160
16171TIP3    H170004   3.136   5.080  11.652 -1.4357 -0.6974 -0.1282
16171TIP3    H270005   3.245   5.009  11.574 -0.3955  1.3747 -0.6098
16172TIP3   OH270006   4.366   1.458   5.106  0.7307  0.1350  0.2218
16172TIP3    H170007   4.288   1.482   5.056  1.9573 -0.8115 -2.3420
16172TIP3    H270008   4.425   1.420   5.041  2.0204 -2.3469  2.6182
16173TIP3   OH270009   4.456   4.890  10.905 -0.1727  0.1382 -0.4196
16173TIP3    H170010   4.526   4.900  10.841  0.7750 -0.1846  0.5383
16173TIP3    H270011   4.375   4.893  10.853  0.4382  2.1780 -1.3777
16174TIP3   OH270012   0.561   1.525  12.735 -0.9584 -0.2444 -0.0661
16174TIP3    H170013   0.524   1.456  12.679 -1.3967 -0.5428  0.5828
16174TIP3    H270014   0.555   1.604  12.681  2.4716 -1.1623 -2.0903
16175TIP3   OH270015   1.984   4.466   3.236  0.4429  0.6227 -0.2957
16175TIP3    H170016   2.076   4.476   3.261  0.1544  2.9144  0.0430
16175TIP3    H270017   1.985   4.469   3.140  1.1442 -4.4514 -0.7382
16176TIP3   OH270018   4.877   2.775  11.521  0.1856 -0.0115 -0.5899
16176TIP3    H170019   4.783   2.784  11.537  0.5295 -0.8143  2.5474
16176TIP3    H270020   4.914   2.860  11.547  0.4584 -0.1895 -0.3870
16177TIP3   OH270021   1.070   0.664   5.976  0.7807 -0.3127  0.1919
16177TIP3    H170022   1.056   0.593   5.914 -1.5440  0.4041 -0.2068
16177TIP3    H270023   1.007   0.647   6.046 -1.9477  2.7259 -1.2571
16178TIP3   OH270024   4.642   6.414   2.744 -0.2086  0.3361 -0.0351
16178TIP3    H170025   4.703   6.483   2.769  0.6133 -1.0325  2.0119
16178TIP3    H270026   4.565   6.430   2.800 -0.8496  0.7436 -1.0083
16179TIP3   OH270027   1.048   1.136  12.697 -0.0733  0.1769  0.2325
16179TIP3    H170028   1.072   1.098  12.782  1.9186  1.0584  0.1161
16179TIP3    H270029   0.998   1.215  12.719  0.5676  0.4840  0.5983
16180TIP3   OH270030   4.887   4.049  16.905  0.3435  0.4367  0.2901
16180TIP3    H170031   4.829   4.061  16.980 -2.2937 -0.8355 -1.4207
16180TIP3    H270032   4.834   4.072  16.829  1.7017 -1.7878 -1.4742
16181TIP3   OH270033   0.932   6.020   0.592 -0.8001  0.0322  0.0691
16181TIP3    H170034   0.944   5.934   0.633 -0.0513  0.2887  0.4008
16181TIP3    H270035   0.979   6.013   0.509  1.9006  1.0615  1.3987
16182TIP3   OH270036   5.928   0.849  14.123  0.3361  0.1910  0.2993
16182TIP3    H170037   5.924   0.925  14.181  0.9767  0.4436  0.0247
16182TIP3    H270038   6.019   0.821  14.127  0.0647 -0.6976  0.5569
16183TIP3   OH270039   4.472   2.128  13.932 -0.7115  0.3138  0.1861
16183TIP3    H170040   4.394   2.098  13.886  0.3126  0.0590 -1.4704
16183TIP3    H270041   4.545   2.086  13.886  0.5378  2.3782  0.1568
16184TIP3   OH270042   1.395   4.596   3.236  0.0524 -0.0318 -0.4402
16184TIP3    H170043   1.431   4.536   3.301 -0.9898 -0.0303  0.1667
16184TIP3    H270044   1.345   4.540   3.177 -2.4695  0.3370  1.1776
16185TIP3   OH270045   1.485   0.049  11.072 -0.5548 -0.2882  0.2871
16185TIP3    H170046   1.549   0.021  11.007  0.1614  0.8856  0.4522
16185TIP3    H270047   1.522   0.130  11.109 -1.3447 -0.4749  1.5533
16186TIP3   OH270048   5.615   2.482  15.237 -0.0254  0.3827 -0.1404
16186TIP3    H170049   5.674   2.557  15.237 -0.2556  0.5667 -0.2680
16186TIP3    H270050   5.666   2.411  15.199 -0.9859  1.4660 -3.9231
16187TIP3   OH270051   3.307   0.708  13.177 -0.1743  0.6865  0.5150
16187TIP3    H170052   3.265   0.637  13.128  2.9705  0.0979 -1.6549
16187TIP3    H270053   3.304   0.679  13.268  1.0434 -2.3954 -0.2939
16188TIP3   OH270054   4.676   1.073   2.385 -0.0397 -0.2289  0.6446
16188TIP3    H170055   4.715   1.016   2.319 -0.5277 -1.5445  1.4351
16188TIP3    H270056   4.729   1.152   2.383 -0.6360  0.1859 -1.9792
16189TIP3   OH270057   1.039   3.542  17.050  0.1262 -0.2310 -0.2125
16189TIP3    H170058   1.017   3.635  17.049 -2.7371 -0.7439  2.2354
16189TIP3    H270059   1.113   3.535  17.111  0.6349  0.4553 -0.7394
16190TIP3   OH270060   0.568   5.574  14.232  0.4139  0.1027 -0.1772
16190TIP3    H170061   0.653   5.572  14.188  0.4366 -1.1033 -0.1237
16190TIP3    H270062   0.589   5.581  14.325  0.4850 -0.5736 -0.1339
16191TIP3   OH270063   4.635   5.992  15.446  0.0925 -0.6342 -0.4493
16191TIP3    H170064   4.558   5.983  15.502 -0.3852  1.9936 -0.5521
16191TIP3    H270065   4.683   6.066  15.483  0.9604 -0.2864 -2.1786
16192TIP3   OH270066   0.377   4.722   3.529 -0.1889  0.2847 -0.0494
16192TIP3    H170067   0.293   4.751   3.564 -0.3786 -0.9844  0.6156
16192TIP3    H270068   0.440   4.786   3.561 -0.7470  0.6145  0.3953
16193TIP3   OH270069   5.600   4.910  10.774  0.9498  0.2611  0.1792
16193TIP3    H170070   5.519   4.911  10.724  0.3577 -2.0124  0.9800
16193TIP3    H270071   5.581   4.961  10.852 -0.3614 -1.6746  1.1985
16194TIP3   OH270072   2.112   1.942   5.443  0.2761  0.3619 -0.0481
16194TIP3    H170073   2.031   1.907   5.479  0.1594  1.4915  0.8472
16194TIP3    H270074   2.173   1.945   5.517  0.7889  0.5041 -0.4690
16195TIP3   OH270075   1.493   6.412  11.969 -0.0806  0.1414 -0.3170
16195TIP3    H170076   1.525   6.363  11.894  1.7684  0.0756  0.4573
16195TIP3    H270077   1.399   6.422  11.954  0.1906 -0.1793 -2.4286
16196TIP3   OH270078   3.971   0.995   2.912  0.7237  0.3133 -0.1825
16196TIP3    H170079   4.067   0.989   2.917  0.8787  1.8689 -0.8692
16196TIP3    H270080   3.943   1.006   3.002  0.9637 -2.3520  0.3200
16197TIP3   OH270081   4.876   4.983   3.483 -0.3129  0.8680 -0.0049
16197TIP3    H170082   4.805   5.047   3.488 -1.3196 -0.2949  1.4547
16197TIP3    H270083   4.901   4.967   3.574  0.9148  0.2700 -0.4269
16198TIP3   OH270084   6.253   1.178   6.938  0.2409 -0.0338  0.0772
16198TIP3    H170085   6.307   1.115   6.890  1.4310  0.1498  1.1203
16198TIP3    H270086   6.178   1.194   6.880  1.2358 -0.3833 -1.3744
16199TIP3   OH270087   0.355   0.209  11.925  0.3849  0.3328  0.2930
16199TIP3    H170088   0.269   0.189  11.890 -0.0738  1.6244  0.6293
16199TIP3    H270089   0.399   0.124  11.932 -0.3721 -0.1933 -1.1066
16200TIP3   OH270090   4.189   4.353  15.314  0.3154 -0.0541 -0.0977
16200TIP3    H170091   4.262   4.341  15.374  0.1952 -1.3198 -0.1757
16200TIP3    H270092   4.119   4.300  15.351  0.7673 -2.2592 -2.2028
16201TIP3   OH270093   5.465   1.164  10.773 -0.1709  0.1583 -0.0448
16201TIP3    H170094   5.399   1.221  10.733 -0.0348 -1.1215 -2.2829
16201TIP3    H270095   5.435   1.075  10.754  2.0248 -0.4648 -0.9046
16202TIP3   OH270096   6.222   6.271   2.446 -0.1952  0.1372 -0.2605
16202TIP3    H170097   6.304   6.313   2.469  0.7274 -0.9049 -1.5118
16202TIP3    H270098   6.216   6.278   2.351 -1.5414  0.1573 -0.2019
16203TIP3   OH270099   0.270   5.579   2.111 -0.2658 -0.0081  0.1363
16203TIP3    H170100   0.349   5.588   2.058 -1.1182  0.6739 -1.0687
16203TIP3    H270101   0.260   5.485   2.125  1.4818 -0.0410  1.4946
16204TIP3   OH270102   3.593   3.264   0.909  0.4785  0.0629  0.2140
16204TIP3    H170103   3.635   3.320   0.974  1.0612 -1.6742  1.4182
16204TIP3    H270104   3.583   3.320   0.832  0.4528  1.9736  1.5266
16205TIP3   OH270105   3.212   1.486  16.735  0.0152 -0.4570  0.5021
16205TIP3    H170106   3.217   1.426  16.810  0.6244 -0.9642  0.0655
16205TIP3    H270107   3.295   1.474  16.689  2.5974  4.3759  3.0912
16206TIP3   OH270108   2.298   6.544   4.309  0.4453 -0.4227 -0.7412
16206TIP3    H170109   2.378   6.560   4.359 -0.0777 -1.2282  0.3901
16206TIP3    H270110   2.230   6.594   4.355 -0.0594 -1.2476 -0.5609
16207TIP3   OH270111   0.904   1.322  17.011 -0.0338  0.5932  0.2214
16207TIP3    H170112   0.852   1.396  17.042 -0.1359  0.5615  0.1234
16207TIP3    H270113   0.910   1.334  16.917  0.8469  1.0580  0.3289
16208TIP3   OH270114   0.978   0.561   5.371 -0.2793 -0.4923  0.3814
16208TIP3    H170115   0.906   0.549   5.309 -0.5272 -0.0999  0.5870
16208TIP3    H270116   0.982   0.480   5.420 -1.4572 -0.0357  1.2754
16209TIP3   OH270117   4.797   6.584  12.951 -0.9297  0.0289 -0.0525
16209TIP3    H170118   4.752   6.617  13.029 -0.4997  0.3853  0.0496
16209TIP3    H270119   4.834   6.500  12.978 -0.4963  0.3069  0.2344
16210TIP3   OH270120   3.668   4.904   0.654 -0.4207 -0.3550 -0.0225
16210TIP3    H170121   3.741   4.909   0.592 -1.2313 -1.9108 -1.1792
16210TIP3    H270122   3.693   4.834   0.714  0.0759  0.7199  1.0437
16211TIP3   OH270123   0.912   5.060  16.335 -0.5812 -0.4462  0.0690
16211TIP3    H170124   0.983   5.051  16.397 -0.6127 -0.0595  0.1605
16211TIP3    H270125   0.885   4.970  16.316 -0.6625 -0.5611  0.7141
16212TIP3   OH270126   5.507   1.289  11.069  0.1084 -0.4475 -0.9187
16212TIP3    H170127   5.457   1.219  11.026 -0.8177  0.3028 -1.0910
16212TIP3    H270128   5.595   1.251  11.082 -0.8809 -2.3581  0.8056
16213TIP3   OH270129   2.199   6.788   2.046  0.2095  0.0432  0.2260
16213TIP3    H170130   2.208   6.855   2.114 -0.5629 -0.0236  0.4008
16213TIP3    H270131   2.117   6.809   2.002 -1.3614 -2.1673  1.8632
16214TIP3   OH270132   6.404   5.290   0.916  0.0165 -0.5086 -0.0878
16214TIP3    H170133   6.465   5.286   0.842  0.6422 -1.0164  0.4430
16214TIP3    H270134   6.461   5.286   0.993 -0.5662  0.7490  0.4330
16215TIP3   OH270135   5.730   5.425   5.795  0.7049  0.5858 -0.2456
16215TIP3    H170136   5.741   5.461   5.883 -0.1523  0.5689 -0.1263
16215TIP3    H270137   5.808   5.370   5.783  0.0538 -0.7312  1.1574
16216TIP3   OH270138   2.700   2.722   1.779 -0.7537 -0.2274 -0.4215
16216TIP3    H170139   2.756   2.645   1.778 -0.8893 -0.3506  0.7167
16216TIP3    H270140   2.736   2.778   1.848 -1.8581 -0.1863  0.1480
16217TIP3   OH270141   5.552   4.912  16.405  0.2766  0.1681  0.9058
16217TIP3    H170142   5.496   4.850  16.358  1.8348 -0.3016 -0.4324
16217TIP3    H270143   5.556   4.877  16.494 -0.3800 -0.5904  0.6533
16218TIP3   OH270144   5.589   4.881  12.116  0.0927 -0.3349  0.1004
16218TIP3    H170145   5.553   4.834  12.190 -1.0890  1.1890  0.5447
16218TIP3    H270146   5.639   4.953  12.155 -1.6841  1.3233 -0.5008
16219TIP3   OH270147   3.199   0.714  15.427 -0.0962  0.0961  0.0253
16219TIP3    H170148   3.174   0.675  15.511 -0.6970  1.2181  0.3861
16219TIP3    H270149   3.268   0.656  15.394  0.2207 -0.3242  1.3338
16220TIP3   OH270150   6.072   3.456   6.166 -0.2917  0.9771  0.5630
16220TIP3    H170151   6.021   3.393   6.217 -0.2051 -0.9531 -1.6039
16220TIP3    H270152   6.161   3.449   6.201 -0.4465  0.4771  0.8708
16221TIP3   OH270153   0.450   5.507   0.739  0.6072  0.1992  0.1454
16221TIP3    H170154   0.540   5.536   0.748  0.9702  0.0962 -2.4076
16221TIP3    H270155   0.402   5.585   0.709  0.2770 -0.2330 -0.4778
16222TIP3   OH270156   1.128   0.137  13.106  0.4018  0.4696  0.4964
16222TIP3    H170157   1.171   0.059  13.141 -0.9460  0.4183  2.1534
16222TIP3    H270158   1.111   0.191  13.183 -0.9820  1.2362 -0.3078
16223TIP3   OH270159   0.487   3.859  16.171  0.5507  0.8358  0.7676
16223TIP3    H170160   0.430   3.876  16.247 -0.9097 -2.8321  0.6990
16223TIP3    H270161   0.563   3.813  16.208  0.8725  0.9581  0.2609
16224TIP3   OH270162   6.025   2.385  17.180  0.5387  0.3545  0.4264
16224TIP3    H170163   6.093   2.444  17.214  0.9451 -0.5316  1.2086
16224TIP3    H270164   5.944   2.436  17.184  0.7599  0.6203  1.7575
16225TIP3   OH270165   0.887   6.414   0.220 -0.5535 -0.9518  0.1984
16225TIP3    H170166   0.886   6.368   0.136  0.0240 -0.9036  0.1668
16225TIP3    H270167   0.877   6.345   0.285 -1.2774 -0.9656  0.0886
16226TIP3   OH270168   3.536   4.383   1.757  0.0163 -0.2176 -0.5287
16226TIP3    H170169   3.563   4.473   1.740  0.0384  0.0483  0.8276
16226TIP3    H270170   3.446   4.390   1.789 -0.7646 -0.8797 -2.3929
16227TIP3   OH270171   3.935   3.079  12.262  0.5347  0.6744 -0.0239
16227TIP3    H170172   3.989   3.117  12.331  0.0444  0.3742  0.5398
16227TIP3    H270173   3.998   3.041  12.200  1.0134 -1.9486  1.8897
16228TIP3   OH270174   1.114   4.364   5.223  0.1134  0.6413 -0.0143
16228TIP3    H170175   1.156   4.395   5.143  0.9093  1.8503  0.8531
16228TIP3    H270176   1.024   4.395   5.216  0.6222  2.2689  0.3362
16229TIP3   OH270177   6.424   1.984   4.302  0.1964 -0.2573  0.5421
16229TIP3    H170178   6.518   1.989   4.287  0.0637 -0.4278 -0.4285
16229TIP3    H270179   6.413   2.003   4.395  1.1840 -0.2094  0.6569
16230TIP3   OH270180   6.810   2.643  10.907 -0.2589  0.3368 -0.7906
16230TIP3    H170181   6.827   2.687  10.990 -0.8373 -0.5754 -0.1806
16230TIP3    H270182   6.795   2.715  10.845 -1.6345  1.0343  0.2800
16231TIP3   OH270183   4.031   3.686  11.424 -0.2775 -0.7389  0.0457
16231TIP3    H170184   4.076   3.730  11.352  1.6997  0.2770  1.7891
16231TIP3    H270185   3.967   3.749  11.456 -0.6806 -0.9339 -0.3603
16232TIP3   OH270186   2.848   2.843   3.392  0.1055  0.1875 -0.2680
16232TIP3    H170187   2.816   2.831   3.481 -0.9603  1.1224 -0.4973
16232TIP3    H270188   2.788   2.793   3.337 -0.4262  1.1683 -0.6142
16233TIP3   OH270189   4.591   3.281   5.081 -0.8360 -0.8868  0.8407
16233TIP3    H170190   4.643   3.361   5.072 -0.2724 -1.3684 -0.3791
16233TIP3    H270191   4.597   3.260   5.175  0.3950 -0.4146  0.8942
16234TIP3   OH270192   0.454   1.129   4.509 -0.3420 -0.4367  0.2860
16234TIP3    H170193   0.434   1.041   4.475 -1.0504 -0.2358  0.1566
16234TIP3    H270194   0.516   1.166   4.447  0.1304 -0.9264  0.4593
16235TIP3   OH270195   1.273   2.507  13.045  0.5716 -0.2801  0.1083
16235TIP3    H170196   1.244   2.444  13.111 -0.4245 -0.7047 -0.7064
16235TIP3    H270197   1.340   2.460  12.995 -0.8464 -1.1019 -1.1177
16236TIP3   OH270198   2.285   3.400  16.164  0.5031 -0.4040  0.0235
16236TIP3    H170199   2.204   3.405  16.114  1.1443  0.8259 -0.9317
16236TIP3    H270200   2.268   3.453  16.242  0.5876  0.4069 -0.4938
16237TIP3   OH270201   1.536   4.270  12.617  0.7398  0.4290 -0.2578
16237TIP3    H170202   1.549   4.365  12.621 -0.5797  0.7363  4.7201
16237TIP3    H270203   1.624   4.233  12.622  1.1942  1.6177  2.0755
16238TIP3   OH270204   3.660   0.210  12.056 -0.3679  0.2476 -0.0190
16238TIP3    H170205   3.691   0.212  11.966  0.5358 -0.6434  0.2476
16238TIP3    H270206   3.610   0.291  12.066 -0.5241  0.3328 -1.3227
16239TIP3   OH270207   0.861   1.058   2.019 -0.1048 -0.4538 -0.4693
16239TIP3    H170208   0.865   1.033   1.927 -1.2161  0.9271 -0.9272
16239TIP3    H270209   0.850   0.975   2.066 -1.1328 -1.0513 -1.7128
16240TIP3   OH270210   4.540   3.880   0.956  1.0795  0.4882  0.2316
16240TIP3    H170211   4.497   3.910   1.036  1.1837 -1.6933  1.2009
16240TIP3    H270212   4.473   3.889   0.888 -0.7224 -1.8473  1.5113
16241TIP3   OH270213   5.912   6.231   0.444  0.3836  0.0184  0.0222
16241TIP3    H170214   5.916   6.327   0.440 -0.6548  0.0891  0.3448
16241TIP3    H270215   6.002   6.204   0.461  0.6025  0.9716  0.4466
16242TIP3   OH270216   4.069   2.841   4.912  0.3859 -0.8110  0.3852
16242TIP3    H170217   4.073   2.850   5.007  0.9997 -0.5593  0.3370
16242TIP3    H270218   3.986   2.883   4.888  0.6044 -0.1696  0.7314
16243TIP3   OH270219   2.559   4.206  11.482 -0.0058  0.4508 -1.1021
16243TIP3    H170220   2.637   4.156  11.459  0.8134  0.9480  0.4753
16243TIP3    H270221   2.504   4.144  11.531  0.1596  0.5609 -0.7740
16244TIP3   OH270222   5.034   3.441  11.925 -0.4217  0.0778  0.7813
16244TIP3    H170223   5.058   3.366  11.980  1.0745  0.8477  1.2187
16244TIP3    H270224   4.996   3.504  11.985 -0.2173  0.2999  0.6796
16245TIP3   OH270225   6.758   2.950   4.836 -0.2904 -0.0092  0.6945
16245TIP3    H170226   6.731   2.878   4.778  0.4553 -1.1380  1.6917
16245TIP3    H270227   6.677   2.981   4.875 -0.8357  0.9077 -1.0607
16246TIP3   OH270228   0.079   4.422  10.901 -0.5566  0.4890 -0.1559
16246TIP3    H170229   0.015   4.395  10.836  0.9292 -0.7459 -1.1630
16246TIP3    H270230   0.142   4.350  10.904  0.0674  1.0591  1.7861
16247TIP3   OH270231   5.627   0.217   6.014  0.0367  0.0881 -0.6483
16247TIP3    H170232   5.696   0.151   6.021 -1.0483 -1.1992 -1.6157
16247TIP3    H270233   5.618   0.233   5.920 -0.7300  0.4925 -0.5157
16248TIP3   OH270234   3.880   0.541  13.470 -0.5315 -0.3361 -0.0374
16248TIP3    H170235   3.885   0.634  13.491 -0.8602 -0.0606 -1.1315
16248TIP3    H270236   3.938   0.499  13.534  0.0567  0.6661  0.1118
16249TIP3   OH270237   3.693   4.515  16.649  0.3608  0.0376  0.4459
16249TIP3    H170238   3.601   4.488  16.647  0.4672 -0.5764  1.9899
16249TIP3    H270239   3.695   4.598  16.602 -0.9231 -0.0988  0.1132
16250TIP3   OH270240   6.343   2.168  16.519  0.2392  0.3200  0.2164
16250TIP3    H170241   6.288   2.246  16.514  0.6119  0.5131 -1.5811
16250TIP3    H270242   6.288   2.103  16.564 -0.6439  1.1526  0.3817
16251TIP3   OH270243   2.792   1.491  12.306  0.0172  0.0243  0.8063
16251TIP3    H170244   2.797   1.403  12.344  0.9703 -0.7507 -0.9759
16251TIP3    H270245   2.701   1.516  12.314 -0.2114 -1.0108  1.6268
16252TIP3   OH270246   3.168   1.230  13.339 -0.2442  0.3562 -0.4684
16252TIP3    H170247   3.209   1.208  13.255 -0.3302 -0.7325 -0.2379
16252TIP3    H270248   3.240   1.261  13.393  0.5630 -2.5736  0.2961
16253TIP3   OH270249   4.948   1.124  13.130  0.3179  0.5106  0.2198
16253TIP3    H170250   4.874   1.109  13.190  1.4848  0.4221  1.6967
16253TIP3    H270251   4.995   1.198  13.168  2.4342 -1.0386  0.8167
16254TIP3   OH270252   2.516   3.821  15.134  0.3464  0.2312  0.7097
16254TIP3    H170253   2.594   3.861  15.172  2.6543  0.3213 -3.5878
16254TIP3    H270254   2.475   3.890  15.083  0.2465 -0.9964 -0.9604
16255TIP3   OH270255   1.499   1.604   1.300  0.6867 -0.3250  0.1143
16255TIP3    H170256   1.446   1.633   1.374  0.0717 -0.9507 -0.0685
16255TIP3    H270257   1.436   1.588   1.230  1.3560  1.3492 -0.9377
16256TIP3   OH270258   2.226   6.212   1.421 -0.4281  0.4147  0.0767
16256TIP3    H170259   2.130   6.223   1.418 -0.6154 -1.1089 -2.4109
16256TIP3    H270260   2.255   6.238   1.334  0.8635 -2.9795 -0.6653
16257TIP3   OH270261   6.272   4.655  13.025  0.5551 -0.0281 -0.0022
16257TIP3    H170262   6.368   4.652  13.028  0.5299 -0.5518  0.4116
16257TIP3    H270263   6.246   4.564  13.017  0.1014  0.1526 -0.6450
16258TIP3   OH270264   1.942   4.651   5.461  0.5932 -0.2310  0.7584
16258TIP3    H170265   1.978   4.731   5.500  1.3101 -0.7993  1.2831
16258TIP3    H270266   1.985   4.580   5.508  0.1987 -0.9302  0.0805
16259TIP3   OH270267   0.653   3.277  15.873  0.3793  0.2096 -0.2255
16259TIP3    H170268   0.582   3.331  15.909  0.7029 -0.0890  0.9234
16259TIP3    H270269   0.678   3.219  15.946  1.2529 -0.2502 -0.8681
16260TIP3   OH270270   2.733   6.207   0.507  0.4449 -0.2630 -0.5529
16260TIP3    H170271   2.655   6.243   0.549  0.5143 -0.9281  0.1678
16260TIP3    H270272   2.713   6.114   0.494  1.0577 -0.4092 -0.4831
16261TIP3   OH270273   4.318   2.624  14.757  0.3201 -0.1737  0.5421
16261TIP3    H170274   4.407   2.637  14.725 -0.2325 -0.2626 -1.1060
16261TIP3    H270275   4.307   2.690  14.825  1.3607  0.4001  0.1721
16262TIP3   OH270276   0.421   4.834   0.519  0.2756  0.4588  0.0308
16262TIP3    H170277   0.470   4.912   0.494  0.9340  0.0429 -0.0060
16262TIP3    H270278   0.387   4.799   0.437 -0.3446  0.9169  0.0895
16263TIP3   OH270279   3.445   0.838  14.389  0.7597 -0.3121 -0.0688
16263TIP3    H170280   3.360   0.804  14.363  0.0723  0.3780  1.1728
16263TIP3    H270281   3.432   0.871  14.478  1.8719  1.4523 -0.5106
16264TIP3   OH270282   2.472   1.798   4.933 -0.0980  0.5018  0.7399
16264TIP3    H170283   2.376   1.800   4.944 -0.1449  0.3781  0.3531
16264TIP3    H270284   2.485   1.784   4.840  0.3059  1.2790  0.6807
16265TIP3   OH270285   3.839   5.651  11.675  0.2446  0.0795 -0.0909
16265TIP3    H170286   3.927   5.685  11.658 -0.4905  1.8461 -0.5686
16265TIP3    H270287   3.852   5.558  11.692  2.0632  0.0367 -1.4488
16266TIP3   OH270288   0.997   5.922   4.704 -0.4461 -0.3293 -0.0220
16266TIP3    H170289   1.053   5.856   4.662  1.3329 -0.2219  2.0139
16266TIP3    H270290   1.058   5.988   4.735 -2.0539  1.4570 -0.5170
16267TIP3   OH270291   1.787   2.376  13.409 -0.1099 -0.0455 -0.3238
16267TIP3    H170292   1.880   2.394  13.393 -0.0037  1.0004  1.2462
16267TIP3    H270293   1.774   2.287  13.377  1.7020 -0.6146  0.3927
16268TIP3   OH270294   2.752   3.464   5.607 -0.0037 -0.2063 -0.7255
16268TIP3    H170295   2.846   3.448   5.599 -0.0925 -1.3245  0.2449
16268TIP3    H270296   2.740   3.496   5.696 -0.4958  0.3618 -0.9882
16269TIP3   OH270297   5.702   1.245   0.559  0.8313 -0.1264  0.0372
16269TIP3    H170298   5.722   1.319   0.502  0.7810  0.2441  0.4869
16269TIP3    H270299   5.742   1.268   0.643  0.0156 -0.1674  0.4546
16270TIP3   OH270300   1.167   6.474  16.909 -0.0049 -0.0781  0.0938
16270TIP3    H170301   1.124   6.558  16.927  0.1608  0.5010 -1.9304
16270TIP3    H270302   1.256   6.485  16.943 -0.4125 -0.0350  1.2133
16271TIP3   OH270303   6.324   5.704   2.079  0.1710  0.3997  0.4641
16271TIP3    H170304   6.333   5.620   2.034  1.7474  0.5820  0.3957
16271TIP3    H270305   6.229   5.716   2.088 -0.0934 -1.4676  0.6357
16272TIP3   OH270306   0.850   5.798   2.007  0.5384  0.1018 -0.2987
16272TIP3    H170307   0.840   5.769   1.916  0.6068  1.1165 -0.6312
16272TIP3    H270308   0.782   5.749   2.054  0.3092 -0.2100 -0.9362
16273TIP3   OH270309   1.429   3.001   2.257 -0.2774  0.1721 -0.7045
16273TIP3    H170310   1.475   2.922   2.286 -2.2513 -1.0848 -0.7645
16273TIP3    H270311   1.483   3.035   2.186  0.6102 -1.1720 -0.7177
16274TIP3   OH270312   0.041   4.884   2.186  0.1405 -0.0211  0.2498
16274TIP3    H170313  -0.015   4.806   2.182 -0.3396  0.3813 -1.9643
16274TIP3    H270314  -0.020   4.956   2.203  0.5354 -0.0275  1.8769
16275TIP3   OH270315   1.273   6.122  11.381 -0.4372 -0.1348  0.1701
16275TIP3    H170316   1.232   6.208  11.368 -0.0880  0.5551  2.8926
16275TIP3    H270317   1.199   6.063  11.397 -0.5878  0.3739  1.5122
16276TIP3   OH270318   4.896   2.261  13.448  0.8203 -0.1616 -0.0808
16276TIP3    H170319   4.966   2.298  13.395 -0.0009 -1.0580 -1.8801
16276TIP3    H270320   4.825   2.243  13.386 -0.0867 -1.5224  1.2645
16277TIP3   OH270321   5.413   5.496   3.730 -0.0486 -0.0536 -0.0893
16277TIP3    H170322   5.393   5.543   3.649  1.6527 -0.0906 -0.5729
16277TIP3    H270323   5.381   5.553   3.799  1.9643  1.9085 -0.6627
16278TIP3   OH270324   6.239   3.460  12.753  0.1906  0.0426 -0.2734
16278TIP3    H170325   6.161   3.435  12.802  0.9618 -0.6748  0.6248
16278TIP3    H270326   6.310   3.453  12.816  1.1627 -0.5585 -1.3965
16279TIP3   OH270327   4.262   0.610  13.170  0.3932  0.0792  0.3751
16279TIP3    H170328   4.256   0.696  13.127 -0.8016 -0.1972 -0.0731
16279TIP3    H270329   4.322   0.560  13.115 -0.1521  0.1331 -0.2915
16280TIP3   OH270330   3.350   6.127   1.052 -0.5201  0.0937  0.2213
16280TIP3    H170331   3.303   6.210   1.056 -1.0019 -0.2032  0.9254
16280TIP3    H270332   3.386   6.124   0.963  1.1280  1.9136  0.7513
16281TIP3   OH270333   0.104   3.901   5.765 -0.7580 -0.3185 -0.3994
16281TIP3    H170334   0.049   3.969   5.803  1.5144  1.2202  0.3471
16281TIP3    H270335   0.191   3.917   5.800  0.4961 -1.8157 -2.5223
16282TIP3   OH270336   3.536   3.589   1.740 -0.0403 -0.2691 -0.2964
16282TIP3    H170337   3.519   3.627   1.654  1.4499  1.0846 -0.0379
16282TIP3    H270338   3.608   3.641   1.776 -0.2210 -1.1819  1.5299
16283TIP3   OH270339   1.724   4.761   2.121  0.0640 -0.0695  0.3646
16283TIP3    H170340   1.740   4.799   2.208  0.6254 -2.5476  1.4258
16283TIP3    H270341   1.655   4.815   2.084  1.4586  2.5520  1.3181
16284TIP3   OH270342   6.108   4.196   1.142  0.1480 -0.0650  0.2156
16284TIP3    H170343   6.193   4.158   1.120  0.5386 -0.2995  1.9936
16284TIP3    H270344   6.058   4.192   1.060  1.5513 -0.7028 -0.6412
16285TIP3   OH270345   0.415   5.531   5.474 -0.7980 -0.6284 -0.0637
16285TIP3    H170346   0.474   5.547   5.548 -0.8365 -1.7323  0.2168
16285TIP3    H270347   0.394   5.618   5.442  1.4481 -0.2072 -0.5483
16286TIP3   OH270348   0.780   2.358  16.797 -0.5558  0.6162 -0.2291
16286TIP3    H170349   0.819   2.287  16.747  0.8843  0.9696  0.3487
16286TIP3    H270350   0.686   2.346  16.786 -0.3025 -0.1579 -1.8151
16287TIP3   OH270351   4.429   3.227  15.663 -0.2311  0.0276  0.1782
16287TIP3    H170352   4.395   3.151  15.615 -1.2804 -0.6571  1.9000
16287TIP3    H270353   4.485   3.188  15.731 -2.3010  0.5735  2.3238
16288TIP3   OH270354   4.784   2.475   4.803  0.3011  0.3471 -0.0753
16288TIP3    H170355   4.876   2.495   4.818  0.5647 -0.1645 -0.9779
16288TIP3    H270356   4.775   2.382   4.824 -0.2997  0.6725  1.2499
16289TIP3   OH270357   4.588   2.103   2.528  0.4197  0.3647  0.2792
16289TIP3    H170358   4.521   2.168   2.504  1.0453  1.0417  0.3162
16289TIP3    H270359   4.549   2.056   2.601 -1.0407 -0.9503 -1.2527
16290TIP3   OH270360   1.882   5.710  15.558 -0.1543 -0.2750 -0.1815
16290TIP3    H170361   1.815   5.687  15.494  0.7729 -0.2764 -1.1943
16290TIP3    H270362   1.942   5.768  15.510  0.2742  0.1603  0.8501
16291TIP3   OH270363   6.739   6.055   4.995 -0.6318 -0.6394  0.3333
16291TIP3    H170364   6.761   6.085   5.083 -1.2040 -2.6319  1.2140
16291TIP3    H270365   6.807   6.094   4.939 -0.0927  0.4411  1.6751
16292TIP3   OH270366   5.209   3.477  11.706  0.1530  0.1500  0.3948
16292TIP3    H170367   5.157   3.442  11.778  0.7180 -0.0084  0.7351
16292TIP3    H270368   5.273   3.535  11.749 -0.6422  1.4726 -0.1384
16293TIP3   OH270369   0.848   4.523   2.023 -0.1412 -0.2699  0.1134
16293TIP3    H170370   0.836   4.590   1.956  0.1570  1.4433  1.6758
16293TIP3    H270371   0.860   4.442   1.974  4.1499  1.4006 -2.1632
16294TIP3   OH270372   3.162   0.277   3.613 -0.1887 -0.5856 -0.6715
16294TIP3    H170373   3.114   0.205   3.572 -2.4213  0.2910  0.2438
16294TIP3    H270374   3.189   0.332   3.540  0.7170 -1.8064 -1.3044
16295TIP3   OH270375   1.463   5.280  16.779 -0.3560  0.1095 -0.0241
16295TIP3    H170376   1.508   5.260  16.697 -0.3352 -0.0478  0.0269
16295TIP3    H270377   1.529   5.322  16.834 -0.1537 -0.5152  0.2127
16296TIP3   OH270378   5.523   5.256  14.319  0.1932  0.3141  0.3058
16296TIP3    H170379   5.448   5.222  14.367  1.6144 -0.5983  2.0101
16296TIP3    H270380   5.584   5.182  14.314  1.6345  1.4459  0.3954
16297TIP3   OH270381   0.974   4.940  17.310 -0.3300 -0.4817  0.1077
16297TIP3    H170382   0.915   4.951  17.385  1.0933 -1.0503  1.3512
16297TIP3    H270383   0.960   4.849  17.282  0.2088 -0.7245  0.6253
16298TIP3   OH270384   6.236   0.500   5.201 -0.5318  0.5316  0.3964
16298TIP3    H170385   6.275   0.580   5.165 -1.3125  0.9687  0.5085
16298TIP3    H270386   6.171   0.474   5.136 -0.5793  0.2266  0.5665
16299TIP3   OH270387   5.466   5.999   0.147 -0.1749 -0.1458 -0.2688
16299TIP3    H170388   5.505   6.014   0.061  1.2498 -0.6340  0.2608
16299TIP3    H270389   5.426   5.912   0.141  3.4154 -2.0472  0.6741
16300TIP3   OH270390   6.031   6.723  12.259  0.4240 -0.5277 -0.1444
16300TIP3    H170391   6.098   6.787  12.284  0.5184 -0.9945  0.8476
16300TIP3    H270392   6.079   6.641  12.248 -0.0435 -0.9892  1.1222
16301TIP3   OH270393   1.898   5.250   4.962 -0.0610 -0.5752 -0.2749
16301TIP3    H170394   1.823   5.215   5.008  0.5699 -2.3763 -0.5441
16301TIP3    H270395   1.864   5.325   4.913 -0.9809  0.6076  2.0748
16302TIP3   OH270396   3.188   1.423  16.233 -0.1057  0.4052  0.2755
16302TIP3    H170397   3.249   1.394  16.166  0.2220 -0.7809  1.0609
16302TIP3    H270398   3.236   1.416  16.315 -1.5033 -1.3948  1.0246
16303TIP3   OH270399   1.580   0.301  14.299 -0.2209  0.4415 -0.2977
16303TIP3    H170400   1.584   0.315  14.205  1.5749 -0.2317 -0.3576
16303TIP3    H270401   1.671   0.294  14.327 -0.6966 -2.9228  0.9028
16304TIP3   OH270402   1.028   1.937   2.989 -0.4767 -0.0884  0.6080
16304TIP3    H170403   1.041   2.012   2.931 -0.0862 -1.0398 -0.5779
16304TIP3    H270404   0.983   1.872   2.935 -2.0090 -0.2397  2.0018
16305TIP3   OH270405   3.010   1.497  14.250 -0.3519 -0.8390 -0.1258
16305TIP3    H170406   3.066   1.563  14.209  0.7382 -1.0879  0.8904
16305TIP3    H270407   2.926   1.506  14.206  0.7182 -1.0500 -2.3423
16306TIP3   OH270408   4.213   2.355  11.457 -0.3764 -0.1577 -0.0794
16306TIP3    H170409   4.253   2.320  11.536  0.8520 -0.2613 -0.7248
16306TIP3    H270410   4.287   2.375  11.399 -1.2135  0.5139 -0.9533
16307TIP3   OH270411   2.141   3.988  11.507 -0.7168 -0.2577  0.3226
16307TIP3    H170412   2.144   4.082  11.524 -1.4682 -0.5199  2.0339
16307TIP3    H270413   2.057   3.959  11.544 -0.1560 -1.7263  0.5077
16308TIP3   OH270414   1.651   3.596   0.408  0.3204 -0.2095  0.3549
16308TIP3    H170415   1.573   3.651   0.407 -1.1569 -2.1621 -0.4861
16308TIP3    H270416   1.724   3.656   0.419 -0.9157  2.2550 -3.3427
16309TIP3   OH270417   4.641   6.694  11.747 -0.0692  0.3507  0.2601
16309TIP3    H170418   4.633   6.601  11.770 -0.1325  0.3957  0.4207
16309TIP3    H270419   4.615   6.740  11.827  1.6276  0.5033  0.7647
16310TIP3   OH270420   4.727   0.752  16.066 -0.0743  0.3299 -0.7876
16310TIP3    H170421   4.777   0.676  16.036  0.0063  0.2906 -0.5520
16310TIP3    H270422   4.742   0.755  16.160 -1.7434 -0.6098 -0.4410
16311TIP3   OH270423   5.807   5.203   4.423 -0.0046 -0.4043 -0.9954
16311TIP3    H170424   5.869   5.203   4.496  1.3672 -0.8820 -2.1349
16311TIP3    H270425   5.756   5.123   4.436 -1.2386  0.5760  0.6044
16312TIP3   OH270426   3.918   2.969   3.528 -0.3744  0.4795  0.3964
16312TIP3    H170427   3.902   2.876   3.518  1.0386  0.2500  0.0231
16312TIP3    H270428   3.865   2.995   3.603 -1.0060 -0.5506  0.3259
16313TIP3   OH270429   2.003   5.082   2.576 -0.5410  0.6350  0.6073
16313TIP3    H170430   1.973   5.137   2.504  1.2919  0.7552 -0.1283
16313TIP3    H270431   2.042   5.143   2.639 -0.4429  0.3750  0.8004
16314TIP3   OH270432   4.208   6.493  13.894  0.5208 -0.0187  0.3422
16314TIP3    H170433   4.130   6.453  13.859  0.3875 -0.5464  1.2070
16314TIP3    H270434   4.252   6.423  13.943  0.4105  0.7958  1.6676
16315TIP3   OH270435   1.102   0.622  11.546  0.6643  0.1373  0.2846
16315TIP3    H170436   1.050   0.695  11.580  2.7118  1.5862  0.5018
16315TIP3    H270437   1.177   0.617  11.605  1.6296 -0.7551 -0.9697
16316TIP3   OH270438   4.108   5.383  16.874  0.1260 -0.2735 -0.0199
16316TIP3    H170439   4.037   5.402  16.936 -0.0472  1.2274 -0.6279
16316TIP3    H270440   4.064   5.364  16.792  0.3918 -0.7462 -0.0540
16317TIP3   OH270441   4.181   4.268  15.047  0.1822 -0.0125  0.3420
16317TIP3    H170442   4.187   4.291  15.140  2.2186 -0.0462  0.2786
16317TIP3    H270443   4.236   4.334  15.004  0.0284 -0.5661 -0.7100
16318TIP3   OH270444   0.352   5.869   5.262 -0.0973  0.5239  0.1091
16318TIP3    H170445   0.294   5.902   5.331  1.1919 -0.1854  1.5800
16318TIP3    H270446   0.427   5.834   5.309 -0.0788 -1.8429 -1.5409
16319TIP3   OH270447   5.183   5.315   4.908 -0.8388 -0.2134  0.7583
16319TIP3    H170448   5.105   5.259   4.914 -1.7045  0.7456 -0.9397
16319TIP3    H270449   5.156   5.397   4.949 -0.4830 -0.0897  0.7488
16320TIP3   OH270450   6.584   0.353  14.245 -0.0152 -0.4218 -0.8879
16320TIP3    H170451   6.604   0.260  14.261 -0.8239 -0.6696 -1.2769
16320TIP3    H270452   6.578   0.391  14.333  2.5737 -0.2045 -0.7101
16321TIP3   OH270453   0.800   3.580  15.484  0.3009 -0.2534 -0.6210
16321TIP3    H170454   0.833   3.653  15.536 -1.1159  0.5649 -0.8142
16321TIP3    H270455   0.873   3.556  15.427  0.7168  1.1972 -0.7468
16322TIP3   OH270456   3.798   3.156  13.229 -0.5955  0.3680  0.4635
16322TIP3    H170457   3.892   3.158  13.243 -0.4874  0.3465 -0.2183
16322TIP3    H270458   3.761   3.205  13.302 -0.2101 -1.3970  1.9023
16323TIP3   OH270459   4.398   6.106  10.863  0.5375 -0.1027  0.3811
16323TIP3    H170460   4.373   6.136  10.775 -0.7970  2.4435  1.5234
16323TIP3    H270461   4.491   6.127  10.870  0.0983  2.0684  0.3963
16324TIP3   OH270462   1.282   0.335   3.281 -0.0839 -0.1351  0.1247
16324TIP3    H170463   1.317   0.332   3.371 -1.6861  1.2323  0.8420
16324TIP3    H270464   1.197   0.379   3.290 -0.6845 -0.7844 -1.9536
16325TIP3   OH270465   3.249   0.757  14.871 -0.2513 -0.2491 -0.2483
16325TIP3    H170466   3.236   0.669  14.834  2.2809 -0.0946 -1.7345
16325TIP3    H270467   3.228   0.816  14.799  1.1111  0.1974 -0.3126
16326TIP3   OH270468   5.521   4.998  13.204  0.1885 -0.0503  0.2957
16326TIP3    H170469   5.602   5.046  13.184 -0.3527  0.7644  0.0210
16326TIP3    H270470   5.495   5.031  13.290 -0.6822  0.8684 -0.2899
16327TIP3   OH270471   2.971   0.356  16.327  0.4439  0.0834  0.4182
16327TIP3    H170472   2.936   0.302  16.398 -0.0869  0.6735  0.6046
16327TIP3    H270473   3.030   0.418  16.370  0.3548  0.2456  0.3063
16328TIP3   OH270474   1.513   1.077  14.312  0.3936  0.1576  0.3493
16328TIP3    H170475   1.609   1.073  14.321  0.4025  0.6595  0.4899
16328TIP3    H270476   1.484   1.127  14.388  0.2494  2.3762 -1.0630
16329TIP3   OH270477   1.958   5.869  16.118  0.4337  0.4107  1.1485
16329TIP3    H170478   1.983   5.875  16.026  1.2381 -0.1624  1.3162
16329TIP3    H270479   2.024   5.812  16.157 -1.2366 -1.2912  1.6059
16330TIP3   OH270480   1.212   6.100   1.199 -0.1363  0.0537  0.6150
16330TIP3    H170481   1.154   6.026   1.217 -0.4225  0.3558  0.9632
16330TIP3    H270482   1.292   6.080   1.249  0.3011 -0.6573 -0.3540
16331TIP3   OH270483   5.216   5.357   1.844  0.9573  0.1906 -0.9353
16331TIP3    H170484   5.278   5.338   1.914 -0.0014  0.0821 -0.0919
16331TIP3    H270485   5.180   5.442   1.866 -1.2140 -0.9274  0.1511
16332TIP3   OH270486   4.134   0.444   5.134  0.0201  0.1000 -0.6373
16332TIP3    H170487   4.130   0.355   5.169 -1.5458  0.4186  0.0812
16332TIP3    H270488   4.146   0.432   5.039  0.4254 -0.8469 -0.4791
16333TIP3   OH270489   1.916   6.754  11.927  0.2419 -0.1501 -0.1173
16333TIP3    H170490   1.829   6.779  11.959  0.4599  0.0640  0.3169
16333TIP3    H270491   1.947   6.829  11.877 -0.2138 -0.5906 -1.0856
16334TIP3   OH270492   2.026   6.350  13.859 -0.2178 -0.4689 -0.3051
16334TIP3    H170493   1.971   6.272  13.870 -0.1221 -0.5763 -0.5908
16334TIP3    H270494   2.004   6.385  13.773 -0.3496 -0.1066 -0.1261
16335TIP3   OH270495   3.738   0.134   1.018 -0.4157  0.6079  0.3171
16335TIP3    H170496   3.808   0.165   0.961 -1.9205 -0.5803 -2.3686
16335TIP3    H270497   3.778   0.065   1.070  0.4126 -0.2329 -1.3509
16336TIP3   OH270498   4.689   0.619   4.761  0.2413  0.2108  0.0526
16336TIP3    H170499   4.703   0.524   4.759  2.0201  0.4324  0.2476
16336TIP3    H270500   4.730   0.651   4.681 -1.1612  0.7567 -0.4832
16337TIP3   OH270501   6.142   6.785  14.565  0.3155 -0.6224  0.5273
16337TIP3    H170502   6.087   6.710  14.543  0.5794 -1.1654  1.6840
16337TIP3    H270503   6.196   6.798  14.487  1.4354 -2.6764  0.8890
16338TIP3   OH270504   1.182   3.123   3.390  0.1528  0.2510 -0.8723
16338TIP3    H170505   1.271   3.103   3.418  0.4697  1.3095 -1.0936
16338TIP3    H270506   1.145   3.038   3.365  0.6744 -0.3701  0.4090
16339TIP3   OH270507   3.278   6.580  11.230 -0.2940 -0.1000  0.5717
16339TIP3    H170508   3.331   6.598  11.153 -0.6542 -0.5216  0.2256
16339TIP3    H270509   3.214   6.651  11.232  0.4510  0.5778  1.1573
16340TIP3   OH270510   0.177   1.019  11.206 -0.5213  0.1472 -0.8373
16340TIP3    H170511   0.086   0.994  11.195 -0.7538  1.3520 -1.8037
16340TIP3    H270512   0.209   1.036  11.118  0.7400 -0.5578 -0.5473
16341TIP3   OH270513   3.172   5.247   0.013 -0.4703  0.3357  0.1352
16341TIP3    H170514   3.208   5.327  -0.024 -0.3901  0.5380  0.6376
16341TIP3    H270515   3.094   5.276   0.061 -0.4948  0.1015  0.2389
16342TIP3   OH270516   0.429   2.348   3.440 -0.4763  0.5058 -0.4589
16342TIP3    H170517   0.409   2.440   3.459  0.8475  0.7792 -0.2699
16342TIP3    H270518   0.344   2.305   3.438 -1.2121  1.8977 -1.4362
16343TIP3   OH270519   0.054   5.928   5.958 -0.1095 -0.0334  0.1493
16343TIP3    H170520   0.053   6.024   5.964 -1.0592  0.0777 -1.2548
16343TIP3    H270521   0.145   5.904   5.977  0.8015  1.3717 -2.0109
16344TIP3   OH270522   0.654   1.745  11.422 -0.5865 -0.4002 -0.5498
16344TIP3    H170523   0.643   1.650  11.425  0.7067 -0.5438  0.9976
16344TIP3    H270524   0.580   1.776  11.369 -0.5640 -2.3125 -1.7917
16345TIP3   OH270525   3.274   1.715  16.269  0.2362 -0.4885 -0.3724
16345TIP3    H170526   3.219   1.708  16.192  0.5191  1.3929 -0.8123
16345TIP3    H270527   3.221   1.682  16.341 -0.5115 -1.0429 -1.1669
16346TIP3   OH270528   2.007   1.251   3.578 -0.0596  0.2072  0.7737
16346TIP3    H170529   2.015   1.156   3.585 -0.2560 -0.0566 -1.6760
16346TIP3    H270530   2.088   1.279   3.536 -1.6104  0.5407 -2.2400
16347TIP3   OH270531   6.025   4.316   3.735 -0.1331  0.3146  0.1144
16347TIP3    H170532   6.111   4.275   3.743 -0.4915 -0.2018  1.6979
16347TIP3    H270533   6.003   4.309   3.642  1.7721  0.9750 -0.4320
16348TIP3   OH270534   3.880   2.164  12.100 -0.0228 -0.1988 -0.1658
16348TIP3    H170535   3.832   2.241  12.069 -1.3469 -0.5810  0.8343
16348TIP3    H270536   3.816   2.093  12.097  0.6643 -0.8756  0.5761
16349TIP3   OH270537   3.903   2.691   3.436  0.5308 -0.1855 -0.2538
16349TIP3    H170538   3.810   2.674   3.425  0.2321  0.1981  1.3480
16349TIP3    H270539   3.941   2.678   3.349 -1.3582  1.8283 -1.4761
16350TIP3   OH270540   0.001   4.098   5.913  0.1408 -0.4454 -0.0275
16350TIP3    H170541   0.017   4.186   5.948 -0.9779 -0.2721  0.0843
16350TIP3    H270542  -0.043   4.051   5.983 -2.2389 -0.0521 -1.1355
16351TIP3   OH270543   3.882   4.560  14.507 -0.2588 -0.1666 -0.3263
16351TIP3    H170544   3.880   4.567  14.602  0.5716  1.0545 -0.3761
16351TIP3    H270545   3.972   4.583  14.483 -0.4017 -0.6685 -1.3888
16352TIP3   OH270546   2.982   0.400   4.935 -0.0114 -0.7858  0.3764
16352TIP3    H170547   3.015   0.455   5.006 -1.2090 -1.6694  1.6724
16352TIP3    H270548   3.032   0.427   4.858 -1.1468  2.7632  0.7051
16353TIP3   OH270549   0.533   1.217   4.747  0.1019 -0.7014 -0.2839
16353TIP3    H170550   0.516   1.310   4.736  0.1654 -0.7509 -0.8135
16353TIP3    H270551   0.485   1.175   4.676  2.4188 -0.8443 -1.8820
16354TIP3   OH270552   5.351   5.304  14.886  0.1336 -0.6551 -0.2949
16354TIP3    H170553   5.291   5.299  14.961 -1.9815 -2.3449 -1.9760
16354TIP3    H270554   5.401   5.223  14.891  2.0966  0.5535  0.8505
16355TIP3   OH270555   0.435   5.372  13.609  0.5609 -0.2972 -0.8385
16355TIP3    H170556   0.343   5.375  13.635  1.3159 -0.8238  2.3677
16355TIP3    H270557   0.451   5.280  13.588  0.8834 -0.7474  1.1750
16356TIP3   OH270558   5.645   5.949  16.439  0.3089 -0.6462 -0.7248
16356TIP3    H170559   5.700   5.875  16.414  1.3988 -0.0895 -0.0561
16356TIP3    H270560   5.561   5.934  16.395  0.7629 -1.8845 -1.1806
16357TIP3   OH270561   3.351   5.475   2.483 -0.4443 -0.1018 -0.5497
16357TIP3    H170562   3.279   5.494   2.543  0.8313  1.2945  0.6454
16357TIP3    H270563   3.409   5.418   2.533 -0.8152 -1.4573 -1.6050
16358TIP3   OH270564   2.729   1.590   1.183 -0.0255 -0.3176 -0.6417
16358TIP3    H170565   2.735   1.671   1.235  2.8188  0.9472 -2.6513
16358TIP3    H270566   2.782   1.527   1.232 -0.2864 -0.2334 -0.2454
16359TIP3   OH270567   4.480   1.732  14.442 -0.3933 -0.2104  0.7022
16359TIP3    H170568   4.427   1.656  14.466 -1.4788  0.6029  0.9622
16359TIP3    H270569   4.534   1.748  14.520  0.4935 -1.2329  0.3190
16360TIP3   OH270570   4.802   6.090   5.853 -0.1770 -0.1989 -0.1201
16360TIP3    H170571   4.882   6.138   5.833  1.0863 -1.3351  1.9238
16360TIP3    H270572   4.732   6.155   5.845  1.0002  1.0012 -1.1811
16361TIP3   OH270573   2.423   5.792   0.907  0.1408 -0.2273 -0.2498
16361TIP3    H170574   2.421   5.827   0.819 -2.6740  0.7535  0.1124
16361TIP3    H270575   2.441   5.867   0.963 -0.9700 -0.2624  0.1833
16362TIP3   OH270576   1.536   2.237   6.928  0.5669  0.1413 -0.7250
16362TIP3    H170577   1.484   2.172   6.882 -0.0753  1.6540 -2.2596
16362TIP3    H270578   1.472   2.303   6.955  1.5003  1.4668 -1.6357
16363TIP3   OH270579   0.392   6.362  10.811 -0.7313  0.5173 -0.0568
16363TIP3    H170580   0.337   6.285  10.802 -0.9241  0.6103  0.3322
16363TIP3    H270581   0.331   6.435  10.819 -0.5731  0.5188  1.3376
16364TIP3   OH270582   3.831   2.511   2.172 -0.3025  0.3582 -0.0821
16364TIP3    H170583   3.834   2.587   2.230  2.1942  0.6150 -0.4436
16364TIP3    H270584   3.788   2.443   2.225  1.0390  0.8597  1.7658
16365TIP3   OH270585   2.715   5.236  13.614 -0.4008  0.0275 -0.4750
16365TIP3    H170586   2.632   5.215  13.655 -0.7712  0.4632 -0.9944
16365TIP3    H270587   2.692   5.286  13.536  0.3794  0.7402 -0.2683
16366TIP3   OH270588   1.941   3.465  16.516  0.4296  0.5129  0.7064
16366TIP3    H170589   2.024   3.484  16.560  0.3776  0.1544  0.9590
16366TIP3    H270590   1.963   3.398  16.452 -0.6436 -4.0304  4.5834
16367TIP3   OH270591   6.569   3.149  16.315 -0.0145  0.3835  0.1476
16367TIP3    H170592   6.663   3.168  16.316 -0.0326  0.4612  0.8870
16367TIP3    H270593   6.539   3.173  16.402 -0.7829  0.6468 -0.1812
16368TIP3   OH270594   0.222   4.346  14.765 -0.1288  0.2257  0.6387
16368TIP3    H170595   0.228   4.260  14.723  1.1272  0.1112  1.0269
16368TIP3    H270596   0.277   4.403  14.711 -2.3040  1.2511 -0.6467
16369TIP3   OH270597   1.789   3.151  15.769 -0.1936 -0.0374  0.2024
16369TIP3    H170598   1.723   3.140  15.838 -0.7623  0.5773 -0.2210
16369TIP3    H270599   1.752   3.219  15.712  1.5696  1.6075  0.8993
16370TIP3   OH270600   3.787   5.748   2.097  0.1134  0.0891 -0.3200
16370TIP3    H170601   3.880   5.767   2.093 -0.0134  0.9240  0.4359
16370TIP3    H270602   3.745   5.833   2.111 -0.9134 -0.0403 -2.3407
16371TIP3   OH270603   3.806   5.347  16.955 -0.3391  0.1416  0.1755
16371TIP3    H170604   3.813   5.251  16.951  1.3827  0.2536 -0.2799
16371TIP3    H270605   3.810   5.368  17.048 -0.2092 -0.2111  0.2508
16372TIP3   OH270606   1.158   0.119  16.827 -0.2095 -0.1996  0.0219
16372TIP3    H170607   1.182   0.082  16.742 -0.9309 -0.4023 -0.0987
16372TIP3    H270608   1.203   0.203  16.830  1.1830 -0.9195  0.1554
16373TIP3   OH270609   6.545   2.255   1.449 -0.3976  0.1032 -0.1981
16373TIP3    H170610   6.537   2.191   1.378 -0.6079 -0.4044  0.2670
16373TIP3    H270611   6.638   2.254   1.471 -0.5342 -0.7547  0.4258
16374TIP3   OH270612   6.750   4.141   5.420 -0.1071  0.5344 -0.4676
16374TIP3    H170613   6.705   4.126   5.504 -1.7501  3.7608 -0.6001
16374TIP3    H270614   6.703   4.087   5.357  1.0187 -1.7795  0.5737
16375TIP3   OH270615   4.550   6.221   0.296 -0.2764  0.2470 -0.2473
16375TIP3    H170616   4.598   6.165   0.357  1.1042  1.1322 -0.4757
16375TIP3    H270617   4.522   6.161   0.226  2.0799 -0.0398 -1.0295
16376TIP3   OH270618   5.378   6.686   6.011 -0.4845  0.3504  0.0991
16376TIP3    H170619   5.330   6.713   5.933 -0.3942  0.6852  0.1607
16376TIP3    H270620   5.416   6.601   5.987 -0.9176  0.1867 -0.0240
16377TIP3   OH270621   5.546   1.059  15.145  0.5940 -0.8903  0.2625
16377TIP3    H170622   5.545   1.131  15.082  1.1835 -2.2939 -1.4394
16377TIP3    H270623   5.594   1.094  15.220 -1.7315  1.4547  0.8173
16378TIP3   OH270624   1.543   6.751  14.785 -0.1055 -0.0356  0.3996
16378TIP3    H170625   1.580   6.663  14.792 -2.2428 -0.9165  1.6890
16378TIP3    H270626   1.565   6.779  14.696  1.1151 -1.6170  0.1479
16379TIP3   OH270627   6.445   3.303   5.505 -0.0216 -0.1984 -0.3646
16379TIP3    H170628   6.403   3.249   5.571  1.2891 -0.5203  0.2392
16379TIP3    H270629   6.388   3.379   5.496 -0.1057 -0.0397  1.3050
16380TIP3   OH270630   1.787   1.303  14.343 -0.3456 -0.4734 -0.0774
16380TIP3    H170631   1.777   1.220  14.296  0.4945  0.1163 -1.3493
16380TIP3    H270632   1.812   1.277  14.432 -2.6181 -1.6334  0.2938
16381TIP3   OH270633   4.234   4.890   3.404 -0.7362 -0.5017 -0.4627
16381TIP3    H170634   4.247   4.808   3.452  2.1960 -0.7303 -1.4463
16381TIP3    H270635   4.264   4.958   3.464 -4.0185  0.0914  0.7088
16382TIP3   OH270636   3.757   0.926   4.091  1.0497  0.0220  0.4546
16382TIP3    H170637   3.837   0.963   4.052  1.0673  0.7725  1.1890
16382TIP3    H270638   3.772   0.930   4.185  1.5072 -2.8651  0.5866
16383TIP3   OH270639   5.929   4.553  10.714  0.5320  0.3554  0.0366
16383TIP3    H170640   6.021   4.563  10.740  0.1685 -1.9111  2.6289
16383TIP3    H270641   5.929   4.478  10.654  0.4545  0.9725 -0.7517
16384TIP3   OH270642   6.527   6.584   3.863 -0.0182 -0.1355 -0.8633
16384TIP3    H170643   6.532   6.677   3.844 -0.4227  0.0781 -0.0071
16384TIP3    H270644   6.520   6.580   3.959  1.4757 -1.1115 -0.7675
16385TIP3   OH270645   3.271   2.308  15.624 -0.7546 -0.3601 -0.3409
16385TIP3    H170646   3.272   2.355  15.708  2.2729 -1.0913  0.1458
16385TIP3    H270647   3.316   2.367  15.563  0.0668 -1.1957 -0.5672
16386TIP3   OH270648   2.629   1.200   7.063  0.1927  0.3812  0.0961
16386TIP3    H170649   2.568   1.156   7.123 -0.2276 -1.3206 -1.4924
16386TIP3    H270650   2.618   1.293   7.082 -2.1704  0.0675  0.5617
16387TIP3   OH270651   0.275   3.461  15.362  0.0755 -0.1947 -0.0718
16387TIP3    H170652   0.246   3.374  15.334  0.7748 -0.3460 -0.3362
16387TIP3    H270653   0.367   3.451  15.384  0.4713  0.7278 -1.2020
16388TIP3   OH270654   6.271   0.651   0.616 -0.2215 -0.5525 -0.6820
16388TIP3    H170655   6.209   0.723   0.605  0.2648  0.1473  0.9214
16388TIP3    H270656   6.217   0.577   0.645 -0.2433  0.3172  1.6718
16389TIP3   OH270657   1.334   6.112   2.619  0.2046  0.0364 -0.7003
16389TIP3    H170658   1.273   6.186   2.629  0.5270  0.2778 -0.5051
16389TIP3    H270659   1.418   6.146   2.650  0.5425 -0.1529 -1.3876
16390TIP3   OH270660   5.790   1.995   2.792  0.6236  0.4660 -0.0568
16390TIP3    H170661   5.694   2.006   2.788  0.6670  0.3420 -2.4441
16390TIP3    H270662   5.810   2.001   2.886 -1.4994  2.4219  0.3660
16391TIP3   OH270663   5.291   4.841  11.998  0.6449  0.1475  0.3407
16391TIP3    H170664   5.386   4.839  12.006  0.6853 -0.0343 -0.1481
16391TIP3    H270665   5.268   4.757  11.959  0.2052 -0.1440  1.1957
16392TIP3   OH270666   2.318   2.343   3.721  0.0642 -0.2788 -0.1479
16392TIP3    H170667   2.255   2.288   3.675  0.2011 -1.2371  0.7814
16392TIP3    H270668   2.374   2.378   3.651 -1.6720  0.8775 -1.0173
16393TIP3   OH270669   2.054   2.442   6.756 -0.5998  0.0298  0.1186
16393TIP3    H170670   2.031   2.450   6.849 -1.7927 -0.0118 -0.1504
16393TIP3    H270671   1.970   2.428   6.712 -0.1422  0.7458 -1.0483
16394TIP3   OH270672   2.287   5.534  12.650  0.2651  0.0970 -0.2594
16394TIP3    H170673   2.288   5.529  12.745  1.0703  1.6277 -0.1416
16394TIP3    H270674   2.367   5.490  12.623 -0.3656 -1.0485 -0.2975
16395TIP3   OH270675   3.634   4.621   5.441  0.1077  0.2637  0.5510
16395TIP3    H170676   3.543   4.651   5.437 -0.3816 -1.1500  0.2554
16395TIP3    H270677   3.645   4.567   5.363  0.2037 -2.1149  2.0930
16396TIP3   OH270678   4.673   4.699  16.715  0.1623  0.1525 -0.7542
16396TIP3    H170679   4.759   4.741  16.721  0.7020 -0.9182  4.5248
16396TIP3    H270680   4.691   4.606  16.726 -1.4579  0.0922  3.6802
16397TIP3   OH270681   6.756   3.728  10.445  0.5482 -0.3982  0.2383
16397TIP3    H170682   6.702   3.804  10.424  0.2802 -0.7547 -0.4103
16397TIP3    H270683   6.753   3.722  10.541 -0.6927 -0.4868  0.2130
16398TIP3   OH270684   4.963   5.591  12.387 -0.1113  0.3789  0.2222
16398TIP3    H170685   5.054   5.615  12.405  0.1303 -1.5446  1.9430
16398TIP3    H270686   4.916   5.674  12.389  1.2316  1.1688  2.0296
16399TIP3   OH270687   3.881   3.175   0.965  0.3871  0.1706  0.7441
16399TIP3    H170688   3.924   3.100   1.006  1.7061  1.1915  1.2698
16399TIP3    H270689   3.852   3.229   1.038 -0.6780  0.1438  0.3672
16400TIP3   OH270690   6.546   5.467   4.071 -0.3228 -0.0924 -0.3777
16400TIP3    H170691   6.575   5.554   4.042  0.1940 -0.2693 -0.3975
16400TIP3    H270692   6.490   5.485   4.147 -1.8011  0.3779 -1.5223
16401TIP3   OH270693   1.722   4.434   3.636 -0.0516  0.3061  1.0369
16401TIP3    H170694   1.706   4.341   3.649  1.6787 -0.1266  0.2651
16401TIP3    H270695   1.738   4.443   3.542  2.3664  0.9293  1.4523
16402TIP3   OH270696   5.941   3.119   0.181 -0.5620 -0.2181  0.3888
16402TIP3    H170697   5.848   3.141   0.170 -1.2312 -2.8291 -0.0675
16402TIP3    H270698   5.957   3.130   0.275 -1.7503 -1.0268  0.7140
16403TIP3   OH270699   3.924   4.230  15.225  0.2264  0.6869 -0.4551
16403TIP3    H170700   3.870   4.307  15.242  1.3443  1.8685 -1.9705
16403TIP3    H270701   3.928   4.224  15.129  0.8989 -0.7249 -0.3615
16404TIP3   OH270702   4.689   5.054   3.063  0.3134  0.4647 -0.0206
16404TIP3    H170703   4.671   4.982   3.123  1.0978 -0.6330 -1.0552
16404TIP3    H270704   4.784   5.062   3.062  0.3541  0.1908 -1.3626
16405TIP3   OH270705   5.820   4.912   1.289 -0.1077 -0.0768 -0.1323
16405TIP3    H170706   5.893   4.872   1.242 -2.2220 -0.8278 -3.1351
16405TIP3    H270707   5.786   4.978   1.228 -2.1986 -0.1104  0.9173
16406TIP3   OH270708   5.333   2.743  13.662 -0.7326  0.4638  0.0013
16406TIP3    H170709   5.284   2.781  13.589 -0.7732  1.8933  0.7489
16406TIP3    H270710   5.395   2.682  13.621 -0.1649  1.8698 -1.2996
16407TIP3   OH270711   5.897   3.071  14.184  0.0735 -0.2859 -0.9204
16407TIP3    H170712   5.868   3.012  14.115  0.2166  0.8806 -2.0236
16407TIP3    H270713   5.816   3.102  14.225 -0.3981  2.3807 -3.5023
16408TIP3   OH270714   2.658   0.572   4.973 -0.1360 -0.3242 -0.0630
16408TIP3    H170715   2.608   0.495   4.947 -0.2321 -0.2392 -0.1321
16408TIP3    H270716   2.687   0.553   5.062 -0.1322 -0.4538 -0.0926
16409TIP3   OH270717   1.592   3.186   3.155  0.2718  0.3746 -0.4476
16409TIP3    H170718   1.521   3.139   3.112  0.4041 -0.0254 -0.2275
16409TIP3    H270719   1.668   3.129   3.146  0.4271  0.5349 -0.1662
16410TIP3   OH270720   2.479   0.828  16.047  0.2586 -0.6989  0.1331
16410TIP3    H170721   2.474   0.920  16.073  1.5515  0.1366 -2.2567
16410TIP3    H270722   2.387   0.800  16.040 -0.2345  1.0433 -1.0201
16411TIP3   OH270723   5.987   2.255   6.157 -0.3817  0.6113 -0.4589
16411TIP3    H170724   5.900   2.230   6.127 -1.2335  3.3967 -0.6259
16411TIP3    H270725   6.003   2.340   6.116  1.5244  1.1515  1.2109
16412TIP3   OH270726   1.209   6.436  13.371  0.0020 -0.2025 -0.1304
16412TIP3    H170727   1.286   6.389  13.339 -0.3017 -0.0328 -1.1290
16412TIP3    H270728   1.142   6.421  13.304 -1.4947 -2.0314  1.6528
16413TIP3   OH270729   0.434   0.665  16.214 -0.2843  0.0795 -0.3257
16413TIP3    H170730   0.385   0.733  16.168 -1.2752  0.1144  0.7419
16413TIP3    H270731   0.385   0.584  16.198 -0.6033  0.0796  0.5664
16414TIP3   OH270732   3.994   4.487  16.408 -0.4070 -0.2150 -0.1148
16414TIP3    H170733   3.913   4.517  16.368 -1.5101 -1.3145  1.1964
16414TIP3    H270734   4.063   4.515  16.348 -1.7550  0.6460 -1.3097
16415TIP3   OH270735   1.998   3.996  12.655  0.4008 -0.1762  0.4931
16415TIP3    H170736   1.944   3.974  12.579 -0.2165 -0.3785  0.9802
16415TIP3    H270737   2.032   4.083  12.636 -0.4639  0.1475  0.3588
16416TIP3   OH270738   1.468   2.300   0.189 -0.0271 -0.1697 -0.4176
16416TIP3    H170739   1.409   2.371   0.163 -0.0339 -0.1739 -0.4134
16416TIP3    H270740   1.505   2.269   0.106 -0.9958 -1.0226 -0.5545
16417TIP3   OH270741   6.763   4.305  10.716 -0.4827  0.0226  0.5800
16417TIP3    H170742   6.674   4.281  10.689 -0.1689  0.1206 -0.6226
16417TIP3    H270743   6.820   4.244  10.669  0.3080  2.6518 -2.2556
16418TIP3   OH270744   0.159   3.124   1.644  0.2724 -0.3259 -0.2884
16418TIP3    H170745   0.078   3.113   1.594  1.2045 -2.0425 -1.5391
16418TIP3    H270746   0.197   3.205   1.611  0.2487 -0.7873 -1.5053
16419TIP3   OH270747   0.545   1.838   6.696 -0.3259 -0.0507 -0.3084
16419TIP3    H170748   0.532   1.933   6.697  1.3954  0.2414  1.6383
16419TIP3    H270749   0.587   1.820   6.612  0.5992  1.1525 -0.1353
16420TIP3   OH270750   5.212   0.305  16.952  0.5783 -0.0754 -0.8713
16420TIP3    H170751   5.306   0.301  16.936  0.3329 -1.0509 -2.2927
16420TIP3    H270752   5.180   0.217  16.932 -0.8889  0.7383 -2.4545
16421TIP3   OH270753   4.024   6.337  12.825  0.1676 -0.2047  0.1569
16421TIP3    H170754   4.015   6.424  12.864 -0.2626  0.2905 -0.9824
16421TIP3    H270755   4.063   6.355  12.739  0.1755 -1.1564 -0.0395
16422TIP3   OH270756   0.254   2.007   5.674  0.0410 -0.3530  0.3941
16422TIP3    H170757   0.279   1.924   5.715 -0.5981 -1.1122 -0.7211
16422TIP3    H270758   0.229   1.984   5.585  1.8516  1.3288 -0.6152
16423TIP3   OH270759   2.884   6.006  13.433  0.3756  0.3478  0.4907
16423TIP3    H170760   2.959   5.954  13.403  0.8153  2.0340 -1.6263
16423TIP3    H270761   2.896   6.091  13.391 -1.5616  1.4090  1.9214
16424TIP3   OH270762   6.104   1.359   0.466 -0.5555  0.0557 -0.1555
16424TIP3    H170763   6.168   1.400   0.408  0.1755  1.7032  1.7006
16424TIP3    H270764   6.137   1.270   0.480  0.4831  0.3870 -0.4553
16425TIP3   OH270765   6.626   0.928  14.088 -0.2994  0.2704  0.5296
16425TIP3    H170766   6.670   0.926  14.173 -0.2399 -0.4825  0.4962
16425TIP3    H270767   6.565   1.001  14.093 -0.0951  0.4046  1.1144
16426TIP3   OH270768   2.730   3.513  11.839 -1.3346 -0.8792  0.3240
16426TIP3    H170769   2.638   3.508  11.867 -1.3417  0.7999  0.7393
16426TIP3    H270770   2.779   3.525  11.920 -1.0693  1.0739 -0.0612
16427TIP3   OH270771   0.791   4.352  13.104 -0.6569 -0.4029  0.1425
16427TIP3    H170772   0.757   4.300  13.031 -0.6631  1.7756 -1.4865
16427TIP3    H270773   0.738   4.325  13.179 -1.1881 -2.1338 -0.7852
16428TIP3   OH270774   5.306   2.302   2.768 -0.1276  0.0710  0.1555
16428TIP3    H170775   5.310   2.209   2.792  1.4492  0.6001  2.1912
16428TIP3    H270776   5.397   2.325   2.747 -0.6181  1.0099 -1.0305
16429TIP3   OH270777   1.101   6.706   4.085  0.0364  0.0773 -0.5379
16429TIP3    H170778   1.171   6.644   4.064 -0.1662  0.1992 -1.6162
16429TIP3    H270779   1.147   6.786   4.112  0.3326  0.2023 -1.3729
16430TIP3   OH270780   3.593   1.348  13.200  0.2465  0.4208 -0.7511
16430TIP3    H170781   3.510   1.394  13.198 -0.2907 -0.5234 -0.7742
16430TIP3    H270782   3.600   1.315  13.290  0.2381 -0.1342 -0.9520
16431TIP3   OH270783   6.023   3.894  16.952  0.3051 -0.1353  0.0483
16431TIP3    H170784   6.065   3.976  16.978 -0.9589  0.1621  1.2722
16431TIP3    H270785   5.930   3.907  16.970 -0.3201 -0.8914 -2.2649
16432TIP3   OH270786   2.358   1.066  13.331  0.4295  0.3278 -0.6943
16432TIP3    H170787   2.274   1.024  13.315  1.0680 -0.4607 -2.1822
16432TIP3    H270788   2.340   1.133  13.396 -1.1162 -0.5935 -0.1358
16433TIP3   OH270789   5.607   4.868  11.850  0.1498  0.3729  0.3193
16433TIP3    H170790   5.585   4.882  11.942  1.8743 -0.4540  0.9029
16433TIP3    H270791   5.682   4.808  11.852 -0.3425 -0.3930 -1.6596
16434TIP3   OH270792   3.938   2.189   3.227 -0.0717  1.1492  1.1209
16434TIP3    H170793   3.978   2.272   3.253 -0.9828  2.3205 -0.9914
16434TIP3    H270794   3.895   2.207   3.144  0.6706 -1.7630 -0.0297
16435TIP3   OH270795   1.905   2.339   1.356  0.5397  0.2117  0.1870
16435TIP3    H170796   1.826   2.332   1.409  0.5737 -0.8038  0.1216
16435TIP3    H270797   1.959   2.403   1.402  0.2568 -0.1153  0.9823
16436TIP3   OH270798   6.245   6.165  15.990 -0.2935  0.3397  0.3188
16436TIP3    H170799   6.222   6.114  15.913 -0.6590 -0.7145  1.0968
16436TIP3    H270800   6.161   6.188  16.030 -0.1060 -1.0842  1.6239
16437TIP3   OH270801   4.107   3.156  13.037 -0.1773  0.0769  0.1473
16437TIP3    H170802   4.097   3.088  13.102  0.0119 -0.4026 -0.3153
16437TIP3    H270803   4.188   3.134  12.991  0.3333  1.0710  0.5288
16438TIP3   OH270804   1.432   3.526   2.943 -0.0183 -0.0449 -0.0517
16438TIP3    H170805   1.503   3.564   2.891 -0.6177  0.4772 -0.4949
16438TIP3    H270806   1.401   3.597   2.998  1.3912 -0.8863  1.9253
16439TIP3   OH270807   6.664   3.779  11.700 -0.2006 -0.1547 -0.2661
16439TIP3    H170808   6.655   3.750  11.791  1.4873  0.2987  0.0750
16439TIP3    H270809   6.675   3.698  11.651 -2.9379 -0.5540 -0.3792
16440TIP3   OH270810   2.781   5.275  16.633  0.1414  0.1120  0.2668
16440TIP3    H170811   2.705   5.226  16.604 -0.5093  0.6680  0.9737
16440TIP3    H270812   2.757   5.308  16.720  0.9427  0.8270  0.2351
16441TIP3   OH270813   0.509   3.701  12.832 -0.0720  0.2880  0.0157
16441TIP3    H170814   0.599   3.675  12.851 -0.2088 -0.1990  0.0308
16441TIP3    H270815   0.475   3.631  12.776 -0.2466  0.7839 -0.5053
16442TIP3   OH270816   3.360   3.109   2.583 -0.1305  0.2004 -0.1296
16442TIP3    H170817   3.307   3.080   2.658  1.1788 -0.3699  0.5935
16442TIP3    H270818   3.369   3.032   2.528 -0.9561  0.5791 -0.8234
16443TIP3   OH270819   5.946   4.775  12.599 -0.0273  0.0830 -0.0655
16443TIP3    H170820   5.991   4.708  12.652  1.6159  0.8795 -0.3814
16443TIP3    H270821   5.855   4.770  12.627 -0.1518 -2.8559 -0.6761
16444TIP3   OH270822   5.186   3.123  16.538 -0.3339  0.7455 -0.4194
16444TIP3    H170823   5.123   3.091  16.603  0.2405 -0.0272 -0.2227
16444TIP3    H270824   5.236   3.045  16.514  0.6216  1.3661 -0.4796
16445TIP3   OH270825   2.868   2.908  11.534  0.1775 -0.1969  0.3092
16445TIP3    H170826   2.783   2.865  11.527 -0.2043  0.2263  2.0321
16445TIP3    H270827   2.848   2.996  11.566  1.1589  0.4060 -0.6612
16446TIP3   OH270828   1.810   2.963   2.219 -0.3866 -0.1607  0.1279
16446TIP3    H170829   1.754   2.904   2.269 -0.9188  1.5207  1.5703
16446TIP3    H270830   1.885   2.908   2.194 -1.1133 -1.5803  0.9374
16447TIP3   OH270831   4.780   1.439   5.079 -0.2202 -0.2161 -0.3492
16447TIP3    H170832   4.717   1.462   5.011 -0.8633 -0.9169 -0.0019
16447TIP3    H270833   4.837   1.515   5.085 -1.1077  0.4849 -0.5788
16448TIP3   OH270834   6.598   0.129   1.877  0.3942  0.6001 -0.1478
16448TIP3    H170835   6.650   0.190   1.930  1.8361 -1.0498  0.4590
16448TIP3    H270836   6.523   0.107   1.933  1.0281  0.1687  0.5654
16449TIP3   OH270837   0.241   0.963   0.830 -0.1864 -0.0766  0.8198
16449TIP3    H170838   0.199   0.919   0.904  0.7284  0.1909  1.5255
16449TIP3    H270839   0.240   1.056   0.855 -0.9943  0.1782 -0.0916
16450TIP3   OH270840   2.984   1.245  11.948  0.5651  0.3030 -0.2998
16450TIP3    H170841   2.905   1.280  11.906  0.1189  0.3265  0.5426
16450TIP3    H270842   2.952   1.178  12.008  1.2630 -0.2532 -0.5280
16451TIP3   OH270843   1.474   2.820   0.589 -0.0190 -0.5353 -0.4247
16451TIP3    H170844   1.551   2.872   0.566  0.1761 -0.9297 -0.6925
16451TIP3    H270845   1.415   2.831   0.515 -0.3781  0.0542 -0.0596
16452TIP3   OH270846   2.662   5.422  15.364 -0.4265  0.7372  0.0619
16452TIP3    H170847   2.736   5.390  15.416 -1.7160 -0.4602  1.2372
16452TIP3    H270848   2.682   5.394  15.274 -0.5137 -1.6298  0.7287
16453TIP3   OH270849   6.068   3.164   2.121  0.7963  0.2639  0.2068
16453TIP3    H170850   5.990   3.127   2.163  1.7360 -0.7898  1.1000
16453TIP3    H270851   6.065   3.131   2.031  0.1927  0.2866  0.2131
16454TIP3   OH270852   4.736   1.866   0.213 -0.3180 -0.3362 -0.5132
16454TIP3    H170853   4.641   1.851   0.218 -0.1921 -1.0375 -0.0960
16454TIP3    H270854   4.773   1.780   0.195  0.3710 -0.4189  1.0961
16455TIP3   OH270855   5.469   0.825   5.587 -0.4437  0.4344  0.0905
16455TIP3    H170856   5.523   0.862   5.657 -0.8481  0.6110  0.3093
16455TIP3    H270857   5.461   0.896   5.523 -2.0861  1.1126  0.9883
16456TIP3   OH270858   0.604   3.075   3.008 -0.4640 -0.6512  0.6620
16456TIP3    H170859   0.520   3.115   3.028 -1.1555 -0.1904 -2.6724
16456TIP3    H270860   0.669   3.134   3.048 -1.6107  1.4930 -0.4816
16457TIP3   OH270861   4.183   0.893   3.479 -0.2694 -0.1854  0.7188
16457TIP3    H170862   4.189   0.985   3.452 -2.3893  0.2755  1.6032
16457TIP3    H270863   4.147   0.849   3.402  0.9365 -0.3477  0.2234
16458TIP3   OH270864   0.214   6.807   0.563  0.6177  0.3298 -0.4031
16458TIP3    H170865   0.167   6.888   0.543  2.1280  1.0859 -1.0771
16458TIP3    H270866   0.158   6.738   0.526 -0.5336  1.0708 -0.1115
16459TIP3   OH270867   1.305   6.405   4.443  0.0391 -0.0838 -0.1276
16459TIP3    H170868   1.353   6.484   4.418 -0.4787  0.1830 -0.2743
16459TIP3    H270869   1.373   6.338   4.452  0.4317  0.2708 -0.4289
16460TIP3   OH270870   6.650   3.772  14.075 -0.5114  0.2766 -0.0447
16460TIP3    H170871   6.629   3.705  14.140  1.8798 -0.1909  0.3113
16460TIP3    H270872   6.665   3.851  14.127 -1.3853  0.6385 -0.3117
16461TIP3   OH270873   3.631   5.478  15.035  0.6576 -0.6222 -0.5828
16461TIP3    H170874   3.666   5.395  15.004  0.7556 -0.3838 -1.1204
16461TIP3    H270875   3.704   5.519  15.082  0.8155 -0.5396 -0.9006
16462TIP3   OH270876   4.266   0.471  14.018  0.2923  0.0313  0.7790
16462TIP3    H170877   4.313   0.550  13.992 -0.2094 -0.5322 -2.1951
16462TIP3    H270878   4.174   0.497  14.023  0.3554  0.1016  2.1183
16463TIP3   OH270879   5.164   6.416  14.359 -0.6684 -0.1871 -0.5779
16463TIP3    H170880   5.150   6.426  14.264  0.4228 -1.1303 -0.8637
16463TIP3    H270881   5.211   6.494  14.385  0.1376 -0.4930 -1.0748
16464TIP3   OH270882   5.726   4.689   5.566  0.1832 -0.2522  0.4717
16464TIP3    H170883   5.740   4.612   5.623  0.7893  0.8458  1.8702
16464TIP3    H270884   5.789   4.754   5.598 -1.4407  1.4144  0.4108
16465TIP3   OH270885   5.044   1.583   6.297  0.2020 -0.1182 -0.1098
16465TIP3    H170886   5.010   1.542   6.376  0.5521  0.0833  0.1453
16465TIP3    H270887   4.970   1.630   6.260  0.2651  0.5461  0.5862
16466TIP3   OH270888   4.159   6.797  16.818  0.0671 -0.0353 -0.9344
16466TIP3    H170889   4.067   6.804  16.843  0.4481 -1.2808  1.0919
16466TIP3    H270890   4.195   6.885  16.834 -0.5567  0.1962 -0.7684
16467TIP3   OH270891   4.138   1.803  13.064 -0.1406  0.0450  0.0176
16467TIP3    H170892   4.180   1.819  12.979  0.4379 -1.9145 -0.1129
16467TIP3    H270893   4.158   1.882  13.115  0.6784  0.6764 -1.2028
16468TIP3   OH270894   6.502   1.011  14.627  0.0650 -0.2494  0.2375
16468TIP3    H170895   6.487   1.100  14.658 -1.2844 -0.1444 -0.6206
16468TIP3    H270896   6.425   0.962  14.655  0.2581 -0.8714 -0.2824
16469TIP3   OH270897   2.486   4.056   3.705  0.2354  0.3421  0.0146
16469TIP3    H170898   2.571   4.099   3.719 -0.0474  0.9295 -0.0343
16469TIP3    H270899   2.440   4.069   3.788 -0.5790  1.8312 -0.6262
16470TIP3   OH270900   5.456   0.277   1.860  0.0594  0.7912  0.1423
16470TIP3    H170901   5.396   0.210   1.826  1.3875 -0.1081 -0.5626
16470TIP3    H270902   5.539   0.258   1.815  0.5068  2.8714  0.0049
16471TIP3   OH270903   1.586   3.500   5.517  0.0933 -0.7088 -0.0595
16471TIP3    H170904   1.575   3.499   5.612  1.8575 -1.2104  0.1757
16471TIP3    H270905   1.659   3.440   5.501 -1.7761 -2.6382 -1.9730
16472TIP3   OH270906   0.655   2.073  12.835  0.6384  0.7789  0.0871
16472TIP3    H170907   0.653   2.084  12.740  0.5709  0.3405  0.0355
16472TIP3    H270908   0.588   2.133  12.867 -3.2724 -2.7907 -0.5455
16473TIP3   OH270909   4.100   4.017  15.266  0.2110  0.2045  0.0918
16473TIP3    H170910   4.024   4.073  15.252 -0.3242 -0.4357  0.3584
16473TIP3    H270911   4.117   4.022  15.360  1.2805  1.3224 -0.1458
16474TIP3   OH270912   2.287   3.633   2.114 -0.2618  0.1943  0.0052
16474TIP3    H170913   2.295   3.593   2.201  1.4629 -0.7280 -0.5266
16474TIP3    H270914   2.337   3.575   2.057  0.5102  1.9641 -1.1876
16475TIP3   OH270915   4.415   2.074   0.912  0.5024 -0.0052  0.7750
16475TIP3    H170916   4.453   2.018   0.980  2.3392 -1.4901 -1.3220
16475TIP3    H270917   4.341   2.024   0.878  1.0712 -0.3846  0.0788
16476TIP3   OH270918   5.357   2.445   1.794 -0.1100 -0.1178  0.2017
16476TIP3    H170919   5.416   2.388   1.744 -1.9379 -1.3323 -0.6977
16476TIP3    H270920   5.328   2.510   1.730 -1.1246 -0.6381  0.1075
16477TIP3   OH270921   3.239   3.396   2.621  0.3919  0.2977  0.5403
16477TIP3    H170922   3.145   3.380   2.631 -0.0859  0.6415 -2.4634
16477TIP3    H270923   3.274   3.314   2.589  0.1133  1.3915 -3.0595
16478TIP3   OH270924   6.238   3.295   1.551 -0.1646 -0.3006  0.0914
16478TIP3    H170925   6.170   3.228   1.543 -1.3537  1.0612 -1.9960
16478TIP3    H270926   6.247   3.331   1.462  3.0213 -0.1398  0.3632
16479TIP3   OH270927   3.835   0.131  15.448 -0.1566 -0.8196  0.0661
16479TIP3    H170928   3.834   0.160  15.540  0.7960  0.1731 -0.2125
16479TIP3    H270929   3.751   0.161  15.413  0.5215  1.1402 -0.0322
16480TIP3   OH270930   4.671   5.662  14.465  0.0837  0.0760 -0.0447
16480TIP3    H170931   4.703   5.621  14.385  0.2038  0.1450 -0.0333
16480TIP3    H270932   4.597   5.608  14.492 -0.1071  0.1948 -0.3317
16481TIP3   OH270933   6.285   5.349   3.126  0.5187  0.5095  0.2005
16481TIP3    H170934   6.194   5.342   3.155  1.3768 -0.8661  2.8776
16481TIP3    H270935   6.292   5.438   3.091 -1.4445  1.2315  1.4426
16482TIP3   OH270936   0.809   2.746   3.270  0.0435  0.5760  0.1268
16482TIP3    H170937   0.793   2.841   3.265  0.8186  0.7307  0.4142
16482TIP3    H270938   0.777   2.721   3.357 -1.5529  0.2760 -0.5054
16483TIP3   OH270939   3.091   0.603   5.467 -0.0176 -0.6477  0.3628
16483TIP3    H170940   3.062   0.667   5.532 -2.5534 -2.1022  0.7799
16483TIP3    H270941   3.068   0.518   5.504  0.2672 -1.6196 -1.5651
16484TIP3   OH270942   6.068   5.833  14.572 -0.0310  0.4310  0.1641
16484TIP3    H170943   6.129   5.762  14.549 -0.4268  0.2304 -0.2880
16484TIP3    H270944   6.057   5.882  14.491 -0.8794  0.1506  0.1025
16485TIP3   OH270945   1.156   3.797  16.408  0.3511  0.2170  0.6920
16485TIP3    H170946   1.102   3.838  16.476  0.0004 -0.4371  0.8168
16485TIP3    H270947   1.149   3.856  16.333 -1.1292 -0.1981  0.4637
16486TIP3   OH270948   6.466   4.432  14.830  0.3244 -0.1956  0.1384
16486TIP3    H170949   6.515   4.441  14.748 -0.6405  1.5319 -0.3207
16486TIP3    H270950   6.404   4.361  14.813 -0.7009  0.9397 -1.1409
16487TIP3   OH270951   0.736   4.755   1.099  0.4052  0.1809 -0.7204
16487TIP3    H170952   0.775   4.794   1.177  2.3348 -2.5783 -0.1548
16487TIP3    H270953   0.661   4.706   1.132  0.6903 -0.2578 -0.7170
16488TIP3   OH270954   6.637   5.562  13.207  0.3420  0.3982  0.0856
16488TIP3    H170955   6.608   5.536  13.294  0.2453  1.1114  0.2676
16488TIP3    H270956   6.720   5.516  13.195 -0.3797 -0.9136 -0.0656
16489TIP3   OH270957   6.454   0.558   2.694 -0.0271  0.2509 -0.3660
16489TIP3    H170958   6.375   0.541   2.746 -0.3110 -0.7806 -1.1123
16489TIP3    H270959   6.481   0.472   2.663  1.6841  0.5174  0.2595
16490TIP3   OH270960   4.028   0.395   5.689  0.3869 -0.8467  0.3781
16490TIP3    H170961   4.066   0.483   5.680 -1.6103  0.3149  2.2500
16490TIP3    H270962   4.081   0.353   5.756  0.9610 -0.8579 -0.0705
16491TIP3   OH270963   0.740   4.097   0.781  0.3125  0.0221  0.1537
16491TIP3    H170964   0.803   4.099   0.709  1.4112  0.6687  1.1094
16491TIP3    H270965   0.675   4.163   0.758  1.6193  1.5094  0.5806
16492TIP3   OH270966   4.048   0.549  14.253 -0.1318 -0.4786 -0.2673
16492TIP3    H170967   3.973   0.492  14.270 -0.5965 -0.3279 -1.7135
16492TIP3    H270968   4.017   0.637  14.273  0.0031 -0.5201  0.1462
16493TIP3   OH270969   1.355   0.822  12.450  0.0253 -0.1196 -0.4750
16493TIP3    H170970   1.438   0.820  12.498 -0.8501 -0.8635  1.0628
16493TIP3    H270971   1.304   0.890  12.493 -0.7151 -0.6863 -0.4469
16494TIP3   OH270972   0.721   1.967   6.143 -0.1488 -0.2499 -0.1021
16494TIP3    H170973   0.671   1.886   6.137 -0.2129 -0.2256  0.1124
16494TIP3    H270974   0.806   1.945   6.103 -0.3283 -0.2878 -0.4701
16495TIP3   OH270975   5.481   0.112   6.226  0.2203  0.0603 -0.6132
16495TIP3    H170976   5.555   0.136   6.171 -1.4952  2.0630 -2.2324
16495TIP3    H270977   5.465   0.190   6.279 -0.8721 -0.2464 -0.4744
16496TIP3   OH270978   3.639   6.616  13.256  0.0863  0.0188  0.1903
16496TIP3    H170979   3.626   6.665  13.175  2.8616  2.1162  0.8746
16496TIP3    H270980   3.608   6.674  13.325  1.4896  0.0363  0.8597
16497TIP3   OH270981   2.787   1.239  17.069  0.2996 -0.1374 -0.5286
16497TIP3    H170982   2.760   1.197  16.988  0.3180  0.6816 -0.9645
16497TIP3    H270983   2.871   1.280  17.049  0.7623 -0.7113  0.1712
16498TIP3   OH270984   4.288   5.436  12.244 -0.2477  0.1582 -0.3702
16498TIP3    H170985   4.273   5.531  12.243  0.5841  0.3408  1.3819
16498TIP3    H270986   4.201   5.398  12.244 -0.5897  0.9083 -1.3404
16499TIP3   OH270987   1.049   2.461   0.192  0.1292 -0.7898  0.3284
16499TIP3    H170988   1.131   2.467   0.142  0.9348 -0.3778  1.6544
16499TIP3    H270989   1.039   2.368   0.211  0.7840 -0.7387  0.9484
16500TIP3   OH270990   2.935   6.690   2.095  0.0937 -0.2815 -0.6571
16500TIP3    H170991   2.871   6.682   2.024 -0.9156 -0.5894  0.2608
16500TIP3    H270992   3.019   6.671   2.054 -0.1877  1.5067 -2.2070
16501TIP3   OH270993   4.098   1.751  14.499  0.8326  0.2420  0.0883
16501TIP3    H170994   4.007   1.768  14.523  0.5349  2.4116 -2.1126
16501TIP3    H270995   4.093   1.713  14.411  2.0400 -0.2662  0.2129
16502TIP3   OH270996   5.774   4.246  11.113  0.3904 -0.4181 -0.0862
16502TIP3    H170997   5.772   4.326  11.166  0.7420 -0.1998 -0.3932
16502TIP3    H270998   5.863   4.212  11.124  0.2738 -0.7137 -0.0384
16503TIP3   OH270999   1.241   2.302   3.213 -0.0518  0.0435 -0.1997
16503TIP3    H171000   1.332   2.307   3.184  0.2593 -1.2896  0.4408
16503TIP3    H271001   1.242   2.237   3.284 -1.6976 -1.0043 -1.0668
16504TIP3   OH271002   1.533   1.845  16.725 -0.1875 -0.0145 -0.1757
16504TIP3    H171003   1.617   1.817  16.690  0.1725 -0.3490  0.9024
16504TIP3    H271004   1.484   1.763  16.737 -0.8961  0.2161 -1.3112
16505TIP3   OH271005   6.154   3.694   3.598  0.0271 -0.0532  0.9195
16505TIP3    H171006   6.060   3.688   3.586 -0.0485 -3.4913  2.1941
16505TIP3    H271007   6.165   3.727   3.688  0.1582  2.2973  0.1018
16506TIP3   OH271008   4.480   1.827   0.545  0.4447 -0.0131  0.0551
16506TIP3    H171009   4.438   1.900   0.499  0.5199  1.5064  2.2428
16506TIP3    H271010   4.425   1.812   0.622  1.1329 -1.4313  0.2943
16507TIP3   OH271011   3.641   3.151   2.488  0.2562 -0.0486 -0.0898
16507TIP3    H171012   3.546   3.164   2.479  0.4937  0.5671 -1.9456
16507TIP3    H271013   3.673   3.139   2.399  1.9145 -0.5097  0.5258
16508TIP3   OH271014   3.043   2.154  10.551  0.5223 -0.6578  0.2992
16508TIP3    H171015   3.043   2.168  10.457  2.7048 -0.2682  0.3274
16508TIP3    H271016   2.980   2.218  10.584  0.8027  0.1988 -0.7666
16509TIP3   OH271017   3.044   6.206   0.181  0.2304  0.1318 -0.0064
16509TIP3    H171018   3.110   6.140   0.205 -0.4906 -1.3738 -1.8430
16509TIP3    H271019   3.085   6.257   0.111  0.2620  0.6888  0.4153
16510TIP3   OH271020   4.805   2.338   4.124  0.5969 -0.1244 -0.5099
16510TIP3    H171021   4.757   2.387   4.191  0.0937 -0.3452 -0.7094
16510TIP3    H271022   4.850   2.406   4.073  0.6331  0.0716 -0.2239
16511TIP3   OH271023   2.231   2.539   3.483 -0.6092 -0.0903  0.0049
16511TIP3    H171024   2.318   2.527   3.446 -0.5576  2.5905 -0.9414
16511TIP3    H271025   2.177   2.567   3.409 -1.8635  0.0359  0.9270
16512TIP3   OH271026   0.744   3.302  10.894  0.0755  0.4012  0.7860
16512TIP3    H171027   0.721   3.218  10.935  0.1459 -0.1523 -0.2740
16512TIP3    H271028   0.833   3.320  10.923  0.7998 -0.8924 -0.5228
16513TIP3   OH271029   1.397   3.456   0.809 -0.0259  0.1227 -0.6241
16513TIP3    H171030   1.402   3.537   0.860 -0.5525  0.0733 -0.4952
16513TIP3    H271031   1.312   3.418   0.831  0.8028 -1.2128  0.4412
16514TIP3   OH271032   1.785   5.336   5.579  0.2683  0.1616 -0.4533
16514TIP3    H171033   1.715   5.289   5.533  1.0693  0.7401 -2.3701
16514TIP3    H271034   1.848   5.268   5.602 -1.1340 -0.4586  1.8462
16515TIP3   OH271035   2.283   5.453  12.911  0.3289 -0.3392 -0.1920
16515TIP3    H171036   2.275   5.374  12.857  0.3515 -0.7289  0.3699
16515TIP3    H271037   2.244   5.429  12.995 -1.2333  0.7790 -0.5460
16516TIP3   OH271038   2.366   0.276   0.726  0.0042 -0.1840  0.2203
16516TIP3    H171039   2.423   0.301   0.799  2.1114  1.3563 -1.8033
16516TIP3    H271040   2.418   0.214   0.675 -0.6956  0.1182 -0.8921
16517TIP3   OH271041   0.198   3.172   5.859 -0.0305  0.3466  0.1344
16517TIP3    H171042   0.173   3.147   5.948  0.5220  0.1549  0.2373
16517TIP3    H271043   0.277   3.122   5.841 -0.0446  0.5084 -0.4077
16518TIP3   OH271044   2.504   2.438  16.692  0.7746  0.2540  0.0588
16518TIP3    H171045   2.425   2.397  16.727  0.9586  0.6759  0.9934
16518TIP3    H271046   2.508   2.407  16.601 -0.6443  0.4783 -0.1181
16519TIP3   OH271047   2.804   6.218   3.798  0.2508 -0.0801 -0.2608
16519TIP3    H171048   2.710   6.207   3.784  0.5560  0.0340 -3.0182
16519TIP3    H271049   2.844   6.163   3.731  2.2002 -0.6703  1.3121
16520TIP3   OH271050   2.000   2.376   2.358  0.2163 -0.3310  0.3699
16520TIP3    H171051   1.942   2.338   2.424  0.6948 -2.5531 -0.4299
16520TIP3    H271052   2.074   2.317   2.352 -0.4377 -1.0594 -3.1126
16521TIP3   OH271053   0.230   5.977   4.537  0.4127  0.0099 -0.0265
16521TIP3    H171054   0.214   6.071   4.527 -2.3916 -0.5940 -2.7670
16521TIP3    H271055   0.156   5.945   4.588 -0.5513 -1.1141 -2.0110
16522TIP3   OH271056   6.601   1.850   2.156  0.0087  0.6145 -0.7611
16522TIP3    H171057   6.686   1.875   2.122  0.7808 -0.8089  0.0344
16522TIP3    H271058   6.585   1.910   2.229  0.3657  0.8185 -0.8507
16523TIP3   OH271059   6.603   4.578   5.866  0.8296 -0.0863 -0.7058
16523TIP3    H171060   6.593   4.514   5.936  0.8034  0.9966  0.3138
16523TIP3    H271061   6.515   4.590   5.832  0.7925 -0.3823 -0.7165
16524TIP3   OH271062   3.612   5.554   5.982 -0.2380  0.2034  0.2206
16524TIP3    H171063   3.701   5.586   5.970 -0.9795  2.4054  0.1634
16524TIP3    H271064   3.612   5.517   6.070  0.2194  2.2598  1.1592
16525TIP3   OH271065   1.113   2.064   5.222 -0.1158  0.0537 -0.6451
16525TIP3    H171066   1.090   2.064   5.129 -0.7859  0.7106 -0.4884
16525TIP3    H271067   1.047   2.120   5.263 -0.2948 -0.8472  0.3423
16526TIP3   OH271068   1.053   1.089  16.836 -0.1207 -0.8377 -0.6545
16526TIP3    H171069   1.010   1.135  16.764 -0.4803  2.2102  1.3326
16526TIP3    H271070   1.006   1.006  16.842 -1.5210 -0.2665 -2.5377
16527TIP3   OH271071   5.002   1.522  16.154  0.0854  0.2484 -0.4507
16527TIP3    H171072   4.980   1.441  16.200 -0.7767  0.7918  0.1211
16527TIP3    H271073   4.928   1.538  16.097 -0.3568  1.3169  0.3998
16528TIP3   OH271074   5.320   5.959  10.612  0.0251 -0.1366 -0.5667
16528TIP3    H171075   5.337   5.956  10.518  0.4334 -0.4659 -0.4853
16528TIP3    H271076   5.405   5.940  10.653 -0.3128 -0.7749 -0.1421
16529TIP3   OH271077   5.743   3.507  14.612 -0.2474 -0.6292 -0.1543
16529TIP3    H171078   5.781   3.475  14.530 -1.2657  1.4162 -1.5003
16529TIP3    H271079   5.776   3.597  14.620 -0.7547 -0.5555  1.3102
16530TIP3   OH271080   3.358   3.105   6.193 -0.0327  0.0246  0.2172
16530TIP3    H171081   3.338   3.011   6.192  0.5821 -0.1137 -0.5765
16530TIP3    H271082   3.352   3.130   6.285 -0.3357 -0.7654  0.4234
16531TIP3   OH271083   3.740   5.956   5.805 -0.2466  0.3747 -0.8946
16531TIP3    H171084   3.780   6.014   5.870  0.0288  0.4615 -1.1379
16531TIP3    H271085   3.714   6.014   5.734  0.6407  0.1192 -1.4352
16532TIP3   OH271086   1.903   1.120  12.424  0.5738  0.0593  0.7421
16532TIP3    H171087   1.859   1.039  12.397 -0.6503  1.0830 -0.4849
16532TIP3    H271088   1.891   1.180  12.350  0.6315  1.6847  1.9865
16533TIP3   OH271089   0.744   6.359   5.690 -0.3937  0.1512  0.1526
16533TIP3    H171090   0.749   6.274   5.734  2.3879  0.5475  0.7595
16533TIP3    H271091   0.800   6.350   5.613 -0.7650  1.1888 -0.2548
16534TIP3   OH271092   0.598   3.824   1.730  0.1409  0.6750 -0.0933
16534TIP3    H171093   0.574   3.735   1.703  1.6023 -0.1478  1.1420
16534TIP3    H271094   0.518   3.874   1.722 -0.8910 -0.9261 -0.2154
16535TIP3   OH271095   6.048   4.949   2.582  0.4353 -0.4528  0.9068
16535TIP3    H171096   6.072   4.861   2.613 -0.0679 -1.0160 -0.2006
16535TIP3    H271097   6.131   4.996   2.576  0.9263 -1.3824  0.0338
16536TIP3   OH271098   3.324   6.565   5.657  0.5495 -0.0526 -0.8477
16536TIP3    H171099   3.352   6.514   5.581 -0.3263 -2.6334  0.4356
16536TIP3    H271100   3.382   6.535   5.727 -0.3148  0.3890  0.0698
16537TIP3   OH271101   4.225   6.193   6.074  0.2760 -0.0374 -0.1305
16537TIP3    H171102   4.148   6.172   6.127 -1.3913  3.1510 -1.0523
16537TIP3    H271103   4.239   6.115   6.021 -2.3350 -0.7547  0.0873
16538TIP3   OH271104   3.232   6.509  15.012  0.2410 -0.5491 -0.4317
16538TIP3    H171105   3.190   6.520  15.097 -1.2460 -0.9387 -1.0901
16538TIP3    H271106   3.321   6.543  15.025  0.8209 -2.5879  1.8976
16539TIP3   OH271107   4.293   0.914   1.185 -0.1213  0.4187 -0.2086
16539TIP3    H171108   4.228   0.899   1.254 -2.2007 -0.8365 -2.2945
16539TIP3    H271109   4.312   0.826   1.152  0.3982  1.0255 -1.5864
16540TIP3   OH271110   6.754   0.353  13.883  0.0769  0.4610 -0.2793
16540TIP3    H171111   6.685   0.287  13.885  0.7213 -0.3496 -2.3600
16540TIP3    H271112   6.720   0.424  13.937 -1.9865 -0.2733 -0.5009
16541TIP3   OH271113   5.603   0.314   5.749  0.1848 -0.3975  0.1744
16541TIP3    H171114   5.556   0.370   5.687 -0.8908 -0.8133  0.5968
16541TIP3    H271115   5.690   0.355   5.757 -0.5035  1.0841  0.3212
16542TIP3   OH271116   6.821   5.546   1.591 -0.0910 -0.1396  0.6243
16542TIP3    H171117   6.766   5.583   1.660  0.2807 -0.2690  0.9941
16542TIP3    H271118   6.861   5.469   1.631  1.3240  0.6414  0.7755
16543TIP3   OH271119   4.114   0.099   4.561 -0.5927  0.2778 -0.2962
16543TIP3    H171120   4.148   0.187   4.546  0.3650 -0.2598 -1.3953
16543TIP3    H271121   4.160   0.044   4.499  0.6012 -1.4464  1.9674
16544TIP3   OH271122   3.878   2.074  14.486  0.5473 -0.4947  0.6009
16544TIP3    H171123   3.814   2.015  14.447 -0.0060  0.6739 -0.3200
16544TIP3    H271124   3.934   2.101  14.413  0.5753  0.3710  0.9301
16545TIP3   OH271125   0.916   1.225  13.828 -0.1681  0.4549  0.0513
16545TIP3    H171126   0.894   1.222  13.734  0.7865 -0.5599 -0.1518
16545TIP3    H271127   0.849   1.171  13.869  0.3493 -0.4330 -0.2493
16546TIP3   OH271128   3.377   2.179  12.291  0.4830  0.1173 -0.3958
16546TIP3    H171129   3.357   2.152  12.201 -0.0684 -1.1579  0.0792
16546TIP3    H271130   3.421   2.264  12.282 -0.5299  0.5306 -1.7992
16547TIP3   OH271131   0.693   6.500  14.515 -0.5649  0.1393  0.1508
16547TIP3    H171132   0.762   6.556  14.552 -1.0328  0.6890  0.2009
16547TIP3    H271133   0.616   6.519  14.567 -0.4948 -1.3241  0.8344
16548TIP3   OH271134   5.781   0.621  17.024 -0.0258  0.3763  0.2696
16548TIP3    H171135   5.729   0.602  16.946  1.4330  1.4873 -1.0272
16548TIP3    H271136   5.720   0.662  17.085 -0.9027  0.7017 -0.8095
16549TIP3   OH271137   2.097   3.653   4.561 -0.3583 -0.0292  0.2429
16549TIP3    H171138   2.020   3.597   4.566 -0.6078  0.2897  0.0229
16549TIP3    H271139   2.083   3.705   4.482  0.6874 -0.8602 -0.5177
16550TIP3   OH271140   1.679   6.382   4.254 -0.0243 -0.2520 -0.3394
16550TIP3    H171141   1.766   6.364   4.290  0.2331  0.5151 -0.5555
16550TIP3    H271142   1.662   6.473   4.277 -0.3821 -0.1240 -1.0858
16551TIP3   OH271143   3.669   5.933   2.806  0.1690  0.0880  0.3414
16551TIP3    H171144   3.592   5.911   2.753  0.1877 -1.0904  0.7830
16551TIP3    H271145   3.646   5.904   2.895  0.1499  1.9792  1.0161
16552TIP3   OH271146   1.360   1.326  12.515 -0.2457 -0.2443 -0.6303
16552TIP3    H171147   1.455   1.331  12.524 -0.2706  0.2189 -0.5847
16552TIP3    H271148   1.340   1.382  12.441 -0.4067 -1.0332 -1.1935
16553TIP3   OH271149   0.827   2.313  11.810 -0.1376  0.0213  0.6420
16553TIP3    H171150   0.779   2.247  11.861 -1.1138  0.5208  0.3829
16553TIP3    H271151   0.781   2.395  11.826  1.7300  0.9202  1.8673
16554TIP3   OH271152   0.051   5.308   3.085  0.3944  0.4316  0.2933
16554TIP3    H171153   0.086   5.376   3.027  0.5514  0.0159 -0.1072
16554TIP3    H271154  -0.041   5.300   3.059 -0.3478  2.3560  2.1434
16555TIP3   OH271155   1.992   2.207  12.367 -0.1822 -0.2307  0.1020
16555TIP3    H171156   1.912   2.155  12.370 -0.4504  0.1910  0.2670
16555TIP3    H271157   2.044   2.176  12.442  0.0042 -0.8063 -0.2533
16556TIP3   OH271158   3.348   2.088  14.798  0.6881 -0.3443 -0.8585
16556TIP3    H171159   3.376   2.150  14.730  2.3734 -0.9489 -0.7462
16556TIP3    H271160   3.382   2.124  14.880 -0.3451 -0.2204 -0.4716
16557TIP3   OH271161   0.025   5.042  13.449 -0.6081  0.2843  0.1693
16557TIP3    H171162  -0.021   5.015  13.528  0.0464  0.2299  0.5434
16557TIP3    H271163   0.113   5.065  13.480 -0.0423 -0.6851 -0.6857
16558TIP3   OH271164   0.992   0.637   4.760 -0.2904 -0.2691 -0.1028
16558TIP3    H171165   1.037   0.564   4.804 -0.5631 -0.8550 -0.7818
16558TIP3    H271166   0.921   0.595   4.712 -0.3999  0.4452 -0.5684
16559TIP3   OH271167   4.011   6.091   2.797  0.1330 -0.1373  0.1857
16559TIP3    H171168   3.929   6.046   2.819 -0.3400  1.0551  0.9280
16559TIP3    H271169   4.068   6.021   2.764 -0.9451 -1.0963  0.2864
16560TIP3   OH271170   6.153   4.227   2.048  0.2131  0.2145  0.3031
16560TIP3    H171171   6.117   4.250   2.133 -2.5603  1.0344 -0.9649
16560TIP3    H271172   6.107   4.147   2.022 -1.2392  1.5698 -1.6089
16561TIP3   OH271173   5.874   1.386   4.559 -0.1330  0.7564  0.2882
16561TIP3    H171174   5.878   1.316   4.494 -0.4452  0.4201  0.6195
16561TIP3    H271175   5.780   1.395   4.578 -0.1454  1.6275 -0.1309
16562TIP3   OH271176   5.375   5.573   2.238  0.6562 -0.3919 -0.0880
16562TIP3    H171177   5.438   5.501   2.245 -0.5805 -1.3772  1.5486
16562TIP3    H271178   5.313   5.545   2.171  0.7106 -0.4047 -0.1334
16563TIP3   OH271179   3.059   5.824   0.934 -0.0654  0.0131 -0.0355
16563TIP3    H171180   2.991   5.820   1.001  0.8681 -1.1061  0.9180
16563TIP3    H271181   3.039   5.752   0.875 -0.4774  0.5489 -0.5594
16564TIP3   OH271182   6.007   4.704   4.333  0.1518  0.5248 -0.6818
16564TIP3    H171183   5.997   4.727   4.425  1.6523 -0.1200 -0.3175
16564TIP3    H271184   5.932   4.744   4.289 -1.0367  0.1540  0.9297
16565TIP3   OH271185   5.033   1.311   4.576  0.0884  0.3415 -0.2153
16565TIP3    H171186   4.998   1.234   4.620 -1.2105  0.3943 -1.0945
16565TIP3    H271187   4.970   1.380   4.596  1.0000  1.0758  0.1872
16566TIP3   OH271188   4.532   5.210   4.004 -0.3325 -0.1446 -0.5165
16566TIP3    H171189   4.581   5.290   4.020 -0.6375 -0.1014  0.2559
16566TIP3    H271190   4.483   5.227   3.924 -0.8753  0.6870 -0.0224
16567TIP3   OH271191   4.048   4.097   4.236  0.3439 -0.5328  0.2366
16567TIP3    H171192   3.986   4.081   4.307  0.3934 -1.0091  0.1746
16567TIP3    H271193   4.132   4.112   4.281  0.1790  0.1585  0.3223
16568TIP3   OH271194   6.346   4.307   3.244  0.1641 -0.7508 -0.3270
16568TIP3    H171195   6.375   4.266   3.163 -0.3597  2.7358 -2.4593
16568TIP3    H271196   6.381   4.396   3.241 -0.7167 -0.1448  2.8396
16569TIP3   OH271197   5.933   0.600   2.265 -0.1180 -0.2027  0.2406
16569TIP3    H171198   5.887   0.669   2.314  0.6670  0.8994 -0.5259
16569TIP3    H271199   5.873   0.577   2.194  0.8052  1.9234 -1.3407
16570TIP3   OH271200   4.093   0.289  17.129  0.1056 -0.4545 -0.0807
16570TIP3    H171201   4.101   0.354  17.059 -4.3191  0.9487  0.3704
16570TIP3    H271202   4.170   0.304  17.185  0.7497  2.4295 -1.5647
16571TIP3   OH271203   5.944   0.808  16.902  0.3920  0.2161 -0.6219
16571TIP3    H171204   5.951   0.896  16.940 -0.2468  0.3498 -0.8121
16571TIP3    H271205   5.878   0.764  16.956 -0.9218  0.5828 -1.8818
16572TIP3   OH271206   4.985   4.517  15.531 -0.6606 -0.2166 -0.3678
16572TIP3    H171207   5.013   4.593  15.582 -1.2735  0.3121 -0.7983
16572TIP3    H271208   4.910   4.482  15.578 -0.3161 -0.6293 -0.1139
16573TIP3   OH271209   5.884   2.124  11.205  0.2310 -0.0757 -0.2053
16573TIP3    H171210   5.875   2.041  11.158 -0.2703 -0.6060  0.7930
16573TIP3    H271211   5.796   2.160  11.206 -0.0207 -0.6424  1.3061
16574TIP3   OH271212   2.921   5.391  13.738 -0.2019  0.7621  0.2756
16574TIP3    H171213   2.857   5.329  13.702 -1.2715  0.3097  2.7094
16574TIP3    H271214   2.998   5.382  13.682 -1.1124 -1.1458 -0.7691
16575TIP3   OH271215   2.925   1.527   0.265  0.1211 -0.1056 -0.1793
16575TIP3    H171216   2.906   1.620   0.275 -1.8904 -0.2461 -1.9476
16575TIP3    H271217   3.005   1.524   0.214 -1.2931  0.7827 -2.6240
16576TIP3   OH271218   2.070   2.881   3.446  0.2904  0.5932 -0.0795
16576TIP3    H171219   2.099   2.801   3.402  0.2986  0.8756 -0.5862
16576TIP3    H271220   1.979   2.865   3.468 -0.3606  1.2770 -2.1301
16577TIP3   OH271221   3.198   4.364   1.190 -0.1853 -0.7351 -0.4226
16577TIP3    H171222   3.150   4.322   1.119  1.5981 -3.1488 -0.3175
16577TIP3    H271223   3.266   4.301   1.215  0.8215  1.0420  1.7799
16578TIP3   OH271224   2.849   4.620  12.163 -0.7023 -0.5715  0.6502
16578TIP3    H171225   2.942   4.601  12.160 -0.2852  1.3654 -0.5159
16578TIP3    H271226   2.837   4.673  12.242 -0.7348 -0.4564  0.5687
16579TIP3   OH271227   1.942   0.212   0.028  0.0256 -0.3047 -0.0324
16579TIP3    H171228   1.873   0.264  -0.014  0.9118  2.6629  1.8982
16579TIP3    H271229   1.894   0.149   0.082 -1.1198 -0.3364 -1.0304
16580TIP3   OH271230   6.610   3.023   3.442 -1.0115  0.3642 -0.0522
16580TIP3    H171231   6.667   3.003   3.369  0.3939  1.8814  0.5572
16580TIP3    H271232   6.591   3.116   3.433  0.6841  1.0629  2.4059
16581TIP3   OH271233   2.505   1.818   1.057  0.0540  0.0929  0.5179
16581TIP3    H171234   2.553   1.753   1.007  1.4138  0.8640  0.7760
16581TIP3    H271235   2.570   1.858   1.114 -0.7813  1.5201  0.5296
16582TIP3   OH271236   4.386   3.593  15.157 -0.0013 -0.1867 -0.8648
16582TIP3    H171237   4.438   3.515  15.176  1.7682  0.8531 -1.2472
16582TIP3    H271238   4.373   3.634  15.242  1.2206  0.3715 -0.9180
16583TIP3   OH271239   2.668   4.248   2.317  0.0636 -0.1770 -0.0582
16583TIP3    H171240   2.618   4.307   2.374  1.6444  0.2304  0.9543
16583TIP3    H271241   2.698   4.178   2.375  0.6400 -0.4253 -0.6479
16584TIP3   OH271242   6.432   4.571   1.626  0.2162 -0.2716 -0.2307
16584TIP3    H171243   6.521   4.576   1.592 -0.5595 -0.9031 -2.5167
16584TIP3    H271244   6.417   4.477   1.641  0.4649 -0.0327  1.7992
16585TIP3   OH271245   0.876   2.947  15.085 -0.5087  0.3006  0.2561
16585TIP3    H171246   0.934   2.885  15.128  0.2050  1.1430  0.5468
16585TIP3    H271247   0.903   2.947  14.993 -0.5068  0.1919  0.2571
16586TIP3   OH271248   6.268   2.463   3.429 -0.1499  0.3568 -0.1017
16586TIP3    H171249   6.361   2.482   3.442  0.2472 -0.6127 -1.2867
16586TIP3    H271250   6.262   2.437   3.337 -1.5737  0.2535 -0.0014
16587TIP3   OH271251   6.394   0.681  12.637  0.2059 -0.0131 -0.3690
16587TIP3    H171252   6.402   0.683  12.732 -1.4807  0.6546 -0.2086
16587TIP3    H271253   6.301   0.668  12.621  0.2539  1.2442 -1.9290
16588TIP3   OH271254   3.612   5.754  14.672 -0.4113  0.0189  0.1043
16588TIP3    H171255   3.539   5.777  14.615 -0.4286 -0.0392  0.1040
16588TIP3    H271256   3.688   5.797  14.632 -0.0203 -1.7565 -1.1709
16589TIP3   OH271257   3.645   2.622   1.956  0.4363  0.2793  0.4634
16589TIP3    H171258   3.717   2.560   1.943  1.3903  0.9194  2.3525
16589TIP3    H271259   3.646   2.677   1.877 -0.1443 -1.7436 -1.0385
16590TIP3   OH271260   4.810   1.745  13.142 -0.3336  0.9274 -0.3434
16590TIP3    H171261   4.773   1.662  13.174 -0.4950  1.4809  0.9789
16590TIP3    H271262   4.899   1.722  13.115 -0.6791  0.1458 -0.8540
16591TIP3   OH271263   1.221   0.322  13.904  0.3060 -0.3731 -0.3957
16591TIP3    H171264   1.212   0.401  13.957  0.1761 -0.3600 -0.4377
16591TIP3    H271265   1.150   0.327  13.841 -0.0067 -0.7715 -0.0774
16592TIP3   OH271266   6.237   1.087  13.473 -0.1283 -0.2844  0.8524
16592TIP3    H171267   6.245   1.009  13.528 -0.5968 -0.9190  0.0335
16592TIP3    H271268   6.312   1.083  13.414 -0.1176 -0.0850  0.8508
16593TIP3   OH271269   1.665   2.997  16.364 -0.3674 -0.4972  0.1984
16593TIP3    H171270   1.630   2.947  16.290  0.7270 -0.4351 -0.3934
16593TIP3    H271271   1.588   3.033  16.408 -1.0167  0.0757 -1.3375
16594TIP3   OH271272   2.666   0.995  14.093  0.3332 -0.7241 -0.3074
16594TIP3    H171273   2.653   0.945  14.174 -0.7075 -0.8169 -0.5183
16594TIP3    H271274   2.645   0.933  14.023 -0.8410 -0.0657 -0.5756
16595TIP3   OH271275   2.706   4.476  16.520  0.2894  0.1161 -0.6152
16595TIP3    H171276   2.754   4.494  16.600  0.3077  3.0210 -1.1581
16595TIP3    H271277   2.614   4.496  16.541  0.0093 -0.8504 -0.8539
16596TIP3   OH271278   1.591   5.730   2.048 -0.1244  0.5976  0.5291
16596TIP3    H171279   1.555   5.802   2.099 -0.9184 -0.3114  1.2958
16596TIP3    H271280   1.639   5.677   2.111 -1.6478 -0.8833  0.5249
16597TIP3   OH271281   0.799   5.663  15.780 -0.4398 -0.0799  0.4673
16597TIP3    H171282   0.797   5.712  15.698 -1.8274 -3.3061 -1.6675
16597TIP3    H271283   0.892   5.654  15.800 -0.0391  0.6202 -0.9171
16598TIP3   OH271284   1.214   2.168  12.846  0.0171 -0.1244 -0.1104
16598TIP3    H171285   1.279   2.221  12.801 -0.7082 -1.4476 -2.9676
16598TIP3    H271286   1.130   2.207  12.821 -0.4500  1.4201  3.3238
16599TIP3   OH271287   2.079   5.568  15.191 -0.6774  0.0116  0.2887
16599TIP3    H171288   2.104   5.600  15.104  0.5648  0.2364  0.7200
16599TIP3    H271289   2.008   5.505  15.173  0.3616 -0.8582 -1.0083
16600TIP3   OH271290   1.058   6.615   2.649  0.1969  0.6085 -0.1170
16600TIP3    H171291   1.054   6.574   2.736 -1.2851 -0.1477 -0.4908
16600TIP3    H271292   1.150   6.636   2.636  0.5416  0.1605  1.3780
16601TIP3   OH271293   6.546   2.342   2.232  0.3553  0.1765  0.0087
16601TIP3    H171294   6.571   2.316   2.144  0.1847 -0.9299  0.2688
16601TIP3    H271295   6.574   2.433   2.240 -0.2070  0.4882 -1.4006
16602TIP3   OH271296   5.113   2.659  15.082 -0.5373 -0.1028  0.1676
16602TIP3    H171297   5.066   2.738  15.110  0.2243  0.2543  0.4400
16602TIP3    H271298   5.151   2.623  15.162  0.2677  0.0098 -0.1599
16603TIP3   OH271299   0.078   2.708  16.943  0.6528 -0.2197  0.1807
16603TIP3    H171300   0.125   2.702  17.026  0.8940  0.9066  0.1519
16603TIP3    H271301   0.043   2.798  16.942 -1.0211 -0.8366 -0.0555
16604TIP3   OH271302   3.482   3.804  17.230 -0.0778  0.1077  0.1083
16604TIP3    H171303   3.394   3.841  17.223 -0.8402 -1.8412 -1.6789
16604TIP3    H271304   3.522   3.821  17.145  1.0939  0.4508  0.7088
16605TIP3   OH271305   5.302   5.229   3.118  0.8670 -0.4153  0.3044
16605TIP3    H171306   5.280   5.204   3.207  0.5842  1.3192  0.7514
16605TIP3    H271307   5.385   5.185   3.100  1.4353  0.0193  1.7808
16606TIP3   OH271308   0.169   3.493  12.569  0.1077 -0.4609 -0.5064
16606TIP3    H171309   0.122   3.495  12.485  1.3654 -0.9700 -1.2595
16606TIP3    H271310   0.103   3.468  12.633 -0.7689 -0.5900 -1.4286
16607TIP3   OH271311   4.112   6.210   3.019 -0.0785 -0.1120  0.5472
16607TIP3    H171312   4.084   6.175   2.934  0.1848  0.5817  0.1661
16607TIP3    H271313   4.042   6.186   3.080  0.2064 -1.5091  0.3538
16608TIP3   OH271314   2.313   5.944   0.215  0.0196 -0.0653  0.4137
16608TIP3    H171315   2.408   5.943   0.233  0.4149  2.1812 -1.1411
16608TIP3    H271316   2.307   5.931   0.121 -1.2527 -0.2763  0.5113
16609TIP3   OH271317   5.425   6.275  14.621  0.0815  0.4875 -0.4034
16609TIP3    H171318   5.391   6.224  14.547 -3.2662  1.0647  0.6078
16609TIP3    H271319   5.409   6.366  14.597  1.1645  0.8244  0.0769
16610TIP3   OH271320   6.638   6.168   5.771  0.3517  0.1568 -0.2954
16610TIP3    H171321   6.556   6.208   5.742 -0.9830 -2.1463  0.0691
16610TIP3    H271322   6.648   6.198   5.862 -0.4914 -0.0982 -0.1049
16611TIP3   OH271323   6.471   4.966   4.535 -0.0752  0.3878  0.3839
16611TIP3    H171324   6.543   5.029   4.531  0.2994 -0.1036 -1.3370
16611TIP3    H271325   6.429   4.971   4.450 -0.8101 -0.8126  0.6445
16612TIP3   OH271326   6.757   5.381  12.832  0.1581 -0.4255  0.5659
16612TIP3    H171327   6.796   5.458  12.791 -1.5580  0.0437 -0.2788
16612TIP3    H271328   6.698   5.417  12.899  0.1526 -1.0392  0.8951
16613TIP3   OH271329   0.424   5.124  16.717 -0.4619  0.8353 -0.5567
16613TIP3    H171330   0.446   5.148  16.807 -0.1032 -0.4736 -0.2727
16613TIP3    H271331   0.464   5.192  16.663  0.0843  1.1475  0.2339
16614TIP3   OH271332   0.599   2.983   2.204 -0.3288  0.2068  0.3910
16614TIP3    H171333   0.657   2.945   2.138 -0.1131 -0.7875  1.1399
16614TIP3    H271334   0.526   2.922   2.212  0.5957 -0.7199  2.4459
16615TIP3   OH271335   2.512   4.570   2.711  0.1119 -0.1970  0.4650
16615TIP3    H171336   2.430   4.534   2.745 -0.4993  1.1349  0.4519
16615TIP3    H271337   2.571   4.570   2.787 -0.3894  0.2478  0.8617
16616TIP3   OH271338   0.433   5.276   5.355  0.1748 -0.4230  0.1756
16616TIP3    H171339   0.480   5.210   5.406  0.3462 -0.0545  0.4912
16616TIP3    H271340   0.449   5.359   5.400  0.2570 -0.1058 -0.4224
16617TIP3   OH271341   0.226   2.456  14.143  0.7035 -0.1530 -0.1545
16617TIP3    H171342   0.252   2.547  14.152 -1.4313  0.3241  2.2744
16617TIP3    H271343   0.296   2.407  14.187  0.6142  0.5707  0.8361
16618TIP3   OH271344   0.782   1.986   5.752 -0.4326  0.2331 -0.0676
16618TIP3    H171345   0.739   1.976   5.668 -0.3307 -1.7554  0.0652
16618TIP3    H271346   0.719   2.034   5.806 -1.5973 -0.7705 -0.5037
16619TIP3   OH271347   4.547   5.695  13.114 -0.1726 -0.7805 -0.1230
16619TIP3    H171348   4.461   5.667  13.146 -0.3839 -0.4677 -0.4120
16619TIP3    H271349   4.577   5.621  13.062 -0.3146 -0.8487 -0.1108
16620TIP3   OH271350   1.464   1.858   2.615  0.3916 -0.2347  0.0321
16620TIP3    H171351   1.397   1.859   2.684  0.9134 -0.2154  0.5521
16620TIP3    H271352   1.499   1.947   2.615 -0.9646  0.3638 -1.6479
16621TIP3   OH271353   1.433   4.143  11.471  0.2111  0.0651 -0.2616
16621TIP3    H171354   1.372   4.120  11.542  2.3373  0.4117  1.7974
16621TIP3    H271355   1.477   4.222  11.502  2.1049 -0.4961 -1.3680
16622TIP3   OH271356   1.719   6.445  14.594  0.0759 -0.0684  0.5592
16622TIP3    H171357   1.713   6.494  14.676  0.4184  0.7595  0.1017
16622TIP3    H271358   1.666   6.495  14.532  0.7901 -0.0305 -0.0286
16623TIP3   OH271359   6.720   3.104  15.374  0.0857 -0.1985  0.2180
16623TIP3    H171360   6.754   3.098  15.463  1.5946 -0.7711 -0.3470
16623TIP3    H271361   6.742   3.020  15.335  1.8171  0.9248 -1.4335
16624TIP3   OH271362   1.091   6.556  11.067  0.3462 -0.2158 -0.1663
16624TIP3    H171363   1.044   6.638  11.054  0.1970 -0.2337  0.2655
16624TIP3    H271364   1.174   6.568  11.020  0.2801  0.1413 -0.1913
16625TIP3   OH271365   1.763   3.455  14.024  0.2030  0.1611  0.0081
16625TIP3    H171366   1.797   3.459  14.113  0.5667  1.0046 -0.1516
16625TIP3    H271367   1.796   3.372  13.989  1.5643  0.6282  0.0875
16626TIP3   OH271368   3.515   5.117  15.256 -0.2242  0.6116 -0.4151
16626TIP3    H171369   3.433   5.130  15.303 -0.5513 -0.7535 -0.5710
16626TIP3    H271370   3.580   5.106  15.325 -0.6334 -0.9767 -0.2493
16627TIP3   OH271371   0.525   5.182  13.971  0.4625  0.0722 -0.3354
16627TIP3    H171372   0.531   5.189  14.066 -2.4939 -2.7454  0.1930
16627TIP3    H271373   0.468   5.255  13.945  1.5267  1.0367 -0.0802
16628TIP3   OH271374   0.366   0.653  16.570  0.3797 -0.2229  0.0622
16628TIP3    H171375   0.292   0.671  16.511  0.6181 -0.8300 -0.4317
16628TIP3    H271376   0.426   0.726  16.556 -1.1829  1.6216  2.2706
16629TIP3   OH271377   3.006   5.640   5.735  0.1061  0.8102  0.6740
16629TIP3    H171378   3.073   5.701   5.767  0.7674  1.2840 -1.4611
16629TIP3    H271379   2.935   5.647   5.798  1.5472  1.2039  2.3477
16630TIP3   OH271380   2.103   1.275  14.496 -0.2167  0.1211  0.0201
16630TIP3    H171381   2.105   1.305  14.405  1.7832 -0.5687 -0.2091
16630TIP3    H271382   2.188   1.234  14.509 -1.1285 -1.3313  1.7049
16631TIP3   OH271383   3.129   4.315  12.729  0.1910 -0.2375  0.0182
16631TIP3    H171384   3.052   4.261  12.748  0.5116 -0.1610  1.6697
16631TIP3    H271385   3.119   4.391  12.785  0.9566  0.2736 -0.5236
16632TIP3   OH271386   3.242   0.365  11.694 -0.3105  0.1897 -0.0785
16632TIP3    H171387   3.162   0.318  11.671 -0.5383  0.1976  0.6694
16632TIP3    H271388   3.295   0.362  11.615 -1.2901  0.7043 -0.7815
16633TIP3   OH271389   3.679   0.476   1.696  0.7245  0.2082  0.4611
16633TIP3    H171390   3.710   0.549   1.643  0.8852 -0.4660 -0.3838
16633TIP3    H271391   3.613   0.515   1.753 -1.2994  0.5105 -1.9345
16634TIP3   OH271392   4.343   0.043   3.800  0.5752  0.0192 -0.4855
16634TIP3    H171393   4.431   0.066   3.829 -0.0414  0.8876  0.8056
16634TIP3    H271394   4.351  -0.046   3.766  1.4769 -0.9335  2.0180
16635TIP3   OH271395   2.093   1.241  15.332  0.2113 -0.1561  0.9332
16635TIP3    H171396   2.076   1.163  15.279  1.6606  0.3493 -0.3287
16635TIP3    H271397   2.016   1.296  15.320  1.2340  0.7883 -2.2581
16636TIP3   OH271398   2.162   2.694  16.803  0.9872  0.0224 -0.3925
16636TIP3    H171399   2.203   2.762  16.856  0.1824  1.4795 -1.5554
16636TIP3    H271400   2.073   2.687  16.836  1.4771 -1.5725  0.6925
16637TIP3   OH271401   5.241   3.642   0.487 -0.0574 -0.3965 -0.0941
16637TIP3    H171402   5.202   3.568   0.534  0.6318 -0.2897  0.6534
16637TIP3    H271403   5.275   3.602   0.406  2.3391 -1.3715  1.3155
16638TIP3   OH271404   1.450   1.573   5.252 -0.2858  0.2207 -0.4930
16638TIP3    H171405   1.509   1.498   5.261 -0.3952  0.1624 -0.2358
16638TIP3    H271406   1.480   1.619   5.174 -0.8126 -0.6313 -1.2248
16639TIP3   OH271407   0.500   6.220   5.944  0.1058 -0.3999  0.1880
16639TIP3    H171408   0.511   6.310   5.913  0.8329 -0.7952 -0.7587
16639TIP3    H271409   0.548   6.218   6.027  2.7633 -0.6497 -1.2271
16640TIP3   OH271410   5.393   5.560  13.299 -0.0485 -0.1966 -0.4239
16640TIP3    H171411   5.409   5.473  13.262 -0.3790 -0.3468 -0.2207
16640TIP3    H271412   5.479   5.603  13.298  0.5278 -1.1956  1.1836
16641TIP3   OH271413   0.562   1.911  15.381 -0.1022 -0.6600  0.3349
16641TIP3    H171414   0.600   1.829  15.411  3.0240  0.7861  0.7508
16641TIP3    H271415   0.553   1.964  15.461 -2.6658 -0.7107  0.1727
16642TIP3   OH271416   1.374   2.198   4.962 -0.2371  0.0662 -0.5291
16642TIP3    H171417   1.401   2.284   4.928 -0.5537 -0.2049 -1.4880
16642TIP3    H271418   1.318   2.219   5.037  0.9444  0.6599  0.2171
16643TIP3   OH271419   6.570   0.073  17.090  0.1628  0.4187  0.3879
16643TIP3    H171420   6.647   0.036  17.048 -0.7303 -0.6035 -0.4239
16643TIP3    H271421   6.579   0.051  17.182  0.9720  0.5593  0.3484
16644TIP3   OH271422   6.207   2.156   4.558 -0.1028 -0.5589 -0.3628
16644TIP3    H171423   6.286   2.112   4.587  0.2841 -0.2235 -0.8876
16644TIP3    H271424   6.221   2.248   4.581 -0.6272 -0.5977  0.1428
16645TIP3   OH271425   2.203   6.723   1.387 -0.0621 -0.4278  0.3183
16645TIP3    H171426   2.279   6.755   1.338 -1.3531  0.4516 -1.2030
16645TIP3    H271427   2.235   6.646   1.434  2.2865  1.0550  1.3360
16646TIP3   OH271428   4.758   6.766   0.998 -0.1924 -0.0652  0.3954
16646TIP3    H171429   4.841   6.802   1.030 -1.2372  1.9119  1.0152
16646TIP3    H271430   4.756   6.787   0.905 -0.0630  0.0266  0.4130
16647TIP3   OH271431   5.079   1.778  11.805 -0.4096 -0.3100 -0.4778
16647TIP3    H171432   5.076   1.691  11.766  1.1716 -0.6951  0.1490
16647TIP3    H271433   5.057   1.837  11.734 -0.0985 -1.1523 -1.2964
16648TIP3   OH271434   0.072   6.687   5.547  0.2412  0.2332 -0.5672
16648TIP3    H171435   0.160   6.720   5.536  1.1529 -1.7746  0.1040
16648TIP3    H271436   0.062   6.621   5.478  0.2615 -1.3323  0.8335
16649TIP3   OH271437   0.592   0.462  17.004 -0.2199 -0.2886  0.2758
16649TIP3    H171438   0.628   0.401  16.941 -0.8105 -1.2656  0.8476
16649TIP3    H271439   0.528   0.513  16.955 -0.6993 -1.0621  0.0812
16650TIP3   OH271440   1.355   1.242   3.329  0.4985 -0.1627  0.1203
16650TIP3    H171441   1.302   1.226   3.407  1.3586  0.2834  0.8091
16650TIP3    H271442   1.384   1.155   3.302  2.4034 -0.1718  1.9023
16651TIP3   OH271443   3.365   1.913   2.369 -0.0002  0.0836 -0.0073
16651TIP3    H171444   3.295   1.863   2.328  0.1036 -0.8848  0.9636
16651TIP3    H271445   3.441   1.856   2.367  0.7570  1.0889 -0.9573
16652TIP3   OH271446   3.119   1.924   2.040  0.0050  0.0447 -0.3629
16652TIP3    H171447   3.123   1.899   1.947  2.3430  0.4663 -0.4493
16652TIP3    H271448   3.059   1.998   2.043  1.8864  1.7436 -2.0402
16653TIP3   OH271449   4.542   6.171  14.309  0.6718 -0.5498  0.2575
16653TIP3    H171450   4.508   6.137  14.392  2.4674 -0.4333  1.0968
16653TIP3    H271451   4.588   6.252  14.333  0.9575 -0.3489 -0.8950
16654TIP3   OH271452   3.391   1.612  11.905  0.2279 -0.7058 -0.6566
16654TIP3    H171453   3.414   1.540  11.846 -1.4014 -0.8157 -1.2224
16654TIP3    H271454   3.450   1.683  11.882  1.3090 -1.5867 -0.6620
16655TIP3   OH271455   5.227   1.097   1.037 -0.2514  0.1384 -0.2052
16655TIP3    H171456   5.226   1.179   1.085 -0.0233  0.9966 -1.6271
16655TIP3    H271457   5.151   1.049   1.071  0.0631  0.5701  1.1892
16656TIP3   OH271458   1.922   1.066   4.729 -0.6932  0.4340 -0.4428
16656TIP3    H171459   1.855   1.132   4.747 -0.3819  0.6679 -0.1220
16656TIP3    H271460   1.991   1.085   4.792 -1.1235 -0.9632  0.5060
16657TIP3   OH271461   3.474   6.344   6.611  0.3795  0.2013  0.9143
16657TIP3    H171462   3.557   6.304   6.586 -0.4091  0.1925 -1.9878
16657TIP3    H271463   3.499   6.428   6.652  1.8268 -0.7542  2.1093
16658TIP3   OH271464   2.499   5.583   4.351  0.4907  0.4657  0.2339
16658TIP3    H171465   2.545   5.654   4.307 -0.6562  0.6650 -0.6726
16658TIP3    H271466   2.407   5.596   4.330  0.3246 -1.8656 -0.8037
16659TIP3   OH271467   3.861   3.276   0.516  0.0911  0.3776 -0.7336
16659TIP3    H171468   3.942   3.311   0.477  0.3486  1.1341  0.4239
16659TIP3    H271469   3.791   3.315   0.463  0.4643 -0.3188 -1.7793
16660TIP3   OH271470   2.435   1.424  16.805 -0.2773 -0.2927 -0.5279
16660TIP3    H171471   2.459   1.410  16.713 -0.5193  1.9302 -0.9909
16660TIP3    H271472   2.341   1.409  16.808 -0.3862  0.2879 -0.8193
16661TIP3   OH271473   2.565   6.323   1.538  0.1377  0.1749 -0.1282
16661TIP3    H171474   2.633   6.327   1.605 -0.0821  1.4197  0.0504
16661TIP3    H271475   2.491   6.279   1.581 -0.9470  3.1581  1.4042
16662TIP3   OH271476   3.656   3.582  16.278  0.6405 -0.1429  0.8755
16662TIP3    H171477   3.701   3.512  16.325  1.2814 -1.2712 -1.2424
16662TIP3    H271478   3.605   3.536  16.210 -3.2058  1.0994  2.5951
16663TIP3   OH271479   4.638   4.609  15.127  0.3063  0.0269  0.1942
16663TIP3    H171480   4.698   4.561  15.185  1.1641 -1.1930 -1.6166
16663TIP3    H271481   4.684   4.613  15.043 -1.5409  0.3698 -0.8499
16664TIP3   OH271482   4.270   1.463   0.953 -0.3413 -0.1076  0.2946
16664TIP3    H171483   4.203   1.496   0.893 -0.8226  0.3260  1.0560
16664TIP3    H271484   4.353   1.493   0.916 -0.6258  0.0418 -0.2214
16665TIP3   OH271485   0.157   3.802  16.146  0.5551  0.2989  0.2078
16665TIP3    H171486   0.212   3.812  16.224 -0.4443  1.4515  0.7925
16665TIP3    H271487   0.155   3.708  16.130  1.1951  0.0922  1.2558
16666TIP3   OH271488   0.744   0.086   4.546 -0.2494 -0.4863 -0.4118
16666TIP3    H171489   0.750  -0.007   4.524 -4.2075 -1.0497  0.1657
16666TIP3    H271490   0.755   0.089   4.641  0.5421 -0.2008 -0.4973
16667TIP3   OH271491   4.820   0.002  12.583  0.2390  0.4092 -0.5756
16667TIP3    H171492   4.910   0.026  12.607  1.1427  0.4391 -3.6044
16667TIP3    H271493   4.767   0.075  12.615  1.3513  0.7416  0.6255
16668TIP3   OH271494   3.530   2.510   1.175 -0.1065  0.2382  0.4117
16668TIP3    H171495   3.590   2.583   1.190  0.3372  0.3070 -1.5387
16668TIP3    H271496   3.554   2.446   1.242  1.1439  0.8691  0.5992
16669TIP3   OH271497   6.581   6.175  17.319 -0.0736 -0.3186 -0.4640
16669TIP3    H171498   6.543   6.263  17.320 -0.8229 -0.6002 -2.0533
16669TIP3    H271499   6.506   6.116  17.330  0.4125 -0.7892  0.5010
16670TIP3   OH271500   2.880   5.107   5.952 -0.6573  0.1483 -0.1541
16670TIP3    H171501   2.849   5.194   5.977 -0.7444  0.0262  0.1633
16670TIP3    H271502   2.975   5.114   5.952 -0.5316 -0.5615  2.8548
16671TIP3   OH271503   4.170   4.366   3.560 -0.3213 -0.3806  0.3937
16671TIP3    H171504   4.264   4.385   3.555 -0.6833  1.6515  0.5084
16671TIP3    H271505   4.166   4.281   3.605  1.3973  0.5104  2.4385
16672TIP3   OH271506   3.451   1.058   0.536 -0.3256  0.1890 -0.5471
16672TIP3    H171507   3.513   1.059   0.609  0.7130  0.7186 -1.4049
16672TIP3    H271508   3.369   1.090   0.573  0.2250  0.6096  0.3454
16673TIP3   OH271509   0.764   5.507  15.313 -0.1710 -0.0461  0.4423
16673TIP3    H171510   0.831   5.462  15.363 -0.7404  0.1156  1.3652
16673TIP3    H271511   0.716   5.436  15.268  0.2974 -0.1926  0.1669
16674TIP3   OH271512   1.528   3.396  16.519  0.3872 -0.1462  0.2161
16674TIP3    H171513   1.581   3.422  16.444 -1.2678 -1.2599 -1.4347
16674TIP3    H271514   1.588   3.399  16.594  1.8341  2.0108 -0.9284
16675TIP3   OH271515   1.815   5.460   4.801 -0.2557 -0.1624  0.0917
16675TIP3    H171516   1.868   5.505   4.736 -1.5433  0.8782 -0.2976
16675TIP3    H271517   1.792   5.528   4.865  0.2818 -0.9757  1.1759
16676TIP3   OH271518   0.697   1.444   1.921  0.0457 -0.3348 -0.0208
16676TIP3    H171519   0.653   1.398   1.992  0.8524  1.1766  1.5259
16676TIP3    H271520   0.628   1.462   1.858 -1.0982 -0.0714  1.2651
16677TIP3   OH271521   4.079   0.593   2.131  0.6589 -0.2197 -0.3495
16677TIP3    H171522   3.989   0.613   2.158  0.7960  0.4252 -0.3542
16677TIP3    H271523   4.123   0.566   2.211  0.8092  0.7572 -0.0900
16678TIP3   OH271524   1.026   6.292   2.869  0.6565 -0.1326  0.2211
16678TIP3    H171525   1.015   6.282   2.964 -0.0897 -0.1655  0.1338
16678TIP3    H271526   0.971   6.367   2.846  0.4776 -0.4049 -0.2503
16679TIP3   OH271527   1.007   3.730   6.048  0.1795 -0.1851  0.0241
16679TIP3    H171528   1.006   3.796   6.118  1.1227 -1.1317  0.9760
16679TIP3    H271529   0.930   3.749   5.996 -0.2307  0.9208  0.9845
16680TIP3   OH271530   3.228   0.780   5.218 -0.4342  0.3120  0.1290
16680TIP3    H171531   3.206   0.872   5.237 -2.3345 -0.0937  0.0981
16680TIP3    H271532   3.288   0.756   5.288  0.2120  1.6086  0.0624
16681TIP3   OH271533   5.593   4.816  14.373 -0.2909  0.5558  0.1925
16681TIP3    H171534   5.620   4.777  14.457  1.9206  2.4195  0.4330
16681TIP3    H271535   5.632   4.759  14.307  0.7920  0.9290  0.4954
16682TIP3   OH271536   2.274   2.707  14.045  0.4737 -0.4571  0.6854
16682TIP3    H171537   2.221   2.662  14.111  1.0726  0.6439  1.9701
16682TIP3    H271538   2.231   2.687  13.962 -0.2243 -1.9996  1.3758
16683TIP3   OH271539   4.695   6.097  14.978  0.9690 -0.3107 -0.4263
16683TIP3    H171540   4.741   6.023  14.938 -1.0109 -1.6401 -0.3888
16683TIP3    H271541   4.677   6.156  14.905  1.3274 -0.5501 -0.7113
16684TIP3   OH271542   5.858   1.484   4.234 -0.7337 -0.2690 -0.1327
16684TIP3    H171543   5.913   1.462   4.158 -2.2248 -0.4815 -1.1779
16684TIP3    H271544   5.921   1.516   4.299  0.4354  1.5913 -2.0455
16685TIP3   OH271545   3.676   0.276   0.197 -0.0423  0.5706 -0.0678
16685TIP3    H171546   3.596   0.321   0.172  0.2862  2.3044  1.7635
16685TIP3    H271547   3.727   0.270   0.116 -1.9962 -0.6181 -1.2659
16686TIP3   OH271548   6.461   6.617  15.466  0.1532  0.7689  0.3787
16686TIP3    H171549   6.375   6.609  15.424  0.3927  1.2696 -0.2109
16686TIP3    H271550   6.447   6.583  15.555 -0.2527 -0.7113 -0.2154
16687TIP3   OH271551   3.837   1.676  10.699 -0.1922 -0.4562  0.1538
16687TIP3    H171552   3.920   1.718  10.721  0.3334 -1.9993  1.2717
16687TIP3    H271553   3.771   1.733  10.738  0.1266  1.8214 -2.3377
16688TIP3   OH271554   0.629   0.967   5.984  0.1008  0.6313 -0.5048
16688TIP3    H171555   0.613   0.961   6.078  0.0348  0.6959 -0.5123
16688TIP3    H271556   0.713   0.923   5.971  0.0903  0.5871 -0.4210
16689TIP3   OH271557   2.199   4.287  15.657  0.0894  0.6520 -0.2035
16689TIP3    H171558   2.129   4.314  15.597 -1.6158 -0.3047  1.2347
16689TIP3    H271559   2.168   4.204  15.694  1.1093  1.1133  1.8518
16690TIP3   OH271560   3.798   6.015  14.523  0.2296  0.3037  0.6810
16690TIP3    H171561   3.840   6.093  14.488 -1.0431  0.7428  0.0997
16690TIP3    H271562   3.871   5.959  14.550  1.1744  1.9596  1.7561
16691TIP3   OH271563   1.076   1.720   3.499  0.0642  0.0265 -0.1134
16691TIP3    H171564   1.139   1.651   3.478 -0.2532 -0.0042 -1.0118
16691TIP3    H271565   1.086   1.784   3.429 -2.1561 -0.8484 -1.3448
16692TIP3   OH271566   2.237   5.867  13.447  0.1433 -0.0289  0.3665
16692TIP3    H171567   2.176   5.935  13.475  0.7854  0.9440 -0.5373
16692TIP3    H271568   2.184   5.809  13.392  0.1781  1.2630 -1.0933
16693TIP3   OH271569   2.549   3.533  10.869 -0.4982 -0.1635  0.1488
16693TIP3    H171570   2.565   3.625  10.848  1.4241 -0.4672  0.0837
16693TIP3    H271571   2.521   3.494  10.787 -0.2266  0.1495 -0.0969
16694TIP3   OH271572   4.909   4.659  14.463 -0.6295 -0.2039  0.0688
16694TIP3    H171573   4.925   4.724  14.531 -1.5136  0.1772 -0.0738
16694TIP3    H271574   4.818   4.673  14.437 -0.7141 -1.2404 -0.2443
16695TIP3   OH271575   3.416   1.527  14.214  0.5183  0.6843  0.1546
16695TIP3    H171576   3.481   1.521  14.284  0.1366  0.6479  0.5139
16695TIP3    H271577   3.346   1.467  14.242  1.2787 -0.9553 -1.2633
16696TIP3   OH271578   4.579   1.659  15.480 -0.6587 -0.4608  0.0426
16696TIP3    H171579   4.639   1.605  15.428 -1.1490 -1.4380  0.4627
16696TIP3    H271580   4.534   1.715  15.416 -0.9014 -1.2957 -0.5295
16697TIP3   OH271581   3.357   1.069   5.016 -0.0678  0.3568 -0.1376
16697TIP3    H171582   3.402   1.107   5.092  0.0962 -2.4353  1.2805
16697TIP3    H271583   3.427   1.025   4.967 -0.4937  0.4538 -0.8442
16698TIP3   OH271584   1.397   6.303  15.328 -0.5922 -0.2025 -0.2140
16698TIP3    H171585   1.326   6.315  15.264 -2.0506  1.4305  1.5714
16698TIP3    H271586   1.388   6.378  15.387  1.9865 -0.5535  0.7327
16699TIP3   OH271587   0.815   3.208   3.120 -0.6395  0.1711 -0.0802
16699TIP3    H171588   0.875   3.278   3.094 -1.0715  0.0276 -1.5520
16699TIP3    H271589   0.873   3.134   3.141 -0.2355  0.6207  0.4353
16700TIP3   OH271590   3.728   1.668  13.263  0.3741  0.2883 -0.3124
16700TIP3    H171591   3.777   1.658  13.345  0.4009  0.2606 -0.3317
16700TIP3    H271592   3.781   1.621  13.198 -0.1658 -0.5804 -0.1427
16701TIP3   OH271593   5.566   4.060  11.081  0.0468  0.6081 -0.8210
16701TIP3    H171594   5.586   4.011  11.002 -0.9840 -2.5006  0.6381
16701TIP3    H271595   5.641   4.118  11.094  2.0546 -1.5336 -2.0587
16702TIP3   OH271596   2.214   1.690   4.650  0.3128  0.0871  0.4966
16702TIP3    H171597   2.303   1.659   4.638 -0.5071 -3.0914  1.6189
16702TIP3    H271598   2.185   1.648   4.731 -2.5020  0.1781 -0.3573
16703TIP3   OH271599   4.295   2.715  12.542 -0.1433  0.0924  0.4937
16703TIP3    H171600   4.291   2.704  12.447  1.7163 -1.9816  0.5852
16703TIP3    H271601   4.274   2.629  12.578 -1.7814  1.0690  2.0478
16704TIP3   OH271602   2.197   3.026   4.811  0.1287 -0.4559  0.3710
16704TIP3    H171603   2.286   3.061   4.818 -0.8627  2.1412  1.4338
16704TIP3    H271604   2.171   3.010   4.902 -0.3160 -1.7754  0.0334
16705TIP3   OH271605   4.539   1.398   2.616 -0.3418  0.0758 -0.1593
16705TIP3    H171606   4.540   1.489   2.646  0.6205  0.0685 -0.1594
16705TIP3    H271607   4.622   1.386   2.571 -0.4114 -0.8429 -0.0660
16706TIP3   OH271608   2.447   0.904   2.847 -0.7572 -0.1199 -0.5787
16706TIP3    H171609   2.518   0.951   2.891 -1.1724  1.8471 -1.8849
16706TIP3    H271610   2.389   0.876   2.918 -0.6029  1.5696  0.2580
16707TIP3   OH271611   4.490   1.826  12.296  0.4229 -0.2465  0.5058
16707TIP3    H171612   4.449   1.740  12.303  0.8003 -0.3347  1.9688
16707TIP3    H271613   4.577   1.815  12.334  0.3008  0.8711  1.1760
16708TIP3   OH271614   5.369   6.725   2.625  0.2510  0.0086 -0.1642
16708TIP3    H171615   5.405   6.669   2.694  0.4204  0.0313 -0.2327
16708TIP3    H271616   5.274   6.719   2.636  0.2757 -0.0529  0.0189
16709TIP3   OH271617   6.309   3.767   6.575 -0.0495 -0.5074 -0.4896
16709TIP3    H171618   6.252   3.690   6.576  1.0248 -1.3254 -0.1581
16709TIP3    H271619   6.249   3.841   6.560 -1.5299 -1.0209  2.3139
16710TIP3   OH271620   5.286   2.174   0.197 -0.1512  0.2768  0.1059
16710TIP3    H171621   5.308   2.126   0.276  0.9967  0.9603  0.2166
16710TIP3    H271622   5.277   2.265   0.226  2.1684  0.8768 -0.8159
16711TIP3   OH271623   2.060   4.083  13.448 -0.1488  0.7437  0.7511
16711TIP3    H171624   1.998   4.091  13.375  1.2795  0.1683 -0.5718
16711TIP3    H271625   2.109   4.003  13.429 -0.9604 -0.4571  3.3342
16712TIP3   OH271626   4.173   2.937   2.116  0.3158  0.1100  0.3212
16712TIP3    H171627   4.110   2.983   2.061  1.8589  1.4497 -0.4050
16712TIP3    H271628   4.143   2.846   2.115 -2.0115  0.8060  0.6480
16713TIP3   OH271629   4.301   6.667  16.173  0.2969 -0.1170  0.1987
16713TIP3    H171630   4.269   6.581  16.202  2.2203 -1.2739 -0.8898
16713TIP3    H271631   4.338   6.706  16.252  0.1204 -0.6336  0.5412
16714TIP3   OH271632   6.312   2.022   3.572  0.1300  0.1993  0.5799
16714TIP3    H171633   6.296   1.934   3.537  2.2961  0.4546 -1.2426
16714TIP3    H271634   6.404   2.022   3.596  0.3556  2.1766 -0.1291
16715TIP3   OH271635   0.801   3.023   4.106 -0.2101 -0.0591  0.6106
16715TIP3    H171636   0.782   2.932   4.126 -0.5472 -0.2192 -0.3691
16715TIP3    H271637   0.854   3.019   4.026  0.8460  0.5489  1.2650
16716TIP3   OH271638   5.023   2.816   3.675 -0.0192 -0.2999  0.0099
16716TIP3    H171639   5.069   2.737   3.644 -0.4537 -0.0015 -1.5063
16716TIP3    H271640   5.016   2.804   3.770 -0.4511 -2.3126 -0.2096
16717TIP3   OH271641   4.578   1.403  12.254  0.6763 -0.5992 -0.4505
16717TIP3    H171642   4.649   1.387  12.317  1.3837 -2.1520 -1.5830
16717TIP3    H271643   4.585   1.331  12.191 -1.2158 -0.1575 -1.2347
16718TIP3   OH271644   1.049   6.632   0.374 -0.4411  0.2630  0.2856
16718TIP3    H171645   1.087   6.553   0.412  0.2214  0.8446  0.8647
16718TIP3    H271646   0.986   6.600   0.310 -0.2162 -0.7322  0.5450
16719TIP3   OH271647   3.221   4.576   6.285 -0.3312 -1.0422 -0.2858
16719TIP3    H171648   3.291   4.546   6.343  0.8706 -0.4301 -1.3534
16719TIP3    H271649   3.164   4.628   6.341  1.0710 -0.0452  0.2840
16720TIP3   OH271650   1.047   5.315   1.048 -0.2633  0.0137 -0.1240
16720TIP3    H171651   1.068   5.335   1.139 -1.3340 -1.0153  0.3785
16720TIP3    H271652   1.129   5.284   1.010  0.2706  0.7911  0.3844
16721TIP3   OH271653   5.754   6.211   0.933  0.0927 -0.0179  0.1283
16721TIP3    H171654   5.701   6.286   0.957  0.5792  0.1956  0.5531
16721TIP3    H271655   5.715   6.179   0.851  0.0759  0.8773 -0.2194
16722TIP3   OH271656   4.043   0.664   4.162 -0.5363  0.0444 -0.3185
16722TIP3    H171657   4.092   0.680   4.243 -1.2423  0.6266  0.0017
16722TIP3    H271658   4.106   0.680   4.092  0.6680 -2.3731  0.1045
16723TIP3   OH271659   1.675   1.116   5.842  0.6942 -0.0236 -0.1418
16723TIP3    H171660   1.636   1.203   5.835  0.3807 -0.1705 -0.2058
16723TIP3    H271661   1.752   1.129   5.897 -1.3616 -0.3487  3.0517
16724TIP3   OH271662   3.911   0.974  16.974  1.0862 -0.0174  0.3674
16724TIP3    H171663   3.880   0.964  16.884  0.3086  3.5871  0.0819
16724TIP3    H271664   3.905   0.885  17.011 -2.3998 -0.9786 -1.9271
16725TIP3   OH271665   5.509   2.382  15.479 -0.1376 -0.3585  0.0148
16725TIP3    H171666   5.545   2.421  15.399 -0.7313 -0.8587 -0.5009
16725TIP3    H271667   5.496   2.457  15.538 -3.6120  0.6997 -1.8448
16726TIP3   OH271668   4.192   2.068   4.401 -0.0736  0.2926  0.3395
16726TIP3    H171669   4.287   2.055   4.400 -0.0268  0.2808 -2.2979
16726TIP3    H271670   4.172   2.104   4.315 -2.6375 -1.1062  0.2498
16727TIP3   OH271671   0.306   5.360   1.425 -0.1609 -1.0128  0.8666
16727TIP3    H171672   0.281   5.419   1.354 -0.6863 -1.2952  0.8121
16727TIP3    H271673   0.224   5.319   1.453  0.1275 -1.3559  1.2299
16728TIP3   OH271674   6.508   3.641  16.182  0.1517 -0.1886  0.0290
16728TIP3    H171675   6.478   3.630  16.091 -0.4529 -0.7007  0.2882
16728TIP3    H271676   6.545   3.729  16.184 -0.3510  0.0444 -0.5742
16729TIP3   OH271677   0.964   2.849  13.123  0.0366 -0.2567  0.0431
16729TIP3    H171678   1.052   2.817  13.104  0.9716  0.8052  2.2922
16729TIP3    H271679   0.971   2.891  13.208 -2.9771 -1.3916  1.0016
16730TIP3   OH271680   0.610   1.806   6.431 -0.6846 -0.1888  0.2531
16730TIP3    H171681   0.583   1.725   6.387 -0.7094  0.7594 -1.6106
16730TIP3    H271682   0.571   1.875   6.378 -0.0486  1.0669  1.3686
16731TIP3   OH271683   1.470   3.702   4.557 -0.4971 -0.1467 -0.4729
16731TIP3    H171684   1.548   3.742   4.518 -0.4775 -0.1006 -0.3863
16731TIP3    H271685   1.483   3.710   4.651 -0.2202 -0.8827 -0.4481
16732TIP3   OH271686   1.492   1.483   3.251  0.1398 -0.3637  0.3275
16732TIP3    H171687   1.541   1.463   3.172  0.4701 -0.9541  0.6673
16732TIP3    H271688   1.459   1.398   3.281  0.5842 -0.2535  1.1829
16733TIP3   OH271689   4.861   2.186  12.255  0.0735 -0.1362  0.7440
16733TIP3    H171690   4.917   2.114  12.224  0.3231 -0.2546  1.4479
16733TIP3    H271691   4.895   2.206  12.342 -0.6556  0.1449  0.9647
16734TIP3   OH271692   5.908   2.845   2.538  0.4034 -0.0392  0.3276
16734TIP3    H171693   5.939   2.909   2.602  0.8168  0.6707 -0.5429
16734TIP3    H271694   5.875   2.772   2.590 -2.2803  1.8188  1.4847
16735TIP3   OH271695   0.111   2.628  16.419  0.0540  0.4800  0.2070
16735TIP3    H171696   0.137   2.684  16.346 -0.7602 -0.0080 -0.4801
16735TIP3    H271697   0.161   2.547  16.405  1.9508  1.3218  1.7242
16736TIP3   OH271698   6.816   2.956  17.046 -0.1943 -0.2100 -0.0404
16736TIP3    H171699   6.898   3.002  17.063  0.1434 -1.2950  1.4954
16736TIP3    H271700   6.774   2.950  17.132 -2.0847  0.6504 -0.8518
16737TIP3   OH271701   3.235   3.531  15.018 -0.2048 -0.5164 -0.7170
16737TIP3    H171702   3.235   3.436  15.032 -0.5874 -0.3022  0.9780
16737TIP3    H271703   3.328   3.555  15.015 -0.1064 -0.9600 -1.2630
16738TIP3   OH271704   1.440   1.199  16.129  0.3680 -0.0413  0.2395
16738TIP3    H171705   1.532   1.213  16.105  1.0715 -2.1743  1.4641
16738TIP3    H271706   1.391   1.226  16.051  1.9814  1.4292 -0.3335
16739TIP3   OH271707   3.493   2.577  12.524  0.1626  0.1656 -0.1692
16739TIP3    H171708   3.427   2.647  12.520  0.1775  0.1338 -1.1473
16739TIP3    H271709   3.442   2.498  12.543  0.0845  0.3548  0.4275
16740TIP3   OH271710   5.402   6.732  11.730 -0.3615  0.0492  0.2409
16740TIP3    H171711   5.394   6.728  11.635 -1.0906 -1.9786  0.3296
16740TIP3    H271712   5.331   6.790  11.758 -1.0468 -0.4597 -0.3866
16741TIP3   OH271713   4.632   0.930   1.869  0.8985 -0.0304 -0.4108
16741TIP3    H171714   4.668   1.018   1.871 -0.4133  0.5684  2.6493
16741TIP3    H271715   4.585   0.924   1.785  1.5218  1.9283 -0.9367
16742TIP3   OH271716   3.764   1.148  15.862 -0.0071  0.5070 -0.0729
16742TIP3    H171717   3.833   1.211  15.882  0.6247 -0.1212 -0.2455
16742TIP3    H271718   3.705   1.194  15.803  0.7610  0.7530 -0.6650
16743TIP3   OH271719   0.732   3.811  16.349 -0.1537  0.1393 -0.2768
16743TIP3    H171720   0.663   3.850  16.403 -1.9005 -1.2866 -1.3270
16743TIP3    H271721   0.760   3.734  16.399 -0.5217 -0.1991 -0.5816
16744TIP3   OH271722   0.824   3.555   1.164 -0.5612  0.1463  0.0101
16744TIP3    H171723   0.866   3.589   1.243 -0.4599  1.0914 -0.4394
16744TIP3    H271724   0.745   3.511   1.195  0.5114 -1.2678  0.8284
16745TIP3   OH271725   3.164   5.894  13.503  0.3815  0.2348  0.4726
16745TIP3    H171726   3.163   5.801  13.526  0.7446  0.0843 -0.1120
16745TIP3    H271727   3.256   5.915  13.489  0.2801  0.6285  0.3622
16746TIP3   OH271728   2.785   6.527   3.080  0.0535  0.1717 -0.1491
16746TIP3    H171729   2.797   6.599   3.142 -0.4764 -0.5556  0.8287
16746TIP3    H271730   2.697   6.494   3.098 -1.3898  1.8143 -3.3163
16747TIP3   OH271731   6.027   6.178   2.811 -0.5106  0.3485 -0.2482
16747TIP3    H171732   6.120   6.201   2.807 -0.0606 -1.1281  0.7104
16747TIP3    H271733   6.017   6.135   2.896 -1.5337 -1.6933 -1.3175
16748TIP3   OH271734   5.765   5.957  16.720 -0.4738 -0.5175 -0.4685
16748TIP3    H171735   5.806   6.043  16.729  2.1995 -1.7591  0.3758
16748TIP3    H271736   5.721   5.960  16.635  1.1552  1.0785 -1.3236
16749TIP3   OH271737   6.587   2.774   0.002  0.0624  0.0007 -0.6017
16749TIP3    H171738   6.593   2.687  -0.038  0.6668  0.2885 -1.1633
16749TIP3    H271739   6.662   2.779   0.061  1.2660  0.8976 -2.1402
16750TIP3   OH271740   5.003   2.504  12.105  0.2829 -0.0201 -0.1511
16750TIP3    H171741   4.919   2.541  12.076  0.4310 -1.4024 -2.6858
16750TIP3    H271742   5.065   2.576  12.094 -0.1424  0.2522 -0.9248
16751TIP3   OH271743   1.838   4.771  14.164 -0.4288 -0.3301  0.1608
16751TIP3    H171744   1.770   4.835  14.140  1.3737  1.6740  0.1421
16751TIP3    H271745   1.865   4.796  14.252  0.3853 -1.0060  0.1139
16752TIP3   OH271746   5.602   5.879   4.557 -0.8557  0.0941 -0.0297
16752TIP3    H171747   5.678   5.822   4.572 -0.6203  0.3952 -0.0580
16752TIP3    H271748   5.617   5.916   4.470 -0.0356  1.6569  0.7348
16753TIP3   OH271749   0.741   0.977  13.334 -0.0382 -0.0778 -0.2382
16753TIP3    H171750   0.710   0.917  13.402  0.4404 -0.3234 -0.2299
16753TIP3    H271751   0.671   1.043  13.326  0.1297  0.2547  0.8633
16754TIP3   OH271752   6.207   2.195   5.445  0.3816 -0.1600 -0.2695
16754TIP3    H171753   6.290   2.184   5.492 -0.4994 -0.8629  1.2085
16754TIP3    H271754   6.140   2.190   5.514 -1.0318 -2.0106 -1.6610
16755TIP3   OH271755   0.158   3.605  10.612  0.4402 -0.1881  0.1171
16755TIP3    H171756   0.167   3.609  10.517 -1.6391  0.8442 -0.1142
16755TIP3    H271757   0.243   3.633  10.646  2.0500 -2.9132 -1.3385
16756TIP3   OH271758   4.402   3.967   0.472  0.3016 -0.0611 -0.2560
16756TIP3    H171759   4.322   3.951   0.522  0.3866 -3.4105 -0.9679
16756TIP3    H271760   4.460   4.013   0.533 -1.4448  0.7018  0.8977
16757TIP3   OH271761   2.731   0.367  13.941 -0.7918  0.3295  0.1646
16757TIP3    H171762   2.658   0.408  13.894 -1.2733 -0.4622  0.2160
16757TIP3    H271763   2.802   0.431  13.934 -0.8397  0.2238 -1.6693
16758TIP3   OH271764   1.099   0.333   0.458 -0.6010  1.2085 -0.0550
16758TIP3    H171765   1.061   0.249   0.481 -1.5530  1.7998  0.6227
16758TIP3    H271766   1.188   0.330   0.493 -0.8409  0.7190  0.5275
16759TIP3   OH271767   6.584   4.714   3.097  0.1753  0.1494 -0.3760
16759TIP3    H171768   6.589   4.789   3.037  2.7752 -0.1364 -0.6275
16759TIP3    H271769   6.674   4.683   3.103 -0.4749 -1.5140  1.5941
16760TIP3   OH271770   2.982   6.116  14.508 -0.0324  0.4160 -0.1201
16760TIP3    H171771   3.063   6.112  14.560  0.5584  1.6000 -0.8949
16760TIP3    H271772   3.011   6.113  14.417 -1.0262 -1.1685 -0.4175
16761TIP3   OH271773   2.741   6.811  16.835 -0.1673  0.4161  0.2000
16761TIP3    H171774   2.833   6.830  16.851 -0.2596  0.5316  0.6219
16761TIP3    H271775   2.697   6.840  16.915 -0.6647  1.0773 -0.3086
16762TIP3   OH271776   0.126   1.222  14.109 -0.2086 -0.0125  0.5700
16762TIP3    H171777   0.120   1.128  14.123 -0.6945 -0.0844 -0.1099
16762TIP3    H271778   0.198   1.250  14.166 -1.2557 -0.4953  2.2113
16763TIP3   OH271779   3.073   6.654  14.293 -0.3174 -0.4271 -0.4722
16763TIP3    H171780   3.058   6.608  14.376 -0.3012  0.9706  0.3425
16763TIP3    H271781   3.168   6.654  14.282 -0.3306 -0.7703 -0.5854
16764TIP3   OH271782   6.718   5.649  11.726  0.4271 -0.2078 -0.2264
16764TIP3    H171783   6.769   5.717  11.682  2.3460 -1.0032  0.6555
16764TIP3    H271784   6.716   5.577  11.663  1.8206 -0.7626  0.3237
16765TIP3   OH271785   4.690   6.512   2.487  0.1659  0.1162  0.0568
16765TIP3    H171786   4.658   6.458   2.559  1.2312 -0.6771 -0.0243
16765TIP3    H271787   4.621   6.576   2.471 -0.8814 -0.8580  0.5570
16766TIP3   OH271788   4.051   1.713   1.206  0.4523  0.5736  0.2150
16766TIP3    H171789   4.086   1.629   1.235 -3.1982 -1.5533 -0.9618
16766TIP3    H271790   4.010   1.751   1.283 -2.4701 -1.3856 -0.2268
16767TIP3   OH271791   0.328   4.650  11.310 -0.1707 -0.2108  0.8989
16767TIP3    H171792   0.299   4.636  11.220 -0.1640 -1.1117  1.0277
16767TIP3    H271793   0.249   4.636  11.363 -0.1886  0.3798  1.0261
16768TIP3   OH271794   2.255   0.366  13.246 -0.0914 -0.0494 -0.3740
16768TIP3    H171795   2.296   0.304  13.185  0.1070  0.3136 -0.6094
16768TIP3    H271796   2.187   0.409  13.195  1.5847  1.9262 -1.0397
16769TIP3   OH271797   4.356   5.627  14.752  0.3917 -0.4985 -0.3712
16769TIP3    H171798   4.398   5.614  14.837 -1.3357  0.9327  0.7936
16769TIP3    H271799   4.322   5.540  14.729 -0.2347 -0.6713  1.0712
16770TIP3   OH271800   1.103   3.849  13.162  0.0422 -0.2827  0.9815
16770TIP3    H171801   1.093   3.755  13.176  0.0554 -0.7192 -1.5224
16770TIP3    H271802   1.072   3.864  13.073  1.9786  1.7394  0.5436
16771TIP3   OH271803   0.454   4.289   1.546  0.1053  0.2692  0.0138
16771TIP3    H171804   0.368   4.308   1.509  0.5415 -0.5074 -1.4897
16771TIP3    H271805   0.502   4.371   1.539  0.6443 -0.1727 -2.6169
16772TIP3   OH271806   6.562   2.801  15.664 -0.2152 -0.5864 -0.1784
16772TIP3    H171807   6.640   2.746  15.669  0.1182 -0.0163  2.9063
16772TIP3    H271808   6.511   2.778  15.741 -1.4664  1.4198 -0.3143
16773TIP3   OH271809   2.731   4.255  15.001  0.2922  0.0229 -0.3814
16773TIP3    H171810   2.715   4.244  14.907  0.2380  0.7297 -0.4590
16773TIP3    H271811   2.783   4.179  15.026  2.1064  0.8512 -1.4197
16774TIP3   OH271812   4.225   2.442  14.957 -0.2417  0.4213 -0.1032
16774TIP3    H171813   4.161   2.383  14.917 -0.3108  0.6932 -0.3970
16774TIP3    H271814   4.271   2.481  14.883 -1.3544  2.0336  0.0112
16775TIP3   OH271815   1.585   6.059   0.123  0.5826 -0.3893 -0.4827
16775TIP3    H171816   1.633   6.083   0.044 -0.1603  1.0090 -0.5484
16775TIP3    H271817   1.586   5.963   0.124 -0.4367 -0.5005 -2.8704
16776TIP3   OH271818   3.789   4.865  11.421  0.3971 -0.0769  0.1995
16776TIP3    H171819   3.776   4.945  11.472  4.3864  0.6046  0.4584
16776TIP3    H271820   3.765   4.889  11.331 -2.2803  0.0808  0.8721
16777TIP3   OH271821   1.560   4.798   2.866 -0.5037  0.4188  0.5861
16777TIP3    H171822   1.502   4.872   2.846  0.4218  1.3612  1.2776
16777TIP3    H271823   1.646   4.827   2.836 -0.2856 -0.7511  0.0494
16778TIP3   OH271824   0.091   3.250   4.988  0.7502  0.1752  0.0021
16778TIP3    H171825   0.083   3.218   5.078 -0.4819  1.7110  0.4775
16778TIP3    H271826   0.168   3.205   4.953 -0.4763 -2.8436  0.7931
16779TIP3   OH271827   4.367   0.654   1.035  0.0448 -0.0163 -0.1522
16779TIP3    H171828   4.412   0.701   0.964 -0.0712 -1.3725 -1.1643
16779TIP3    H271829   4.367   0.563   1.007 -3.1017 -0.1489 -0.1305
16780TIP3   OH271830   1.667   1.526   6.451 -0.4581 -0.2193 -0.4751
16780TIP3    H171831   1.739   1.546   6.510 -1.6824 -1.4155  1.5493
16780TIP3    H271832   1.655   1.605   6.399  2.5023 -0.1132 -1.1602
16781TIP3   OH271833   6.087   6.683   0.326  0.6811 -1.0835  0.1553
16781TIP3    H171834   6.157   6.705   0.265  0.5482 -1.0582  0.0093
16781TIP3    H271835   6.131   6.665   0.409  0.8722 -1.2119  0.0259
16782TIP3   OH271836   2.569   2.775  11.043  0.1011  0.5348  0.2275
16782TIP3    H171837   2.657   2.769  11.007 -0.4381  2.2504 -1.5356
16782TIP3    H271838   2.533   2.687  11.033  1.7986 -0.4097  1.6907
16783TIP3   OH271839   0.944   0.827  16.905  0.3152 -0.1280 -0.0104
16783TIP3    H171840   0.992   0.787  16.977 -1.1274 -2.4012 -0.2103
16783TIP3    H271841   0.856   0.840  16.938  0.5473  2.5029 -0.1716
16784TIP3   OH271842   3.816   5.525  12.337 -0.3659  0.4846 -0.0567
16784TIP3    H171843   3.734   5.483  12.311  0.0621 -1.8150  1.9000
16784TIP3    H271844   3.789   5.607  12.377 -2.2647 -1.6355  3.6296
16785TIP3   OH271845   4.565   4.541   3.175  0.3395  0.4565  0.3599
16785TIP3    H171846   4.625   4.603   3.134 -0.5570  1.4282  0.4911
16785TIP3    H271847   4.547   4.477   3.106  2.0239 -0.2525  0.5154
16786TIP3   OH271848   2.244   0.901  12.170  0.2190  0.6552 -0.8523
16786TIP3    H171849   2.302   0.844  12.120  0.8045  1.1146 -0.7051
16786TIP3    H271850   2.163   0.851  12.179  0.9841 -0.4901 -0.0311
16787TIP3   OH271851   5.406   2.848  12.840 -0.3312 -0.1329  0.6174
16787TIP3    H171852   5.349   2.864  12.765  0.5947  0.6747  0.0530
16787TIP3    H271853   5.347   2.838  12.915 -1.1905  0.9635  0.1011
16788TIP3   OH271854   0.584   4.903   1.416 -0.0056  0.1130 -0.3115
16788TIP3    H171855   0.575   4.905   1.321  0.2382  2.0595 -0.3343
16788TIP3    H271856   0.555   4.989   1.445 -2.2425 -1.1731  1.6372
16789TIP3   OH271857   2.074   0.972   2.585 -0.0850  0.1202 -0.2200
16789TIP3    H171858   2.048   0.904   2.524 -1.1281  1.9614 -1.9524
16789TIP3    H271859   2.013   0.963   2.658  0.4928 -1.4424  0.1002
16790TIP3   OH271860   1.889   2.437   5.328 -0.0458  0.1634  0.3632
16790TIP3    H171861   1.941   2.516   5.344  0.8514 -0.7699  2.4245
16790TIP3    H271862   1.800   2.463   5.353 -0.1501  1.0417 -0.8137
16791TIP3   OH271863   5.755   2.250  13.521  0.3657  1.3201  0.0105
16791TIP3    H171864   5.830   2.194  13.540  0.0461  0.8670 -0.0662
16791TIP3    H271865   5.692   2.193  13.477  0.0290  1.7323 -0.0509
16792TIP3   OH271866   1.023   6.210  14.982 -0.1278 -0.3268  0.5050
16792TIP3    H171867   0.987   6.157  15.053 -1.4980 -0.4002 -0.2068
16792TIP3    H271868   0.952   6.269  14.958  0.0709 -0.7592 -1.2588
16793TIP3   OH271869   1.366   5.359  15.208  0.0242  0.2873  0.0313
16793TIP3    H171870   1.284   5.406  15.223  0.6080  1.8921 -1.5164
16793TIP3    H271871   1.412   5.410  15.141  2.9398  0.2483  1.7961
16794TIP3   OH271872   0.900   2.179   2.121 -0.1596 -0.4140  0.3675
16794TIP3    H171873   0.993   2.202   2.122 -0.8505  3.1763 -1.5717
16794TIP3    H271874   0.864   2.224   2.197 -0.9635  2.4131 -1.5344
16795TIP3   OH271875   1.464   6.099  12.340  0.3293 -0.1915  0.1589
16795TIP3    H171876   1.432   6.010  12.355  0.9718 -0.6556 -1.0930
16795TIP3    H271877   1.391   6.155  12.365 -0.0813 -1.0557  0.9938
16796TIP3   OH271878   4.145   5.244  15.900 -0.2017 -0.3556 -0.0655
16796TIP3    H171879   4.115   5.316  15.845  1.8372  0.2813 -0.4357
16796TIP3    H271880   4.205   5.195  15.843  0.4221 -0.8403  0.9897
16797TIP3   OH271881   1.333   3.766  16.704  0.6330 -0.1323  0.2563
16797TIP3    H171882   1.402   3.699  16.709 -0.5586 -1.7273 -2.6615
16797TIP3    H271883   1.374   3.838  16.656  0.7870 -0.3280  0.0932
16798TIP3   OH271884   1.156   2.323  11.465  0.0030  0.4511  0.0768
16798TIP3    H171885   1.247   2.353  11.463 -0.2706  1.5196  1.7938
16798TIP3    H271886   1.105   2.398  11.437 -0.3725 -0.1382 -0.8591
16799TIP3   OH271887   3.645   4.965   5.829 -0.3607 -0.4625 -0.1536
16799TIP3    H171888   3.728   4.925   5.804 -0.8603 -1.6069 -0.0495
16799TIP3    H271889   3.593   4.964   5.749  0.3020  1.8785 -0.6879
16800TIP3   OH271890   4.612   4.062   4.005  0.2823 -0.4672 -0.3881
16800TIP3    H171891   4.542   3.996   4.000  2.5558 -3.0738  0.1030
16800TIP3    H271892   4.586   4.128   3.941 -1.5781 -2.4033 -1.8036
16801TIP3   OH271893   6.005   6.693  16.605  0.4842 -0.0165 -0.4328
16801TIP3    H171894   5.987   6.781  16.635 -0.9954 -0.3327 -0.3252
16801TIP3    H271895   5.986   6.695  16.511  1.8944  0.1340 -0.7410
16802TIP3   OH271896   0.176   6.775  16.865 -0.0793  0.3306  0.2732
16802TIP3    H171897   0.139   6.800  16.950  1.4271  0.9529  0.7900
16802TIP3    H271898   0.201   6.683  16.876 -0.8213  0.1058  0.1441
16803TIP3   OH271899   2.862   0.694   6.141 -0.0723 -0.1307 -0.0532
16803TIP3    H171900   2.805   0.628   6.179  0.1435 -1.2284 -1.5358
16803TIP3    H271901   2.930   0.644   6.095  0.8118  1.1295 -0.1769
16804TIP3   OH271902   5.905   3.014  12.019 -0.2968 -0.0156  0.1946
16804TIP3    H171903   5.891   3.042  12.110  0.2516 -2.7934  1.2356
16804TIP3    H271904   5.817   2.993  11.987 -0.2193 -2.2479  1.2950
16805TIP3   OH271905   0.009   6.618   1.649  0.0097 -0.2344  0.3494
16805TIP3    H171906   0.067   6.682   1.607  0.4640 -0.6027  0.4126
16805TIP3    H271907   0.063   6.540   1.661 -0.8991 -1.0895 -0.9066
16806TIP3   OH271908   4.445   6.412  11.495 -0.3273  0.2989 -0.5818
16806TIP3    H171909   4.407   6.359  11.565 -1.5720  1.6977 -0.1268
16806TIP3    H271910   4.467   6.495  11.538  2.6125 -0.1469 -1.0098
16807TIP3   OH271911   2.871   1.201   2.674  0.4283 -0.1594  0.6590
16807TIP3    H171912   2.832   1.128   2.724  1.5158 -0.9578  0.3770
16807TIP3    H271913   2.832   1.194   2.587  1.2260 -1.0116  0.3510
16808TIP3   OH271914   2.057   4.536  13.566  0.2841  0.5176  0.2900
16808TIP3    H171915   2.146   4.570  13.560  1.3374 -1.7513  1.5636
16808TIP3    H271916   2.050   4.501  13.655 -0.6072 -2.5061 -0.8448
16809TIP3   OH271917   1.970   1.420   0.549 -0.2476  0.0093 -0.0857
16809TIP3    H171918   1.992   1.508   0.521  1.3186 -0.3007  0.0935
16809TIP3    H271919   1.923   1.432   0.632  2.7333  0.6348  1.6746
16810TIP3   OH271920   4.554   3.764   6.130  0.1150  0.1181  0.2629
16810TIP3    H171921   4.577   3.671   6.134 -0.3127 -0.0720 -1.0800
16810TIP3    H271922   4.540   3.789   6.221  1.0398 -0.9170  0.7157
16811TIP3   OH271923   3.126   0.936  14.653 -0.5673  0.2754 -0.7160
16811TIP3    H171924   3.095   1.008  14.709 -2.7833  1.0473 -2.7881
16811TIP3    H271925   3.051   0.877  14.646  0.6048 -1.2998 -0.6399
16812TIP3   OH271926   3.726   5.903  13.588 -0.2293 -0.1879 -0.9771
16812TIP3    H171927   3.710   5.959  13.664  0.3362 -0.3735 -0.7161
16812TIP3    H271928   3.747   5.963  13.517 -3.1427  0.1688 -1.6597
16813TIP3   OH271929   5.339   6.154  17.062 -0.1666 -0.4256  0.5202
16813TIP3    H171930   5.420   6.135  17.109 -0.4364 -0.8689  0.8165
16813TIP3    H271931   5.347   6.103  16.981 -0.1438 -0.4506  0.5388
16814TIP3   OH271932   6.212   4.051   4.543  0.1428  0.9473  0.4119
16814TIP3    H171933   6.230   4.143   4.523  0.1183  0.6166 -1.2071
16814TIP3    H271934   6.209   4.048   4.639 -0.4500  2.7461  0.4874
16815TIP3   OH271935   0.024   4.709   4.156  0.3357  0.5367 -0.0994
16815TIP3    H171936   0.085   4.665   4.097 -0.4705 -0.0072 -0.5465
16815TIP3    H271937  -0.054   4.723   4.104  0.4397  2.2267  0.1313
16816TIP3   OH271938   1.160   0.914  10.983 -0.2446 -0.4561 -0.1133
16816TIP3    H171939   1.111   0.891  10.904 -2.2728  0.1175  0.9246
16816TIP3    H271940   1.164   0.832  11.033 -0.2666 -0.4607 -0.1190
16817TIP3   OH271941   5.262   0.137   1.700 -0.1062  0.0550  0.5533
16817TIP3    H171942   5.225   0.064   1.650  1.9167 -1.6071  1.2988
16817TIP3    H271943   5.287   0.201   1.634  0.0342 -0.8884 -0.3376
16818TIP3   OH271944   1.224   4.090  15.728  0.0961  0.0024 -0.6305
16818TIP3    H171945   1.218   4.144  15.649 -0.0582  3.0740  1.3035
16818TIP3    H271946   1.287   4.135  15.783  0.5590 -2.3141  0.8695
16819TIP3   OH271947   2.836   5.368  11.442 -0.1810 -0.6943 -0.5021
16819TIP3    H171948   2.892   5.359  11.519  0.1480 -0.7948 -0.7516
16819TIP3    H271949   2.869   5.447  11.397 -2.9095  1.8585  1.5731
16820TIP3   OH271950   0.901   3.883  12.031  0.2692 -0.5326  0.1555
16820TIP3    H171951   0.885   3.942  12.104  1.7691 -0.1556  0.2114
16820TIP3    H271952   0.914   3.797  12.072  0.2866 -0.4785  0.2633
16821TIP3   OH271953   5.466   6.687  12.179  0.1994 -0.5907  0.1921
16821TIP3    H171954   5.479   6.635  12.100 -1.3392  1.2727 -1.4048
16821TIP3    H271955   5.554   6.708  12.209  1.0826  2.6113 -3.8533
16822TIP3   OH271956   4.200   1.998  16.370 -0.3105 -0.8469 -0.1791
16822TIP3    H171957   4.181   2.031  16.282 -0.6802  0.3987  0.3479
16822TIP3    H271958   4.240   1.912  16.355  1.4856  0.1732 -1.6618
16823TIP3   OH271959   1.795   0.730   2.687 -0.1484 -0.3454 -0.0959
16823TIP3    H171960   1.711   0.764   2.657  0.0851  1.4034  1.0776
16823TIP3    H271961   1.853   0.737   2.611 -0.7759 -0.5615 -0.5992
16824TIP3   OH271962   5.714   4.154  11.644 -0.2563 -0.0114  0.0350
16824TIP3    H171963   5.755   4.139  11.729  1.4042  0.6111 -0.6188
16824TIP3    H271964   5.637   4.207  11.664 -0.9255 -1.3862  1.3168
16825TIP3   OH271965   3.959   3.520  13.038  0.0069  0.6025 -0.4090
16825TIP3    H171966   3.943   3.481  12.952  1.0302  0.2704 -0.4516
16825TIP3    H271967   3.884   3.579  13.051 -1.2440 -0.8665 -0.6172
16826TIP3   OH271968   0.851   0.687  15.155 -0.3603 -0.3712  0.2945
16826TIP3    H171969   0.794   0.655  15.225 -0.6302  0.5462  0.5131
16826TIP3    H271970   0.920   0.621  15.147 -0.4152 -0.5689  1.3223
16827TIP3   OH271971   0.766   5.152   1.258  0.3089  0.1554  0.5891
16827TIP3    H171972   0.684   5.143   1.307  0.3693  0.5060  0.7540
16827TIP3    H271973   0.799   5.062   1.251  0.3439  0.1076  1.2660
16828TIP3   OH271974   2.354   5.219  17.307 -0.0192  0.4798  0.0970
16828TIP3    H171975   2.287   5.225  17.375 -2.0292 -0.2529 -1.6707
16828TIP3    H271976   2.338   5.294  17.250 -0.9243 -0.9238 -1.6094
16829TIP3   OH271977   0.616   3.375   1.290 -0.3614 -0.1481  0.4425
16829TIP3    H171978   0.600   3.285   1.316  0.4589 -1.1487 -2.1207
16829TIP3    H271979   0.530   3.410   1.268 -0.4337 -1.4656 -1.6758
16830TIP3   OH271980   0.691   0.952   4.055 -0.1601  0.1610 -0.4550
16830TIP3    H171981   0.728   0.938   4.142 -0.7263  2.5112  0.2374
16830TIP3    H271982   0.600   0.976   4.070 -0.1815  0.9361 -1.6453
16831TIP3   OH271983   3.092   3.162   1.269 -0.2524 -0.1614  0.1502
16831TIP3    H171984   3.141   3.241   1.293  0.2023 -0.8742  1.7390
16831TIP3    H271985   3.153   3.090   1.287 -0.9228 -0.9195 -0.5425
16832TIP3   OH271986   5.520   5.444   5.043 -0.2319 -0.0351  0.4252
16832TIP3    H171987   5.561   5.392   4.974  0.2714 -0.2520  0.8739
16832TIP3    H271988   5.497   5.380   5.111 -2.7325 -0.1521 -0.4264
16833TIP3   OH271989   3.261   0.482  15.899 -0.3200 -0.6104 -0.7150
16833TIP3    H171990   3.195   0.551  15.911  0.9880  0.9892 -2.1247
16833TIP3    H271991   3.344   0.524  15.924  0.5614 -1.5273 -1.9874
16834TIP3   OH271992   3.919   2.508   4.112  0.3242  0.1607 -0.1112
16834TIP3    H171993   3.969   2.467   4.042  0.1391 -0.7456  0.2772
16834TIP3    H271994   3.857   2.566   4.067 -2.0123 -2.7529 -0.9820
16835TIP3   OH271995   3.984   4.329   5.574  0.2258  0.4409 -0.1681
16835TIP3    H171996   3.889   4.342   5.575  0.1222 -0.1735  2.0875
16835TIP3    H271997   4.020   4.416   5.556 -0.7299  0.8265 -0.2861
16836TIP3   OH271998   5.034   6.389   3.361 -0.4166  0.2577 -0.3842
16836TIP3    H171999   5.018   6.347   3.446  1.2078  0.5218  0.0940
16836TIP3    H272000   5.086   6.325   3.312 -0.9343  0.3056 -1.0044
16837TIP3   OH272001   5.958   3.680   0.909 -0.1006 -0.6897  0.1235
16837TIP3    H172002   5.899   3.686   0.984 -0.9188 -0.3516 -0.5189
16837TIP3    H272003   5.919   3.739   0.844  1.1774 -0.1498 -0.1778
16838TIP3   OH272004   2.808   4.724   0.516  0.6919  0.3003  0.9822
16838TIP3    H172005   2.848   4.701   0.432  2.9628  0.7560  1.8413
16838TIP3    H272006   2.776   4.814   0.503  0.7734  0.2639  0.5055
16839TIP3   OH272007   6.311   6.012  13.156 -0.0282  0.7180  0.3328
16839TIP3    H172008   6.364   6.087  13.131  1.4207 -0.3036  0.2125
16839TIP3    H272009   6.374   5.941  13.170 -1.3240 -0.4209  0.6641
16840TIP3   OH272010   1.844   3.201  13.926 -0.0930 -0.1105  0.2863
16840TIP3    H172011   1.930   3.192  13.967  0.3573  1.7643 -0.1628
16840TIP3    H272012   1.792   3.131  13.964  2.0087 -2.2115 -0.4845
16841TIP3   OH272013   1.835   6.530   3.365 -0.2953 -0.3850  0.1407
16841TIP3    H172014   1.900   6.481   3.315 -0.1725 -0.4090  0.3258
16841TIP3    H272015   1.761   6.469   3.375  0.0187 -0.6677  0.7199
16842TIP3   OH272016   1.931   4.474  11.295  0.1761  0.1137 -0.3914
16842TIP3    H172017   1.928   4.383  11.267 -1.0720  0.1646 -0.4861
16842TIP3    H272018   2.014   4.508  11.261  1.5326 -1.4546  1.1718
16843TIP3   OH272019   6.331   3.708   6.255 -0.1633  0.2516  0.3681
16843TIP3    H172020   6.405   3.749   6.299 -0.0326  2.3747 -1.6902
16843TIP3    H272021   6.346   3.614   6.265  2.4034  0.6415  0.6528
16844TIP3   OH272022   3.256   2.146  10.740  0.1294 -0.1376 -0.2873
16844TIP3    H172023   3.173   2.100  10.749 -0.5683  0.5570 -2.5168
16844TIP3    H272024   3.238   2.215  10.676  2.2158  0.5775 -0.1677
16845TIP3   OH272025   3.525   3.566  14.952 -0.6709 -0.1385  1.1392
16845TIP3    H172026   3.581   3.598  15.022  0.4074 -0.3718  0.4045
16845TIP3    H272027   3.523   3.637  14.888  0.3947 -0.8544  0.2674
16846TIP3   OH272028   3.597   0.545  13.697 -0.0400  0.1844  0.5738
16846TIP3    H172029   3.549   0.514  13.774 -0.2245  0.7024  0.6709
16846TIP3    H272030   3.646   0.468  13.667  0.2696  0.0544  1.3887
16847TIP3   OH272031   6.000   2.294   4.194  0.0688  0.3373 -0.2086
16847TIP3    H172032   5.983   2.357   4.264  0.8506 -1.1895  1.4681
16847TIP3    H272033   5.975   2.210   4.232 -1.3876 -0.3631 -2.5337
16848TIP3   OH272034   3.716   3.316   1.753 -0.3325  0.0985  0.4159
16848TIP3    H172035   3.678   3.317   1.665  0.8314  0.0885 -0.0965
16848TIP3    H272036   3.662   3.378   1.803 -0.3416  0.9175 -0.5805
16849TIP3   OH272037   6.221   0.807  13.599  0.0472 -0.2098  0.1979
16849TIP3    H172038   6.130   0.779  13.595  0.5529 -1.8382 -0.7565
16849TIP3    H272039   6.256   0.765  13.678 -0.1038  0.7298  0.7816
16850TIP3   OH272040   2.595   2.292  15.549 -1.0339 -0.2219  0.3368
16850TIP3    H172041   2.525   2.305  15.614 -2.0684 -1.4743 -0.4874
16850TIP3    H272042   2.631   2.206  15.569  0.9884  0.7791  1.3449
16851TIP3   OH272043   0.807   0.326  15.316  0.1399  0.4871 -0.2039
16851TIP3    H172044   0.768   0.309  15.231  1.4556 -0.5655 -0.6393
16851TIP3    H272045   0.749   0.282  15.379 -0.3024  0.4273 -0.6515
16852TIP3   OH272046   4.712   4.477  14.217 -0.1251  0.0059 -0.0862
16852TIP3    H172047   4.799   4.441  14.199 -0.7320 -1.5662 -0.0666
16852TIP3    H272048   4.717   4.568  14.189  1.9411  0.3595  1.1934
16853TIP3   OH272049   6.787   4.040   3.005  0.0145 -0.3043  0.4789
16853TIP3    H172050   6.881   4.026   3.014  0.6315  1.9918 -1.3697
16853TIP3    H272051   6.768   4.018   2.914 -0.8067  1.2062  0.2579
16854TIP3   OH272052   0.308   1.031  15.826  0.2838 -0.2746 -0.6349
16854TIP3    H172053   0.338   1.121  15.812 -0.1880  0.5595  2.8650
16854TIP3    H272054   0.213   1.035  15.813 -0.0192  0.2697  1.4833
16855TIP3   OH272055   5.661   1.344   1.502 -0.0600  0.7313 -0.7218
16855TIP3    H172056   5.693   1.429   1.533  0.1093 -0.0298  1.2891
16855TIP3    H272057   5.738   1.286   1.507 -1.1289 -0.6381  2.3286
16856TIP3   OH272058   5.584   6.175  14.095 -0.0175  0.5653  0.0563
16856TIP3    H172059   5.498   6.134  14.110 -0.9135  3.1082  2.8509
16856TIP3    H272060   5.595   6.172  14.000 -1.6261 -2.7310 -0.1858
16857TIP3   OH272061   5.199   1.228   5.035 -0.2889 -0.0962 -0.1534
16857TIP3    H172062   5.106   1.208   5.021 -0.3384  0.8967 -1.4493
16857TIP3    H272063   5.199   1.310   5.083 -0.0941  0.2116 -0.6666
16858TIP3   OH272064   5.160   5.058  16.967 -0.3561  0.1980  0.5017
16858TIP3    H172065   5.239   5.003  16.965 -1.1753 -1.0329 -1.4950
16858TIP3    H272066   5.116   5.034  17.048  0.5329 -0.2564  0.8697
16859TIP3   OH272067   2.568   6.236  16.763 -0.4287  0.2577  0.6862
16859TIP3    H172068   2.483   6.267  16.731 -1.1386 -1.5849  0.6693
16859TIP3    H272069   2.629   6.259  16.693 -0.7020  2.4013  1.0793
16860TIP3   OH272070   1.913   6.436   5.094 -0.1045  0.3985  0.0750
16860TIP3    H172071   1.943   6.349   5.068 -0.4838 -0.1455  1.3309
16860TIP3    H272072   1.819   6.435   5.078 -0.5766 -0.3929  2.4054
16861TIP3   OH272073   2.458   3.219  14.724  0.2774  0.3802 -0.0352
16861TIP3    H172074   2.513   3.269  14.663  1.1384 -0.1049  0.3376
16861TIP3    H272075   2.386   3.187  14.670  1.6167 -0.9947 -1.0719
16862TIP3   OH272076   6.743   4.629   1.150  0.7391  0.7375 -0.2996
16862TIP3    H172077   6.735   4.713   1.193  2.3054  0.2950  0.9411
16862TIP3    H272078   6.760   4.567   1.220 -3.0463 -1.1751 -0.8085
16863TIP3   OH272079   2.221   4.143  12.953  0.5002 -0.4649 -0.1775
16863TIP3    H172080   2.138   4.095  12.948  0.2902 -0.2111  0.6737
16863TIP3    H272081   2.278   4.087  13.005  0.6937 -0.4016 -0.3229
16864TIP3   OH272082   5.777   2.867   3.007  0.2833  0.1757  0.4093
16864TIP3    H172083   5.816   2.932   3.066 -1.0330  0.9410  0.4842
16864TIP3    H272084   5.761   2.791   3.062  2.5434 -0.5312  0.1516
16865TIP3   OH272085   2.327   2.918   2.021  0.2103  0.2115  0.2377
16865TIP3    H172086   2.358   2.828   2.011  0.6872  0.5877 -2.4474
16865TIP3    H272087   2.364   2.964   1.946 -0.6689  2.4768  1.1242
16866TIP3   OH272088   0.957   1.954  14.604  0.2356 -0.0327  0.1677
16866TIP3    H172089   0.999   1.925  14.684 -1.9218 -0.5578  1.1958
16866TIP3    H272090   0.910   1.876  14.572  1.8283 -0.1157 -2.1860
16867TIP3   OH272091   3.838   3.083  10.804  0.6642  0.0608  0.1848
16867TIP3    H172092   3.784   3.010  10.775  1.4642 -0.4369 -0.0632
16867TIP3    H272093   3.808   3.158  10.752 -1.3206  0.3302  1.6171
16868TIP3   OH272094   2.651   1.544  12.751  0.4963  0.1479 -0.1566
16868TIP3    H172095   2.583   1.611  12.753 -0.0831 -0.3920 -1.2170
16868TIP3    H272096   2.690   1.553  12.664  2.1029  0.7446  0.5824
16869TIP3   OH272097   0.592   1.343  14.023 -0.0013 -0.1659  0.1552
16869TIP3    H172098   0.521   1.286  14.053 -1.0859  1.4961  0.8841
16869TIP3    H272099   0.656   1.340  14.095  0.7961 -1.7810 -0.5673
16870TIP3   OH272100   3.864   6.668  16.913 -0.3117  0.1013 -0.8224
16870TIP3    H172101   3.911   6.599  16.960 -1.2276  0.1348  0.2014
16870TIP3    H272102   3.865   6.742  16.974 -2.6972 -0.2791 -0.2115
16871TIP3   OH272103   4.920   6.058   1.202  0.0748  0.0092 -0.0479
16871TIP3    H172104   4.871   5.980   1.176  0.5967 -0.2867 -0.1480
16871TIP3    H272105   4.996   6.060   1.143  0.1175  0.5341  0.0208
16872TIP3   OH272106   0.303   1.167   3.467 -0.2768  0.5766  0.2581
16872TIP3    H172107   0.362   1.145   3.539 -0.8103  2.3109  1.2829
16872TIP3    H272108   0.218   1.134   3.495  0.0814 -1.7363 -1.1252
16873TIP3   OH272109   4.863   4.399  13.982 -0.0768 -0.1503 -0.7583
16873TIP3    H172110   4.926   4.420  14.050 -1.6335  1.8302  0.1846
16873TIP3    H272111   4.878   4.306  13.963  1.0814 -0.5111  1.5540
16874TIP3   OH272112   4.508   4.015   4.728 -0.4944 -0.8242 -0.1172
16874TIP3    H172113   4.570   4.055   4.667 -1.1766  0.2631 -0.1250
16874TIP3    H272114   4.560   3.952   4.777  0.3827 -0.6867 -0.8457
16875TIP3   OH272115   3.693   2.120   6.765  0.2052 -0.3592  0.2176
16875TIP3    H172116   3.634   2.044   6.766  0.3738 -0.4934  0.0183
16875TIP3    H272117   3.724   2.127   6.855 -1.1306  0.5119  0.6495
16876TIP3   OH272118   6.075   2.786  15.188  0.8514 -0.1294 -0.1613
16876TIP3    H172119   6.065   2.877  15.162 -0.6430 -0.4305 -0.7444
16876TIP3    H272120   6.157   2.784  15.238  0.9730  1.4917 -0.2407
16877TIP3   OH272121   6.713   6.773   2.317 -0.7677 -0.2191 -0.1792
16877TIP3    H172122   6.801   6.765   2.281 -0.2372  1.6794  0.5429
16877TIP3    H272123   6.715   6.720   2.397 -0.0699  0.3126  0.1642
16878TIP3   OH272124   2.642   1.897   2.831 -0.3802  0.9650  0.8108
16878TIP3    H172125   2.702   1.971   2.821 -0.4640  0.8379 -0.9180
16878TIP3    H272126   2.557   1.931   2.801 -0.0319 -0.2987 -1.9016
16879TIP3   OH272127   1.114   1.568  12.211 -0.0979 -0.1825 -0.2775
16879TIP3    H172128   1.166   1.545  12.134  1.6580 -0.5563  0.9449
16879TIP3    H272129   1.072   1.651  12.189  1.0803  0.1604 -1.3105
16880TIP3   OH272130   4.971   1.294  13.458  0.3503  0.0170  0.3439
16880TIP3    H172131   4.892   1.253  13.421  1.3401 -2.6881  1.0339
16880TIP3    H272132   4.938   1.371  13.504 -1.7198 -0.3006 -0.4852
16881TIP3   OH272133   2.601   3.881   0.026  0.3204  0.0935  0.0945
16881TIP3    H172134   2.585   3.940  -0.048  0.2616 -1.8641 -1.5673
16881TIP3    H272135   2.599   3.793  -0.013  2.5772 -0.9227  2.0155
16882TIP3   OH272136   6.717   2.216  13.968 -0.2531  0.3660  0.3468
16882TIP3    H172137   6.738   2.175  14.052  2.0174  0.7274  0.0277
16882TIP3    H272138   6.802   2.228  13.925 -1.3223  0.2390 -2.0026
16883TIP3   OH272139   6.152   5.460  14.700  0.3879 -0.0999  0.4406
16883TIP3    H172140   6.107   5.487  14.620 -0.4855 -1.1147  0.5675
16883TIP3    H272141   6.202   5.537  14.727 -0.4451  0.7167 -0.2898
16884TIP3   OH272142   2.731   2.052  13.600 -0.7971 -0.1420  0.7040
16884TIP3    H172143   2.666   2.078  13.535  1.1818  0.2914 -1.2406
16884TIP3    H272144   2.772   2.134  13.627  1.1268 -0.5920 -0.6283
16885TIP3   OH272145   4.046   1.473  14.422 -0.5371 -0.1532 -1.0054
16885TIP3    H172146   4.050   1.378  14.436  1.0928 -0.2515 -1.8775
16885TIP3    H272147   4.000   1.507  14.499  2.5701 -1.2347  1.5902
16886TIP3   OH272148   6.745   5.683  12.721 -0.3813 -0.1178 -0.1304
16886TIP3    H172149   6.693   5.742  12.666  0.3636  0.1176 -0.5922
16886TIP3    H272150   6.777   5.739  12.792 -1.3652 -0.4275  0.5798
16887TIP3   OH272151   5.273   1.380   6.410 -0.5217 -0.1098  0.2220
16887TIP3    H172152   5.285   1.425   6.326 -2.1459 -2.1211 -1.2035
16887TIP3    H272153   5.185   1.405   6.438 -0.6802 -0.8254  0.3903
16888TIP3   OH272154   5.857   6.419  16.538  0.2728 -0.2654  0.2743
16888TIP3    H172155   5.892   6.461  16.459 -0.1080  1.1550  0.8337
16888TIP3    H272156   5.928   6.363  16.568  0.8415  0.0379 -0.4507
16889TIP3   OH272157   1.023   0.362   6.661 -0.5973  0.1408 -0.1160
16889TIP3    H172158   1.116   0.380   6.643 -0.6932  1.7779  0.8713
16889TIP3    H272159   0.976   0.433   6.616 -1.2078  0.6504  1.2850
16890TIP3   OH272160   1.009   4.814  13.173  0.4948 -0.0379  0.4937
16890TIP3    H172161   1.072   4.767  13.119  1.0231  0.2603  0.8407
16890TIP3    H272162   0.949   4.855  13.110  0.2765 -0.8230  0.1795
16891TIP3   OH272163   1.489   4.818  11.783 -0.1655  0.1452 -0.0245
16891TIP3    H172164   1.395   4.804  11.776 -0.1562  0.1354 -0.1323
16891TIP3    H272165   1.524   4.791  11.698 -0.4776  3.6607 -1.4402
16892TIP3   OH272166   5.711   0.320   6.527 -0.4277  0.1451  0.1896
16892TIP3    H172167   5.698   0.400   6.578 -1.1556  0.1394  0.0215
16892TIP3    H272168   5.779   0.343   6.464  1.1145 -0.1139  1.7116
16893TIP3   OH272169   5.650   5.912   0.458  0.9479 -0.3831 -0.4206
16893TIP3    H172170   5.612   5.976   0.518  0.7602 -1.4486  0.6312
16893TIP3    H272171   5.655   5.958   0.374 -2.0600  0.0639 -0.4719
16894TIP3   OH272172   0.253   2.531   0.337 -0.3363 -0.4650 -0.2792
16894TIP3    H172173   0.295   2.614   0.361  2.1209 -0.8309 -2.7265
16894TIP3    H272174   0.237   2.487   0.420 -0.5420  1.9039  1.0258
16895TIP3   OH272175   0.863   3.225   4.929  0.6986  0.0557 -0.2499
16895TIP3    H172176   0.830   3.219   4.840 -0.4414 -0.4104  0.1850
16895TIP3    H272177   0.856   3.136   4.963 -0.6740  0.5772  0.9119
16896TIP3   OH272178   1.147   5.434  10.935 -0.7230 -0.2214  0.0368
16896TIP3    H172179   1.114   5.521  10.913  0.8640  0.4250  0.0648
16896TIP3    H272180   1.240   5.447  10.952 -0.0883 -2.1843 -1.4812
16897TIP3   OH272181   0.676   4.503  16.779  0.1063  0.3958  0.1088
16897TIP3    H172182   0.768   4.517  16.756 -0.2627  3.1239 -0.0572
16897TIP3    H272183   0.633   4.484  16.696  0.3279  0.4186 -0.0111
16898TIP3   OH272184   5.460   1.238  15.404  0.3264  0.5428  0.0229
16898TIP3    H172185   5.542   1.281  15.379  1.0458 -0.7291  0.1116
16898TIP3    H272186   5.432   1.193  15.324  0.0877  0.3750  0.2010
16899TIP3   OH272187   4.838   0.967   6.284  0.2664 -0.1994  0.3348
16899TIP3    H172188   4.851   1.005   6.197 -0.8814 -1.8096 -0.5844
16899TIP3    H272189   4.743   0.960   6.294  0.3713 -3.2548  0.1924
16900TIP3   OH272190   5.829   3.285  11.909 -0.8698  0.3772 -0.2567
16900TIP3    H172191   5.906   3.326  11.871 -1.3106  0.3529 -1.1957
16900TIP3    H272192   5.797   3.226  11.841 -1.2329 -0.2419  0.4388
16901TIP3   OH272193   1.233   0.830   1.067 -0.5647  0.0256  0.3006
16901TIP3    H172194   1.233   0.744   1.024 -0.0080  0.3378 -0.3523
16901TIP3    H272195   1.222   0.810   1.160 -0.0043 -0.7895  0.2076
16902TIP3   OH272196   2.677   3.127   3.587 -0.0227 -0.3924 -0.4808
16902TIP3    H172197   2.701   3.135   3.494 -1.9852 -0.1600 -0.9981
16902TIP3    H272198   2.607   3.190   3.600  0.0789 -0.5697  1.1358
16903TIP3   OH272199   5.591   2.208   5.228  0.5786 -0.4006 -0.1341
16903TIP3    H172200   5.645   2.246   5.159  1.4507  0.7216  1.1242
16903TIP3    H272201   5.642   2.133   5.260  0.3621 -0.6725 -0.4164
16904TIP3   OH272202   4.278   1.111  17.273 -0.2628 -0.1443  0.4412
16904TIP3    H172203   4.270   1.206  17.266 -1.0153 -0.1922  0.5194
16904TIP3    H272204   4.189   1.078  17.255  0.4928 -0.9849 -2.2972
16905TIP3   OH272205   4.142   0.508   1.196 -0.6345 -0.0345  0.1128
16905TIP3    H172206   4.110   0.589   1.233 -0.5314 -0.0263  0.1855
16905TIP3    H272207   4.125   0.515   1.102  0.0458  0.3861  0.0169
16906TIP3   OH272208   0.639   1.638  15.995 -0.5790  0.2691  0.1667
16906TIP3    H172209   0.651   1.732  15.978  0.8604 -0.4008 -3.4310
16906TIP3    H272210   0.594   1.634  16.079 -2.7634  4.2436 -0.5759
16907TIP3   OH272211   1.870   2.220   4.941  0.1754 -0.5299  0.2185
16907TIP3    H172212   1.874   2.125   4.938 -1.5717 -0.6363  0.1987
16907TIP3    H272213   1.783   2.240   4.976  1.1151  1.0587  1.8571
16908TIP3   OH272214   2.425   3.722  12.375 -0.2266 -0.1894 -0.3981
16908TIP3    H172215   2.415   3.713  12.469 -3.1982  1.1793 -0.4958
16908TIP3    H272216   2.520   3.733  12.362  0.0838  2.3054  2.7158
16909TIP3   OH272217   5.308   1.979  16.857  0.0958 -0.4629  0.0494
16909TIP3    H172218   5.283   2.038  16.786 -0.3551 -1.7023 -0.8644
16909TIP3    H272219   5.263   2.013  16.934 -1.0710 -0.2782 -0.7033
16910TIP3   OH272220   2.861   3.264  15.624 -0.4481  0.0303  0.4158
16910TIP3    H172221   2.812   3.281  15.543 -1.0873  0.0985  0.8094
16910TIP3    H272222   2.861   3.168  15.632  1.1385 -0.0792 -0.5778
16911TIP3   OH272223   4.042   0.954   5.276  0.2179 -0.2462  0.1931
16911TIP3    H172224   4.048   1.019   5.346  1.6026 -0.8194  0.6446
16911TIP3    H272225   4.048   0.870   5.321 -2.3246 -0.7708 -0.3005
16912TIP3   OH272226   1.553   3.688   0.106 -0.0341 -0.4440  0.1989
16912TIP3    H172227   1.529   3.774   0.139  3.2881  0.2781  1.0890
16912TIP3    H272228   1.540   3.629   0.181 -2.1996 -0.8052 -0.3786
16913TIP3   OH272229   4.690   3.132  17.251 -0.3889  0.0565  0.3939
16913TIP3    H172230   4.625   3.104  17.187 -0.2113  0.5425 -0.0075
16913TIP3    H272231   4.684   3.068  17.322  0.2708 -1.2168 -0.6524
16914TIP3   OH272232   1.380   3.504   1.665 -0.0222  0.1792  0.7140
16914TIP3    H172233   1.354   3.499   1.573 -0.3422  3.3662  0.5361
16914TIP3    H272234   1.465   3.548   1.663 -0.4648  1.1384  1.9635
16915TIP3   OH272235   6.034   4.453   0.040  0.1391 -0.0422  0.7099
16915TIP3    H172236   6.113   4.505   0.024  1.2600 -1.1716  2.2604
16915TIP3    H272237   6.056   4.400   0.117 -1.0699 -2.5509 -0.5717
16916TIP3   OH272238   5.190   6.725  12.314 -0.3549  0.3647  0.2579
16916TIP3    H172239   5.238   6.794  12.359 -1.2452  0.8809  0.4331
16916TIP3    H272240   5.256   6.680  12.261  0.1260  1.7169 -0.3186
16917TIP3   OH272241   4.707   5.042   4.298 -0.0761  0.2190  0.1648
16917TIP3    H172242   4.769   5.087   4.241 -0.6059  0.3644 -0.3112
16917TIP3    H272243   4.707   5.093   4.379  0.0546  0.5131 -0.0181
16918TIP3   OH272244   2.694   1.833   5.920 -0.5460  0.4194  0.4070
16918TIP3    H172245   2.631   1.838   5.992 -2.6180 -0.0544 -1.2759
16918TIP3    H272246   2.668   1.755   5.871  1.4204  0.1935 -0.3368
16919TIP3   OH272247   2.498   4.488   4.387  0.3846  0.1255 -0.2644
16919TIP3    H172248   2.556   4.436   4.443  1.0603  1.6288  0.4792
16919TIP3    H272249   2.549   4.502   4.307  0.1530 -0.4564 -0.5149
16920TIP3   OH272250   0.861   0.941  15.627 -0.0237 -0.0869 -0.0914
16920TIP3    H172251   0.950   0.974  15.640 -1.1278  2.3768  2.1581
16920TIP3    H272252   0.822   1.002  15.565 -0.3266 -0.8569 -0.6722
16921TIP3   OH272253   1.302   1.457   2.242 -0.1681 -0.1742  0.0662
16921TIP3    H172254   1.209   1.445   2.259 -0.2238 -1.2812 -0.8965
16921TIP3    H272255   1.319   1.548   2.267 -1.4849  0.0350  0.2971
16922TIP3   OH272256   3.091   5.841  13.251  0.3006  0.2787 -0.0378
16922TIP3    H172257   3.069   5.750  13.270 -2.8789  1.3518  2.5291
16922TIP3    H272258   3.145   5.869  13.325 -1.2445  1.1340  0.8411
16923TIP3   OH272259   3.697   1.002  14.098  0.5481 -0.3270 -0.0700
16923TIP3    H172260   3.771   1.039  14.051 -0.2457  0.5597 -0.6677
16923TIP3    H272261   3.721   1.008  14.191  0.6273  1.3161 -0.1676
16924TIP3   OH272262   5.628   0.009  16.823  0.2762 -0.0835  0.0007
16924TIP3    H172263   5.669   0.091  16.849  0.1129  0.0287 -0.0844
16924TIP3    H272264   5.612   0.019  16.729  0.6897 -0.4066 -0.1029
16925TIP3   OH272265   5.557   0.870  10.499  0.2399 -0.0960  0.0574
16925TIP3    H172266   5.463   0.868  10.514 -0.1563 -1.5912 -2.1050
16925TIP3    H272267   5.586   0.953  10.535 -1.8877  0.3571  0.8382
16926TIP3   OH272268   5.993   3.080  12.805  0.6908 -0.0203  0.2267
16926TIP3    H172269   6.055   3.009  12.785  0.6780 -0.7692  2.5430
16926TIP3    H272270   5.922   3.068  12.742  2.2684  0.0551 -1.6387
16927TIP3   OH272271   2.409   1.740   4.282 -0.1109 -0.1766 -0.9762
16927TIP3    H172272   2.363   1.804   4.336  1.8649  1.3911 -1.0216
16927TIP3    H272273   2.358   1.737   4.200 -1.2115 -0.0292 -0.3213
16928TIP3   OH272274   5.268   0.734  16.172  0.1196 -0.2820 -0.1434
16928TIP3    H172275   5.335   0.689  16.121 -0.9643  2.2065 -4.2681
16928TIP3    H272276   5.299   0.825  16.177 -0.8894  0.0047  1.8785
16929TIP3   OH272277   4.471   3.042  15.888  0.2892 -0.0584 -0.5075
16929TIP3    H172278   4.456   3.111  15.953 -0.2350 -0.2976 -0.3715
16929TIP3    H272279   4.559   3.010  15.908  0.3365  0.2229 -0.2464
16930TIP3   OH272280   1.904   6.399  11.484  0.1343  0.2531 -0.1781
16930TIP3    H172281   1.914   6.407  11.389 -0.1832 -1.7449 -0.4210
16930TIP3    H272282   1.994   6.405  11.517  0.3497  0.0110 -0.7008
16931TIP3   OH272283   3.603   4.117  10.944 -0.5257 -0.5835 -0.7299
16931TIP3    H172284   3.663   4.124  11.018 -1.8944  0.0350  0.3841
16931TIP3    H272285   3.612   4.027  10.913  3.2061  0.2486 -2.6474
16932TIP3   OH272286   2.307   1.820   5.913 -0.1720  0.2134  0.3260
16932TIP3    H172287   2.283   1.727   5.908 -0.0872  0.1969  0.2121
16932TIP3    H272288   2.239   1.860   5.966 -0.7685  0.2737 -0.4597
16933TIP3   OH272289   4.693   1.740  13.687  0.2136 -0.5380 -0.1532
16933TIP3    H172290   4.688   1.719  13.594  1.5168 -1.0901 -0.1258
16933TIP3    H272291   4.694   1.836  13.690  1.9279 -0.5012 -0.8528
16934TIP3   OH272292   5.218   3.706  14.623  0.2061  0.4469 -0.3734
16934TIP3    H172293   5.129   3.673  14.633  1.0404 -1.8282  0.0166
16934TIP3    H272294   5.273   3.642  14.667  2.2396  0.6548 -2.4333
16935TIP3   OH272295   1.357   0.223  12.325 -0.5282 -0.1965  0.4290
16935TIP3    H172296   1.279   0.202  12.273 -2.9089  1.6636  2.9333
16935TIP3    H272297   1.382   0.311  12.297  0.7574 -0.7832 -0.3615
16936TIP3   OH272298   1.313   3.720  14.123 -0.3295 -0.0768 -1.0053
16936TIP3    H172299   1.336   3.799  14.172 -1.8925  0.0982 -0.5183
16936TIP3    H272300   1.280   3.752  14.039 -1.3324 -0.1740 -0.6582
16937TIP3   OH272301   5.746   3.838  11.281  0.0657 -0.0859  0.4272
16937TIP3    H172302   5.701   3.852  11.197  0.8962  2.3745  0.3100
16937TIP3    H272303   5.798   3.759  11.268 -0.1049  0.0518 -1.2521
16938TIP3   OH272304   1.478   5.798  16.089 -0.0559 -0.0933  0.2855
16938TIP3    H172305   1.517   5.720  16.051 -0.9722 -0.7842  0.7389
16938TIP3    H272306   1.533   5.870  16.057  0.6411 -0.8842 -0.3429
16939TIP3   OH272307   2.702   0.808  15.174  0.0642 -0.0122  0.2084
16939TIP3    H172308   2.658   0.842  15.252  0.4167  2.6266 -0.6305
16939TIP3    H272309   2.769   0.749  15.208  0.4682  1.3824  1.9590
16940TIP3   OH272310   0.211   4.782  17.207 -1.1471 -0.7926 -0.2405
16940TIP3    H172311   0.266   4.856  17.231 -0.6394 -1.0125 -0.6898
16940TIP3    H272312   0.149   4.774  17.279  1.5191 -2.6442  2.1080
16941TIP3   OH272313   1.433   0.969   0.250 -0.0480 -0.4611 -0.2550
16941TIP3    H172314   1.347   0.931   0.235 -0.3440 -0.3783  1.1655
16941TIP3    H272315   1.440   1.037   0.183  0.2439 -2.5030 -2.4213
16942TIP3   OH272316   2.748   0.618  14.864  0.2190 -0.2959 -0.0383
16942TIP3    H172317   2.829   0.661  14.892  0.1250 -0.8407  1.1318
16942TIP3    H272318   2.739   0.643  14.772  0.6639  1.3751  0.3323
16943TIP3   OH272319   0.985   2.846   2.374  0.3397 -0.0574 -0.0786
16943TIP3    H172320   1.049   2.864   2.306  1.2943 -0.5059  0.6830
16943TIP3    H272321   0.970   2.751   2.368  2.3682 -0.5953  1.9401
16944TIP3   OH272322   4.774   5.191  11.169  0.2157 -0.5230 -0.6184
16944TIP3    H172323   4.724   5.110  11.170  2.1460 -1.7654  0.7606
16944TIP3    H272324   4.806   5.199  11.079  0.3256 -1.5018 -0.6699
16945TIP3   OH272325   3.798   2.430  14.807  0.0633 -0.0011  0.1141
16945TIP3    H172326   3.835   2.359  14.860 -1.5588 -0.6075  0.4843
16945TIP3    H272327   3.792   2.393  14.719 -0.4194 -0.1852  0.2246
16946TIP3   OH272328   3.814   1.333  16.872 -0.0782 -0.2582 -0.7103
16946TIP3    H172329   3.891   1.299  16.826  0.4365 -0.8289  0.5447
16946TIP3    H272330   3.769   1.256  16.906 -1.0582  0.0901 -1.1690
16947TIP3   OH272331   1.203   3.632   6.208  0.3792 -0.1655  0.0397
16947TIP3    H172332   1.232   3.708   6.259  1.1596 -0.9859  0.8618
16947TIP3    H272333   1.130   3.664   6.156  2.0472  1.7232 -1.2882
16948TIP3   OH272334   5.478   2.135  17.123 -0.1375  0.2914 -0.1721
16948TIP3    H172335   5.412   2.083  17.169  3.2103 -3.0861  1.3704
16948TIP3    H272336   5.505   2.201  17.186  0.1434 -0.3380  0.3685
16949TIP3   OH272337   5.541   5.620  14.219  0.3857  0.4810  0.2001
16949TIP3    H172338   5.523   5.562  14.144  0.1671  0.3533  0.3511
16949TIP3    H272339   5.620   5.584  14.258  1.6610  1.6851 -1.1193
16950TIP3   OH272340   4.859   2.784   0.033 -0.4321  0.5415  0.1749
16950TIP3    H172341   4.771   2.816   0.011 -0.5500  0.4913  0.5690
16950TIP3    H272342   4.895   2.755  -0.051 -2.4113 -3.4830  0.4595
16951TIP3   OH272343   5.524   4.990   3.567  0.1170 -0.6712  0.1616
16951TIP3    H172344   5.571   4.949   3.640  0.2013 -3.6027 -1.4141
16951TIP3    H272345   5.518   4.922   3.501 -1.3418  1.4056 -1.9946
16952TIP3   OH272346   6.617   0.417   0.164 -0.9334  0.0869 -0.2235
16952TIP3    H172347   6.533   0.408   0.211 -0.7434 -1.5797 -0.1374
16952TIP3    H272348   6.598   0.384   0.076 -0.4214 -0.0819 -0.2695
16953TIP3   OH272349   1.631   6.248  12.537 -0.1766  0.1119 -0.0049
16953TIP3    H172350   1.614   6.342  12.543 -0.2712  0.0314  1.4282
16953TIP3    H272351   1.574   6.217  12.466  0.4842  1.2522 -1.0649
16954TIP3   OH272352   4.063   4.513  11.541 -0.3726 -0.3755 -0.6135
16954TIP3    H172353   4.098   4.502  11.452  0.2741 -2.1083 -0.1890
16954TIP3    H272354   4.090   4.433  11.587 -1.4208  0.1078  0.9039
16955TIP3   OH272355   4.927   3.322  12.956  1.0468  0.5000 -0.0816
16955TIP3    H172356   4.861   3.371  13.006  0.9348 -0.1284  0.3967
16955TIP3    H272357   5.010   3.349  12.994  0.9966  0.4658  0.0544
16956TIP3   OH272358   2.347   4.131   2.504 -0.2932  0.2746 -0.2475
16956TIP3    H172359   2.430   4.178   2.498  0.8506 -1.2886  2.0300
16956TIP3    H272360   2.291   4.188   2.558  0.8952 -0.6105  2.0340
16957TIP3   OH272361   2.959   2.085  13.130  0.5504 -0.3255 -0.0992
16957TIP3    H172362   2.977   2.119  13.042 -0.1905 -1.1064 -0.5649
16957TIP3    H272363   3.042   2.046  13.158  0.4028 -1.4268 -1.0923
16958TIP3   OH272364   4.263   4.920  10.728  0.3275  0.0907 -0.0000
16958TIP3    H172365   4.319   4.989  10.691  0.4970  0.9353  1.7298
16958TIP3    H272366   4.184   4.966  10.757 -1.1885 -1.0277 -2.0589
16959TIP3   OH272367   2.509   3.692  14.527  0.5387 -0.0498 -0.1333
16959TIP3    H172368   2.553   3.750  14.466  0.4141 -2.0857 -2.3094
16959TIP3    H272369   2.419   3.686  14.495  0.4951 -1.2523  0.1423
16960TIP3   OH272370   6.393   4.799   2.755 -0.1272 -0.3129  0.0016
16960TIP3    H172371   6.389   4.880   2.705 -1.4797  0.9386  1.9470
16960TIP3    H272372   6.484   4.790   2.782  0.8765 -1.5683 -3.3256
16961TIP3   OH272373   0.874   0.236   3.480 -1.1603 -0.1082 -0.4234
16961TIP3    H172374   0.905   0.254   3.569 -1.0754  1.6663 -0.7632
16961TIP3    H272375   0.783   0.267   3.481 -1.0027  0.3850 -1.0818
16962TIP3   OH272376   0.556   4.095   1.177 -0.0117  0.0285  0.0311
16962TIP3    H172377   0.624   4.033   1.149  1.2849  2.2773 -2.1565
16962TIP3    H272378   0.498   4.103   1.102 -0.2013  1.3890  0.2986
16963TIP3   OH272379   5.627   4.840  13.577  0.5064 -0.7815 -0.6154
16963TIP3    H172380   5.678   4.871  13.652  0.6466  1.5007 -1.5683
16963TIP3    H272381   5.553   4.792  13.616  0.2625  0.8174  1.0409
16964TIP3   OH272382   0.649   4.350   1.106 -0.7663 -1.0465 -0.2627
16964TIP3    H172383   0.592   4.273   1.099 -0.3575 -1.3327 -0.4786
16964TIP3    H272384   0.602   4.409   1.166 -0.9516 -1.5749  0.1220
16965TIP3   OH272385   0.498   6.746  16.639  0.5912 -0.3665 -0.7235
16965TIP3    H172386   0.470   6.654  16.638  1.7498 -0.7348 -1.0324
16965TIP3    H272387   0.537   6.758  16.725  0.5293 -0.1931 -0.7203
16966TIP3   OH272388   0.704   2.195  13.231  0.0810 -0.2205 -0.5419
16966TIP3    H172389   0.692   2.195  13.326 -1.0853 -1.8159 -0.6408
16966TIP3    H272390   0.647   2.125  13.200  1.4342 -0.6101 -2.3067
16967TIP3   OH272391   4.011   3.788  12.089 -0.3288 -0.0618 -0.7190
16967TIP3    H172392   3.933   3.765  12.039  0.3059 -0.2525 -1.6312
16967TIP3    H272393   4.052   3.860  12.040  0.5331 -0.5403 -0.7235
16968TIP3   OH272394   2.011   4.115  12.279  0.1089 -0.1225  0.0915
16968TIP3    H172395   1.967   4.122  12.194 -2.2258 -0.3516  1.2117
16968TIP3    H272396   1.994   4.026  12.308  0.4499  0.1044  1.0282
16969TIP3   OH272397   3.213   5.999   4.976  0.5602  0.4309  0.8289
16969TIP3    H172398   3.126   5.960   4.967 -0.0705  1.9640  0.0367
16969TIP3    H272399   3.203   6.063   5.047  1.7414 -1.1609  2.5417
16970TIP3   OH272400   5.361   1.732   3.194 -0.4428  0.3302 -0.3509
16970TIP3    H172401   5.280   1.772   3.162  0.1207  0.6135 -1.4637
16970TIP3    H272402   5.358   1.642   3.160 -0.8422 -0.0379  0.6168
16971TIP3   OH272403   2.604   3.423   4.572  0.2398 -0.1135 -0.1086
16971TIP3    H172404   2.511   3.407   4.556  0.2959 -1.9731  1.1005
16971TIP3    H272405   2.614   3.518   4.562 -1.7151  0.0918 -0.5325
16972TIP3   OH272406   1.396   5.212  15.586  0.1629  0.2937  0.3069
16972TIP3    H172407   1.454   5.229  15.512 -0.1456 -1.9743 -0.5520
16972TIP3    H272408   1.419   5.123  15.614 -2.1908 -0.2840  0.5777
16973TIP3   OH272409   1.279   5.814   3.731 -0.7402 -0.4635 -0.1272
16973TIP3    H172410   1.368   5.805   3.698 -1.0529  1.3684 -1.6784
16973TIP3    H272411   1.280   5.896   3.780 -1.3748 -0.9013  0.6431
16974TIP3   OH272412   1.687   1.043   3.357  0.2757 -0.0403 -0.2863
16974TIP3    H172413   1.625   1.012   3.290 -1.1076 -0.4593  1.1378
16974TIP3    H272414   1.673   0.984   3.431  1.5109  0.6485  0.5220
16975TIP3   OH272415   6.295   3.255  11.278 -0.1595  0.2449 -0.7746
16975TIP3    H172416   6.323   3.197  11.208  0.0563 -0.2656 -0.2742
16975TIP3    H272417   6.213   3.293  11.247 -0.5226 -0.6482 -0.9354
16976TIP3   OH272418   1.613   3.694   6.022  0.4060  0.0634  0.6215
16976TIP3    H172419   1.660   3.750   6.084  0.1252  0.0637  0.8378
16976TIP3    H272420   1.588   3.617   6.074 -0.8562  0.5917  0.8278
16977TIP3   OH272421   0.887   0.664   0.493 -0.3995 -0.1366 -0.2958
16977TIP3    H172422   0.836   0.585   0.477  1.5822 -1.0450 -2.7479
16977TIP3    H272423   0.969   0.632   0.531  0.9352  0.5276 -2.4812
16978TIP3   OH272424   1.810   3.088  14.809  0.0580  0.1810  0.5970
16978TIP3    H172425   1.794   3.183  14.809 -0.3802  0.1200  1.5622
16978TIP3    H272426   1.870   3.074  14.883  1.8850 -0.0389 -0.8658
16979TIP3   OH272427   3.677   5.984   2.150  0.1299  0.3861 -0.2725
16979TIP3    H172428   3.751   6.020   2.101 -1.0766  1.6955 -1.1853
16979TIP3    H272429   3.605   5.982   2.087 -0.3961 -1.7848  0.3225
16980TIP3   OH272430   5.641   1.518   4.762  0.9781 -0.4929 -0.4362
16980TIP3    H172431   5.630   1.443   4.820 -0.4644 -1.0459 -1.3697
16980TIP3    H272432   5.707   1.572   4.805  0.5263 -1.2611  1.3136
16981TIP3   OH272433   5.000   6.481   2.193  0.1074  0.4731 -0.1792
16981TIP3    H172434   4.992   6.576   2.183 -2.3546  0.3108 -0.5345
16981TIP3    H272435   4.988   6.465   2.286  0.4581  0.5065 -0.1283
16982TIP3   OH272436   6.683   0.928  16.611 -0.1829 -0.1330 -0.1923
16982TIP3    H172437   6.735   0.871  16.668 -0.7192 -1.4612 -0.9973
16982TIP3    H272438   6.679   1.012  16.659  2.0195 -0.2137  0.2492
16983TIP3   OH272439   6.644   3.631   3.828 -0.3243  0.7660 -0.4336
16983TIP3    H172440   6.709   3.609   3.761 -0.7666 -1.5731 -0.1556
16983TIP3    H272441   6.559   3.615   3.786 -0.6087 -1.6401  0.8774
16984TIP3   OH272442   3.523   2.428   4.383  0.2603 -0.1828  0.2851
16984TIP3    H172443   3.474   2.363   4.333  0.2874 -2.1111  2.5978
16984TIP3    H272444   3.458   2.496   4.404 -0.4785 -0.8266  0.1167
16985TIP3   OH272445   6.556   1.071  12.548  0.2006 -0.2284  0.1497
16985TIP3    H172446   6.610   1.138  12.506  0.0752  0.8091  1.6030
16985TIP3    H272447   6.619   1.010  12.586  0.3159 -1.1162 -1.3770
16986TIP3   OH272448   4.266   4.614  14.714  0.5588 -0.2696  0.0635
16986TIP3    H172449   4.242   4.706  14.702 -1.4508 -0.3051  2.7683
16986TIP3    H272450   4.327   4.615  14.788 -0.5601 -1.1401  1.0545
16987TIP3   OH272451   4.518   5.604  16.084  0.5565 -0.2380 -0.4694
16987TIP3    H172452   4.517   5.606  15.988  1.1774  1.1295 -0.4694
16987TIP3    H272453   4.433   5.566  16.108  0.2752 -0.3220 -1.5541
16988TIP3   OH272454   2.858   6.166  11.862  0.4891  0.7537  0.6059
16988TIP3    H172455   2.918   6.236  11.885  1.3298 -0.3288  1.9184
16988TIP3    H272456   2.911   6.086  11.864 -0.8012 -0.1442  1.0143
16989TIP3   OH272457   6.174   0.158   2.779 -0.4551  0.4271 -0.2369
16989TIP3    H172458   6.088   0.169   2.739 -0.9142 -1.4677  0.1168
16989TIP3    H272459   6.236   0.180   2.709 -1.2299  0.6906 -0.8521
16990TIP3   OH272460   3.360   4.766  12.892 -0.2258 -0.8578 -0.7536
16990TIP3    H172461   3.435   4.789  12.948  0.3481 -0.4339 -1.6803
16990TIP3    H272462   3.284   4.794  12.943  0.3211  0.2316 -0.5032
16991TIP3   OH272463   5.244   4.815   5.894 -0.3497  0.2315  0.1332
16991TIP3    H172464   5.314   4.797   5.957  0.6312  0.7923 -0.7672
16991TIP3    H272465   5.279   4.785   5.810 -1.3616  0.1317 -0.2703
16992TIP3   OH272466   4.029   4.421   1.670 -0.0500  0.3378  0.4042
16992TIP3    H172467   4.072   4.407   1.755  2.2057  0.8506 -0.5844
16992TIP3    H272468   3.961   4.354   1.667  0.1023  0.0137  2.4185
16993TIP3   OH272469   2.683   3.611   1.979 -0.4850  0.2346  0.0091
16993TIP3    H172470   2.662   3.590   2.070  0.3211 -1.8740 -0.2408
16993TIP3    H272471   2.746   3.682   1.984 -1.3112  0.9184  1.0358
16994TIP3   OH272472   3.373   5.890   3.007 -0.4166  0.0239 -0.2032
16994TIP3    H172473   3.360   5.981   2.982  0.7964  0.5488  1.0033
16994TIP3    H272474   3.314   5.876   3.081  0.7076  0.3935  0.7966
16995TIP3   OH272475   5.069   3.973  13.376  0.9305 -0.1785 -0.2225
16995TIP3    H172476   5.077   3.904  13.442 -0.0527 -0.9239 -0.8551
16995TIP3    H272477   5.089   3.930  13.293  1.8371  0.6733 -0.4599
16996TIP3   OH272478   3.144   2.563   1.630 -0.6606  0.2269 -0.2482
16996TIP3    H172479   3.128   2.619   1.554  0.4407 -2.2913 -2.5217
16996TIP3    H272480   3.059   2.527   1.652 -1.3558  2.4824  1.1443
16997TIP3   OH272481   3.936   2.178   2.219  0.1852 -0.0298  0.2558
16997TIP3    H172482   3.851   2.195   2.177 -0.2322  0.1544  1.1448
16997TIP3    H272483   3.998   2.232   2.171  0.0137 -1.0297 -1.1592
16998TIP3   OH272484   6.491   6.166  15.412  0.1056  0.4712 -0.0432
16998TIP3    H172485   6.577   6.127  15.430  0.1933 -0.0653 -1.5047
16998TIP3    H272486   6.476   6.226  15.485  1.7184  0.5637  0.2371
16999TIP3   OH272487   4.637   2.000  14.829 -0.2848  0.0403 -0.0200
16999TIP3    H172488   4.579   2.051  14.885 -0.0257 -0.7852  1.0239
16999TIP3    H272489   4.664   1.926  14.883  0.4458 -0.4629 -1.0402
17000TIP3   OH272490   2.445   0.156  14.256  0.1333  0.1586 -0.4396
17000TIP3    H172491   2.429   0.063  14.276  1.3047  0.3131  1.4900
17000TIP3    H272492   2.528   0.156  14.210  1.0947  0.3420  1.2133
17001TIP3   OH272493   3.927   6.082   5.366  0.7038 -0.3001  0.6140
17001TIP3    H172494   3.938   6.131   5.284  0.4718 -0.4089  0.5173
17001TIP3    H272495   3.906   5.993   5.338 -2.7650  0.3512  0.7428
17002TIP3   OH272496   5.340   1.216   0.122  0.2947 -0.0594  0.8455
17002TIP3    H172497   5.358   1.243   0.212 -0.1504  0.8414  0.6730
17002TIP3    H272498   5.346   1.120   0.124  1.3225  0.0046  1.5987
17003TIP3   OH272499   4.816   0.983   1.050  0.2086  0.0343  0.2209
17003TIP3    H172500   4.838   1.004   0.959  1.8846  1.1681  0.8387
17003TIP3    H272501   4.856   0.898   1.065 -0.2914 -0.2731 -0.1745
17004TIP3   OH272502   6.478   1.292   3.730  0.1431  0.2061 -0.3723
17004TIP3    H172503   6.521   1.320   3.811 -1.1774  0.8089  0.1525
17004TIP3    H272504   6.514   1.205   3.712  0.0799 -0.1667  1.1553
17005TIP3   OH272505   4.390   2.427  14.368 -0.6328 -0.3123  0.4862
17005TIP3    H172506   4.425   2.340  14.348  0.1231 -0.5667  2.6475
17005TIP3    H272507   4.468   2.479  14.390 -1.1365  0.7636 -0.1835
17006TIP3   OH272508   4.616   2.545   4.204  1.0036 -0.7949 -1.0272
17006TIP3    H172509   4.571   2.600   4.140 -0.7720 -1.7100 -0.6245
17006TIP3    H272510   4.667   2.607   4.256  0.5676  0.2404 -1.7948
17007TIP3   OH272511   4.607   4.722  11.582  0.1130 -0.0095  0.0823
17007TIP3    H172512   4.670   4.736  11.512  2.2564 -2.1577  1.4308
17007TIP3    H272513   4.551   4.651  11.551 -0.5099  0.6522 -0.3582
17008TIP3   OH272514   3.781   0.689   5.933 -0.5763 -0.6962 -0.2021
17008TIP3    H172515   3.794   0.782   5.951  0.1929 -0.6736 -0.8215
17008TIP3    H272516   3.840   0.670   5.860 -1.1657 -1.5368 -0.4791
17009TIP3   OH272517   2.772   5.607   2.345  0.0364 -0.0043  0.2119
17009TIP3    H172518   2.682   5.625   2.316  0.0437  0.0848  0.2450
17009TIP3    H272519   2.800   5.532   2.292 -0.6846 -1.1738  1.4034
17010TIP3   OH272520   3.035   3.478   5.599  0.3806 -0.4402  0.1296
17010TIP3    H172521   3.025   3.573   5.602 -1.4713 -0.6344  0.7881
17010TIP3    H272522   3.043   3.451   5.690  0.6810 -0.9494 -0.0412
17011TIP3   OH272523   2.661   2.146   1.818  0.1308  0.1549  0.0013
17011TIP3    H172524   2.635   2.130   1.727 -0.3140 -0.1244  0.1756
17011TIP3    H272525   2.740   2.200   1.811  0.3582 -0.2450 -0.5556
17012TIP3   OH272526   4.222   4.238  12.004  0.3671 -0.2331  0.4761
17012TIP3    H172527   4.168   4.288  11.943  1.9538  0.3476 -0.4970
17012TIP3    H272528   4.216   4.286  12.086  0.8281  0.8412 -0.1045
17013TIP3   OH272529   4.424   0.406   0.954  0.6761  0.0654  0.0363
17013TIP3    H172530   4.484   0.448   1.015  1.0279  0.4961 -0.5890
17013TIP3    H272531   4.427   0.313   0.976  0.4488  0.2715  0.9611
17014TIP3   OH272532   0.513   6.805  11.896 -0.3457 -0.1124  0.2317
17014TIP3    H172533   0.499   6.750  11.819 -0.4763 -0.6103  0.6051
17014TIP3    H272534   0.606   6.793  11.917  0.1817  1.5086 -0.9636
17015TIP3   OH272535   6.749   4.395  12.804 -0.5323 -0.2343  0.6079
17015TIP3    H172536   6.708   4.310  12.817 -0.0148 -0.7869 -1.0435
17015TIP3    H272537   6.708   4.429  12.724  0.6207  0.1921  0.1745
17016TIP3   OH272538   0.519   6.555  14.281  0.2493  0.6962  0.5228
17016TIP3    H172539   0.438   6.597  14.312 -0.8358 -1.2677  0.5232
17016TIP3    H272540   0.570   6.540  14.360 -0.3916 -0.0063  0.8231
17017TIP3   OH272541   5.982   6.304   4.561  0.4608  0.6109  0.2176
17017TIP3    H172542   6.045   6.296   4.490 -0.5769  1.3243 -0.8376
17017TIP3    H272543   5.957   6.214   4.581  0.1608  0.4137 -0.9242
17018TIP3   OH272544   3.527   0.068   5.962  0.0576  0.4542 -0.1045
17018TIP3    H172545   3.596   0.123   6.001 -0.2372  0.0051  1.1133
17018TIP3    H272546   3.565   0.036   5.881  0.0428  2.8653 -1.1420
17019TIP3   OH272547   0.446   1.862  16.769  0.0155 -0.2595  0.4987
17019TIP3    H172548   0.484   1.887  16.853  0.5339 -0.5237  0.3464
17019TIP3    H272549   0.354   1.889  16.775  0.0764 -0.1804  1.1047
17020TIP3   OH272550   2.989   0.589   3.683  0.3018 -0.3474  0.3464
17020TIP3    H172551   2.979   0.684   3.680  0.9086 -0.2839  0.2764
17020TIP3    H272552   3.081   0.574   3.705  0.3084 -0.9180 -0.0262
17021TIP3   OH272553   5.217   1.910   5.909  0.5523 -0.1706 -0.4139
17021TIP3    H172554   5.229   1.862   5.991 -1.1075 -1.8619 -1.0753
17021TIP3    H272555   5.292   1.970   5.905  0.9192 -0.3366  2.0889
17022TIP3   OH272556   5.849   2.742   4.553  0.5765 -0.5755  0.1260
17022TIP3    H172557   5.838   2.713   4.463 -0.6546 -0.1006  0.1012
17022TIP3    H272558   5.867   2.836   4.546  1.9721 -0.8071  0.3208
17023TIP3   OH272559   6.418   2.095   2.613  0.2369  0.3868  0.0323
17023TIP3    H172560   6.371   2.178   2.619  0.0828  0.1839  2.7205
17023TIP3    H272561   6.359   2.031   2.655  1.4930 -0.5143  0.4782
17024TIP3   OH272562   3.305   3.914   3.966 -0.4774  0.0963  0.0594
17024TIP3    H172563   3.299   3.890   4.058  1.9466 -1.7223 -0.1470
17024TIP3    H272564   3.333   4.005   3.966  0.0997 -0.0620  1.1832
17025TIP3   OH272565   2.792   3.791  15.912 -0.0656  0.1520  0.1037
17025TIP3    H172566   2.813   3.698  15.902  0.4500  0.2383  0.3468
17025TIP3    H272567   2.702   3.799  15.880  0.1189 -0.3111 -0.5404
17026TIP3   OH272568   4.713   0.672   0.925  0.3743  0.8104 -0.0921
17026TIP3    H172569   4.651   0.741   0.899 -0.7723 -0.3451 -0.5121
17026TIP3    H272570   4.701   0.663   1.019 -1.5363 -0.6954 -0.4138
17027TIP3   OH272571   3.167   4.103  16.620  0.0731  0.2447 -0.1257
17027TIP3    H172572   3.177   4.100  16.715  0.4508 -0.6724 -0.1827
17027TIP3    H272573   3.139   4.193  16.602  0.1155  0.4675  0.8356
17028TIP3   OH272574   6.795   1.274  15.611  0.1083  0.3139 -0.0697
17028TIP3    H172575   6.845   1.316  15.541  1.0403  0.0911  0.4454
17028TIP3    H272576   6.737   1.213  15.565  0.7544  0.1153 -0.6566
17029TIP3   OH272577   0.097   4.289  14.146  0.0871 -0.0895 -0.1555
17029TIP3    H172578   0.179   4.301  14.097  0.9754  0.7251  1.4700
17029TIP3    H272579   0.124   4.285  14.237 -1.8027  1.6111  0.5470
17030TIP3   OH272580   0.723   4.704   3.941 -0.6461 -0.5211 -0.2325
17030TIP3    H172581   0.748   4.770   3.875 -2.1846  0.7437  0.3875
17030TIP3    H272582   0.805   4.660   3.962  0.3063  0.6713 -1.2534
17031TIP3   OH272583   3.846   5.094   0.871 -0.0287  0.6980 -0.7200
17031TIP3    H172584   3.762   5.110   0.916  0.1187  2.1001 -0.9041
17031TIP3    H272585   3.822   5.039   0.796 -0.3696 -1.1586  0.6846
17032TIP3   OH272586   1.233   5.014   5.779 -0.4798 -0.1764  0.3838
17032TIP3    H172587   1.195   5.043   5.862  0.6039  1.2632  0.4265
17032TIP3    H272588   1.271   5.094   5.741  2.0862 -1.3826  0.1566
17033TIP3   OH272589   2.715   5.463  15.896 -0.2423  0.0728 -0.4366
17033TIP3    H172590   2.713   5.380  15.945  0.6645  0.7129  0.7540
17033TIP3    H272591   2.624   5.479  15.871 -0.6663 -0.5100  0.6645
17034TIP3   OH272592   4.130   2.171  16.906  0.0376  0.5849 -0.2703
17034TIP3    H172593   4.215   2.147  16.943 -0.1125  0.6549  0.1296
17034TIP3    H272594   4.115   2.108  16.836  0.9046  1.2232 -1.0484
17035TIP3   OH272595   2.980   0.765   4.559  0.0745  0.4258  0.4291
17035TIP3    H172596   3.069   0.800   4.561  0.2337 -0.0024  0.8989
17035TIP3    H272597   2.927   0.832   4.604  0.6923 -0.7718  3.1013
17036TIP3   OH272598   4.715   5.350  13.386 -0.4520  0.1156 -0.8384
17036TIP3    H172599   4.748   5.438  13.372 -0.3544  0.2593  0.1954
17036TIP3    H272600   4.625   5.352  13.353 -0.6485  0.7791 -0.2850
17037TIP3   OH272601   0.420   0.341  15.315 -0.5462 -0.0844 -0.3234
17037TIP3    H172602   0.342   0.355  15.262 -0.5074  0.3936 -0.2583
17037TIP3    H272603   0.425   0.246  15.325 -2.2285 -0.0579  1.3004
17038TIP3   OH272604   4.696   6.420   3.105  0.4490  0.2073 -0.4285
17038TIP3    H172605   4.612   6.383   3.134  1.1433 -0.9743  0.1515
17038TIP3    H272606   4.723   6.478   3.176 -0.3581  1.4379 -1.0817
17039TIP3   OH272607   6.705   3.336  14.704  0.3584  0.3296 -0.6141
17039TIP3    H172608   6.616   3.370  14.696 -0.6424 -2.0937 -0.4574
17039TIP3    H272609   6.751   3.403  14.754 -1.5723  1.3254 -0.0626
17040TIP3   OH272610   3.139   6.339  11.087 -0.1127  0.1387 -0.2431
17040TIP3    H172611   3.233   6.354  11.085 -0.1243  0.1301 -1.3847
17040TIP3    H272612   3.129   6.244  11.077 -0.2576  0.2480 -1.2632
17041TIP3   OH272613   5.078   5.277   2.447  0.3068  0.5016  0.0773
17041TIP3    H172614   5.172   5.294   2.452  0.2316  0.8020  0.6761
17041TIP3    H272615   5.038   5.353   2.490 -0.2037  0.3253 -0.0763
17042TIP3   OH272616   5.595   4.674   2.043 -0.1633 -0.0769  0.5247
17042TIP3    H172617   5.658   4.603   2.034  0.7275  0.8967 -1.7165
17042TIP3    H272618   5.510   4.631   2.047  0.4101 -1.2917 -0.0047
17043TIP3   OH272619   3.311   6.578   6.244 -0.8876  0.1137  1.0038
17043TIP3    H172620   3.271   6.631   6.175 -0.9595 -1.2199 -0.0203
17043TIP3    H272621   3.402   6.607   6.246 -0.2107 -1.4582 -1.4337
17044TIP3   OH272622   3.575   0.811  16.154 -0.1351  0.2166 -0.0420
17044TIP3    H172623   3.595   0.830  16.063 -0.4070 -0.1566 -0.1832
17044TIP3    H272624   3.530   0.726  16.151 -0.3181  0.2961  0.4196
17045TIP3   OH272625   1.050   6.509  12.670  0.1460 -0.0740  0.5213
17045TIP3    H172626   1.125   6.482  12.617 -0.1717  0.6892 -0.3600
17045TIP3    H272627   1.059   6.605  12.675 -0.2289 -0.0730  1.2515
17046TIP3   OH272628   6.293   5.621  15.075  0.4031  0.8232  0.2404
17046TIP3    H172629   6.217   5.677  15.060  0.0025  0.2095 -0.0939
17046TIP3    H272630   6.361   5.680  15.108 -0.6985  1.1391  2.0676
17047TIP3   OH272631   1.846   2.620  13.176  0.4087 -0.7684 -0.1290
17047TIP3    H172632   1.938   2.637  13.156  0.6280 -1.9538 -0.2111
17047TIP3    H272633   1.846   2.533  13.217 -0.7961 -1.3427 -1.2604
17048TIP3   OH272634   4.424   1.540  12.879  0.0562  0.5246  0.1799
17048TIP3    H172635   4.492   1.598  12.913  1.2903  0.5983 -2.1836
17048TIP3    H272636   4.452   1.520  12.790 -0.5396 -3.3754  0.6900
17049TIP3   OH272637   1.590   0.016   3.308 -0.3438  0.6756  0.1113
17049TIP3    H172638   1.582  -0.033   3.226  0.0022  0.5940  0.1270
17049TIP3    H272639   1.556  -0.044   3.375 -2.2169  1.3449 -0.1692
17050TIP3   OH272640   2.708   6.765   2.759 -0.0171 -0.4962 -0.1780
17050TIP3    H172641   2.736   6.811   2.839 -0.6739  0.4421 -0.4637
17050TIP3    H272642   2.626   6.808   2.735 -0.0979 -1.1275 -1.0645
17051TIP3   OH272643   2.831   1.477   6.081  0.2440 -0.1484 -0.3332
17051TIP3    H172644   2.797   1.389   6.068 -1.8355  0.5292  0.1232
17051TIP3    H272645   2.785   1.510   6.158  1.6886  1.0134  0.0943
17052TIP3   OH272646   5.420   2.080  13.904  0.7002 -0.1390 -0.3675
17052TIP3    H172647   5.387   2.156  13.952  2.9010  1.1824 -0.8089
17052TIP3    H272648   5.429   2.011  13.970 -0.5132  0.2349  0.2106
17053TIP3   OH272649   4.506   2.109  13.558 -0.1018 -0.1417 -0.6225
17053TIP3    H172650   4.572   2.043  13.536 -0.0406 -0.7017  1.1204
17053TIP3    H272651   4.555   2.190  13.567  0.0124 -0.1044 -1.4708
17054TIP3   OH272652   6.520   2.374  12.336 -0.8291 -0.2315 -0.3804
17054TIP3    H172653   6.530   2.457  12.290  0.4155  0.0489  0.3611
17054TIP3    H272654   6.475   2.317  12.274 -2.3590  1.1966 -0.6553
17055TIP3   OH272655   1.962   4.648  15.642 -0.1721 -0.1558  1.0697
17055TIP3    H172656   1.942   4.731  15.685  1.4680  0.2561  1.0951
17055TIP3    H272657   2.011   4.672  15.564 -0.1029 -1.0701  0.8178
17056TIP3   OH272658   0.096   0.240   1.274 -0.6528  0.6388 -0.7662
17056TIP3    H172659   0.050   0.320   1.300  0.2080  1.4675 -1.7270
17056TIP3    H272660   0.067   0.224   1.184 -0.0431  0.4388 -0.9279
17057TIP3   OH272661   2.777   6.287   3.418  0.0427  0.1914 -0.1195
17057TIP3    H172662   2.857   6.325   3.382  0.0160  0.9710  0.6091
17057TIP3    H272663   2.749   6.350   3.485  0.0100 -1.1279  1.1454
17058TIP3   OH272664   2.704   0.676  17.174 -0.0954 -0.1637 -1.1218
17058TIP3    H172665   2.662   0.591  17.186 -0.0244 -0.1672 -0.9047
17058TIP3    H272666   2.658   0.714  17.099  0.1175 -0.5471 -1.4525
17059TIP3   OH272667   0.514   3.357   2.355  0.0378  0.9606  0.5842
17059TIP3    H172668   0.538   3.307   2.277  0.0690  0.7080  0.7575
17059TIP3    H272669   0.438   3.409   2.327 -0.5857  0.1200  0.6736
17060TIP3   OH272670   3.575   4.597  10.753  0.1116  0.2001 -0.2129
17060TIP3    H172671   3.613   4.510  10.767  1.0795  0.7125  0.4223
17060TIP3    H272672   3.512   4.608  10.824  1.0127  0.5726  0.5448
17061TIP3   OH272673   0.527   3.479   5.205 -0.2740 -0.1599 -0.5650
17061TIP3    H172674   0.608   3.436   5.232  0.2856  1.7467  1.0006
17061TIP3    H272675   0.461   3.445   5.265 -0.0824  0.2224 -0.1305
17062TIP3   OH272676   5.024   3.821   1.971  0.2252  0.2209 -0.9246
17062TIP3    H172677   4.995   3.869   1.894 -2.4377  1.4563  0.7077
17062TIP3    H272678   4.949   3.823   2.031  2.3054 -0.2025  1.9318
17063TIP3   OH272679   4.526   6.700   2.300 -0.0731  0.0719  0.5953
17063TIP3    H172680   4.538   6.792   2.277  0.0709  0.5323  2.3403
17063TIP3    H272681   4.440   6.677   2.266 -0.3014  0.9989  0.5297
17064TIP3   OH272682   5.327   1.422   2.281 -0.3014 -0.0180 -0.3619
17064TIP3    H172683   5.315   1.487   2.350  1.0517 -0.5737  0.4547
17064TIP3    H272684   5.340   1.339   2.329  0.1217 -0.5016 -1.2869
17065TIP3   OH272685   6.546   6.801  12.915  0.0855  0.3172  0.4045
17065TIP3    H172686   6.555   6.798  12.820 -2.0938 -2.5255  0.1514
17065TIP3    H272687   6.455   6.777  12.932 -0.2310  2.9444  3.1993
17066TIP3   OH272688   2.303   1.015  12.445 -0.9214  0.2293 -0.2819
17066TIP3    H172689   2.394   0.988  12.432 -0.8812 -0.7126  1.6962
17066TIP3    H272690   2.260   0.994  12.362  0.0949 -1.8282 -0.3464
17067TIP3   OH272691   5.938   0.763   4.266 -0.0891 -0.1852 -0.4482
17067TIP3    H172692   5.880   0.745   4.340 -0.7737  0.4961 -0.7984
17067TIP3    H272693   6.005   0.821   4.302  0.4977 -1.1378  0.0084
17068TIP3   OH272694   3.723   4.928   2.377 -0.1884  0.3312 -0.7587
17068TIP3    H172695   3.658   4.896   2.439 -0.8535  2.0652 -0.5136
17068TIP3    H272696   3.801   4.875   2.395 -1.2416 -1.2251 -0.5120
17069TIP3   OH272697   5.962   1.692   0.667 -0.0896 -0.4300  0.3980
17069TIP3    H172698   5.953   1.724   0.577  0.5248 -1.7867 -0.1684
17069TIP3    H272699   5.874   1.663   0.690  0.4014 -3.6696 -1.2270
17070TIP3   OH272700   5.863   2.447  13.255  0.2962  0.4743 -1.0179
17070TIP3    H172701   5.827   2.433  13.343  2.9218  2.5121  0.5161
17070TIP3    H272702   5.863   2.360  13.215 -0.4656 -0.6069  1.1803
17071TIP3   OH272703   5.887   3.870  12.115  0.9466 -0.1695 -0.5174
17071TIP3    H172704   5.865   3.906  12.030  0.7527  0.0318 -0.3836
17071TIP3    H272705   5.916   3.945  12.167  1.8912 -0.4203 -0.6681
17072TIP3   OH272706   3.676   1.592   5.920 -0.3802 -0.0288 -0.0418
17072TIP3    H172707   3.749   1.592   5.858 -0.1829  1.3708  0.1473
17072TIP3    H272708   3.682   1.508   5.964  0.2748 -0.5026 -0.9999
17073TIP3   OH272709   5.247   1.405  11.753 -0.3921  0.0677  0.3873
17073TIP3    H172710   5.197   1.400  11.835  0.7897  0.0842  1.1288
17073TIP3    H272711   5.315   1.470  11.770 -0.6067  0.6597 -0.8926
17074TIP3   OH272712   2.655   3.535   3.883 -0.2206 -0.1874  0.4902
17074TIP3    H172713   2.695   3.622   3.871 -1.1801  0.5081  2.0324
17074TIP3    H272714   2.722   3.474   3.852  0.7453  1.0688 -0.0140
17075TIP3   OH272715   0.145   4.900   3.609 -0.4171  0.0997  0.0249
17075TIP3    H172716   0.190   4.980   3.637  0.1584  0.3517 -1.5591
17075TIP3    H272717   0.119   4.917   3.519 -2.2093 -0.7031  0.3550
17076TIP3   OH272718   3.282   6.102   1.325 -0.6750 -0.5162  0.3709
17076TIP3    H172719   3.259   6.062   1.241 -0.2731  0.7194 -0.3558
17076TIP3    H272720   3.377   6.118   1.319 -1.0494  1.9137 -0.0200
17077TIP3   OH272721   2.472   0.863   5.963  0.1677 -0.3875 -0.4699
17077TIP3    H172722   2.550   0.845   6.017 -0.5443 -0.1600  0.6541
17077TIP3    H272723   2.463   0.784   5.909  1.5969 -0.1222 -1.1620
17078TIP3   OH272724   0.642   6.307  13.077  0.1167 -0.4520 -0.6240
17078TIP3    H172725   0.550   6.321  13.052 -0.3729  0.1516  1.3440
17078TIP3    H272726   0.689   6.378  13.034 -0.6933  0.5692  0.1133
17079TIP3   OH272727   4.156   1.670  11.117  0.0174 -0.5007  0.0536
17079TIP3    H172728   4.185   1.751  11.075  0.9268 -0.2275  1.1444
17079TIP3    H272729   4.179   1.601  11.055  0.8741 -0.0659 -0.1237
17080TIP3   OH272730   5.918   1.749  14.418 -0.2405 -0.1392 -0.6867
17080TIP3    H172731   5.849   1.695  14.458 -1.4740  1.4653 -0.5540
17080TIP3    H272732   5.914   1.832  14.466 -0.7501  1.3236 -3.0992
17081TIP3   OH272733   4.341   0.178  15.638  0.6540  0.4281 -0.4638
17081TIP3    H172734   4.337   0.134  15.552 -1.5777 -0.1819 -0.1273
17081TIP3    H272735   4.263   0.234  15.639  0.5924  0.3583  1.1834
17082TIP3   OH272736   5.958   2.116  17.289 -0.0854  0.3257 -0.4433
17082TIP3    H172737   6.046   2.088  17.262  0.3708  0.0590  1.2598
17082TIP3    H272738   5.960   2.211  17.279  0.8438  0.4569  0.7865
17083TIP3   OH272739   6.078   3.481   0.739  0.3759 -0.1045 -0.2763
17083TIP3    H172740   6.037   3.534   0.808  0.8580  0.9508 -0.7659
17083TIP3    H272741   6.059   3.391   0.763 -1.5958  0.3115 -0.0903
17084TIP3   OH272742   4.638   0.630   2.539  0.1452  0.3172 -0.5597
17084TIP3    H172743   4.585   0.668   2.469 -0.7088 -0.3054 -0.2773
17084TIP3    H272744   4.584   0.639   2.618  1.6716  2.3040  0.3461
17085TIP3   OH272745   1.524   5.602  16.868 -0.9331  0.5037  0.0428
17085TIP3    H172746   1.485   5.661  16.803 -0.5705 -0.2857 -0.9211
17085TIP3    H272747   1.576   5.541  16.816  1.0001  1.0616  1.1999
17086TIP3   OH272748   0.944   0.856  14.018 -0.0988  0.0485  0.2574
17086TIP3    H172749   1.028   0.903  14.023  0.1232 -0.3122 -0.0071
17086TIP3    H272750   0.881   0.915  14.059  0.2883  0.3199  0.4704
17087TIP3   OH272751   3.085   5.173   1.889  0.4066  0.0854 -0.2126
17087TIP3    H172752   3.004   5.164   1.839 -0.0802  1.6548  0.2421
17087TIP3    H272753   3.064   5.235   1.959  2.1246  0.9492 -0.3938
17088TIP3   OH272754   4.775   4.193  12.472 -0.0792 -0.4635 -0.2218
17088TIP3    H172755   4.746   4.219  12.560  0.8699  1.3796 -0.4023
17088TIP3    H272756   4.722   4.117  12.451 -0.5125 -0.8026  1.8479
17089TIP3   OH272757   5.105   2.428   0.033  0.1400 -0.9301 -0.5777
17089TIP3    H172758   5.161   2.449   0.108 -0.5636 -0.4202 -0.1837
17089TIP3    H272759   5.164   2.386  -0.030  1.6148  1.9262 -1.2767
17090TIP3   OH272760   2.869   2.411  13.500 -0.5661  0.1354 -0.3576
17090TIP3    H172761   2.792   2.453  13.462 -0.5420 -0.9565 -1.6756
17090TIP3    H272762   2.941   2.469  13.476 -0.7233  0.1244 -0.8843
17091TIP3   OH272763   5.339   5.244   2.383 -0.0622 -0.0272  0.1228
17091TIP3    H172764   5.433   5.227   2.381 -0.1728 -1.1897  1.9875
17091TIP3    H272765   5.303   5.193   2.311  0.6886  0.0703 -0.3290
17092TIP3   OH272766   0.763   5.154  16.726 -0.1129 -0.1027  0.2925
17092TIP3    H172767   0.855   5.130  16.729 -0.8596 -3.1958  3.0337
17092TIP3    H272768   0.724   5.092  16.665 -0.6706 -0.0723  0.6110
17093TIP3   OH272769   4.606   1.647  12.066  0.1084 -0.0252  0.0539
17093TIP3    H172770   4.642   1.712  12.126 -1.7022  0.5478  0.5668
17093TIP3    H272771   4.560   1.585  12.123 -0.7222 -0.0766 -0.6597
17094TIP3   OH272772   4.134   5.721   5.647 -0.3564  0.2982 -0.9231
17094TIP3    H172773   4.043   5.751   5.652 -1.4391 -2.1919 -3.1959
17094TIP3    H272774   4.141   5.656   5.717 -0.6670 -0.1863 -1.3286
17095TIP3   OH272775   4.018   1.703  17.034 -0.3437 -0.6004  0.4403
17095TIP3    H172776   4.007   1.772  16.968  2.2955  0.0673  0.6137
17095TIP3    H272777   4.061   1.632  16.987  1.5176 -0.1370  1.3579
17096TIP3   OH272778   5.382   2.016   1.315 -0.7558  0.0426  0.0046
17096TIP3    H172779   5.417   2.053   1.234  1.0472 -1.7196 -0.1201
17096TIP3    H272780   5.296   1.982   1.291  0.4564 -2.0419 -1.7244
17097TIP3   OH272781   3.022   6.177   1.869  0.3424  0.4334 -0.0035
17097TIP3    H172782   3.113   6.179   1.900  0.3631 -0.4847  0.0112
17097TIP3    H272783   3.007   6.265   1.836  1.6351  0.2606 -1.1272
17098TIP3   OH272784   4.388   0.961   3.652 -0.2719 -0.6699  0.2637
17098TIP3    H172785   4.442   1.026   3.606  1.7824 -0.8497  2.2561
17098TIP3    H272786   4.357   0.902   3.583  0.2181  0.7316 -1.2175
17099TIP3   OH272787   6.169   4.337  12.061 -0.1251 -0.3842 -0.3281
17099TIP3    H172788   6.237   4.348  12.127  0.3629 -3.0251 -0.2827
17099TIP3    H272789   6.089   4.322  12.111 -0.3894  0.8253 -0.3738
17100TIP3   OH272790   2.640   4.575  10.464 -0.4154  0.3346  0.0957
17100TIP3    H172791   2.625   4.480  10.467 -1.2876  0.4939  1.1717
17100TIP3    H272792   2.733   4.583  10.443 -0.2453 -0.7655  0.3475
17101TIP3   OH272793   0.427   6.446  17.251  0.0326 -0.7345  0.0186
17101TIP3    H172794   0.431   6.517  17.315  1.2966 -0.3232 -0.4771
17101TIP3    H272795   0.460   6.369  17.298 -1.3553 -1.0236  0.5619
17102TIP3   OH272796   5.441   3.116  17.284 -0.5578  0.1262  0.3647
17102TIP3    H172797   5.487   3.058  17.345 -1.7167 -0.9601  0.2725
17102TIP3    H272798   5.398   3.180  17.340 -1.7315 -0.9512  0.7482
17103TIP3   OH272799   3.358   0.713  12.450  0.4448  0.2145  0.4660
17103TIP3    H172800   3.274   0.730  12.408  0.6788 -1.3195 -0.7538
17103TIP3    H272801   3.376   0.791  12.502 -2.2591  0.1188  1.6907
17104TIP3   OH272802   6.514   1.370  11.720 -0.2920  0.3284 -0.1309
17104TIP3    H172803   6.567   1.362  11.641 -1.7126  2.9215 -1.4905
17104TIP3    H272804   6.437   1.316  11.703  0.1308 -0.4035  0.2186
17105TIP3   OH272805   4.699   4.023  10.572 -0.3163  0.0856  1.1081
17105TIP3    H172806   4.718   4.105  10.525 -0.4510  0.9076  2.4424
17105TIP3    H272807   4.710   3.955  10.506  1.2007  1.0522  0.2975
17106TIP3   OH272808   0.473   6.493  16.112 -0.2130 -0.0077  0.2760
17106TIP3    H172809   0.517   6.479  16.028  0.2536 -1.2371  0.7042
17106TIP3    H272810   0.545   6.508  16.175 -0.5605  1.0026  0.4629
17107TIP3   OH272811   3.139   3.160   2.982 -0.6809 -0.6976  0.0309
17107TIP3    H172812   3.209   3.125   3.038 -0.5581 -0.6670 -0.1037
17107TIP3    H272813   3.131   3.252   3.010 -1.3491 -0.9579  0.7337
17108TIP3   OH272814   6.678   2.387   2.916 -1.0709  0.1353  0.5955
17108TIP3    H172815   6.638   2.438   2.846 -1.5764 -0.8510  0.1400
17108TIP3    H272816   6.668   2.441   2.995 -1.0051  1.0056  0.0184
17109TIP3   OH272817   4.057   0.454  13.684 -0.6467 -0.2323 -0.2815
17109TIP3    H172818   4.091   0.365  13.688 -0.8393 -0.3017 -0.1958
17109TIP3    H272819   3.996   0.461  13.758 -2.3585 -0.7476 -1.5650
17110TIP3   OH272820   4.737   5.607   2.993 -0.3094  0.1690  0.0612
17110TIP3    H172821   4.778   5.574   2.913 -3.2249 -0.3011 -1.3961
17110TIP3    H272822   4.753   5.539   3.059  0.7108 -0.2438 -0.6034
17111TIP3   OH272823   2.745   6.007   6.682  0.7890 -0.3717 -0.0385
17111TIP3    H172824   2.746   5.938   6.749  1.7832  0.2168  0.5923
17111TIP3    H272825   2.654   6.035   6.678  0.6023 -0.8394  0.6333
17112TIP3   OH272826   3.713   1.074   1.878 -0.6436  0.7806 -0.7989
17112TIP3    H172827   3.738   1.022   1.955 -1.7735 -1.7137 -2.0003
17112TIP3    H272828   3.770   1.042   1.808 -0.9926  1.5929 -1.4784
17113TIP3   OH272829   5.053   4.697   4.025  0.7292 -0.6576  0.4355
17113TIP3    H172830   5.123   4.710   3.961  1.3032 -0.9311  0.9960
17113TIP3    H272831   4.974   4.689   3.972  1.0102  0.3950 -0.1717
17114TIP3   OH272832   2.189   0.944   5.491  0.2721  1.0724  0.3548
17114TIP3    H172833   2.223   0.942   5.580 -0.7675  0.4927  0.7573
17114TIP3    H272834   2.229   1.022   5.451  1.5709  0.7406  0.9763
17115TIP3   OH272835   6.605   5.238   0.577  0.8539 -0.0378 -0.0737
17115TIP3    H172836   6.664   5.311   0.593 -0.0326  0.1780  2.7335
17115TIP3    H272837   6.517   5.277   0.577  0.3827 -1.0342  1.2832
17116TIP3   OH272838   4.698   1.624  13.443 -0.0622  0.8257 -0.2349
17116TIP3    H172839   4.788   1.609  13.471 -1.1116 -2.1424  2.0856
17116TIP3    H272840   4.682   1.556  13.377 -0.6366  1.2627 -0.5532
17117TIP3   OH272841   5.976   6.033  15.966 -0.2831  0.3024 -0.2314
17117TIP3    H172842   5.903   6.059  15.910  2.8000  0.6514 -4.6186
17117TIP3    H272843   5.986   5.939  15.949 -0.7791 -0.1813  1.8751
17118TIP3   OH272844   5.952   3.793  14.545  0.4232  0.3681  0.4729
17118TIP3    H172845   5.876   3.793  14.605 -1.2941 -2.3776 -1.4653
17118TIP3    H272846   5.938   3.870  14.490 -0.2303  0.6161  0.9587
17119TIP3   OH272847   5.667   6.644  16.479  0.0379 -0.4375 -0.1092
17119TIP3    H172848   5.620   6.562  16.495  1.2886 -1.2651 -0.5406
17119TIP3    H272849   5.759   6.623  16.495  0.1712  1.5134  2.1361
17120TIP3   OH272850   2.199   2.396   5.284  0.3252 -0.4652  0.0439
17120TIP3    H172851   2.284   2.412   5.244  1.6119 -2.3063  1.8070
17120TIP3    H272852   2.190   2.466   5.350  2.1501 -2.0780  2.1702
17121TIP3   OH272853   6.697   6.019  13.411  0.0094  0.0044  0.6968
17121TIP3    H172854   6.629   6.086  13.419  1.7513  1.9227  0.3842
17121TIP3    H272855   6.765   6.046  13.474  1.1931 -0.9058 -0.1369
17122TIP3   OH272856   1.509   4.181   0.931 -0.2812 -0.2220 -0.0388
17122TIP3    H172857   1.570   4.195   0.859 -1.9085  0.2588 -1.3713
17122TIP3    H272858   1.564   4.184   1.009  1.2318  1.3713 -1.0991
17123TIP3   OH272859   3.205   5.164   2.287  0.1434  0.2231 -0.3163
17123TIP3    H172860   3.236   5.251   2.310  0.3961  0.2875 -0.8799
17123TIP3    H272861   3.229   5.109   2.362 -2.1607  1.0674  1.1496
17124TIP3   OH272862   3.206   1.445  15.911  0.0160 -0.1033  0.5661
17124TIP3    H172863   3.150   1.428  15.835  0.3721  2.1896 -0.2940
17124TIP3    H272864   3.181   1.533  15.940  1.9781  0.2803  1.2412
17125TIP3   OH272865   3.390   6.512  15.449  0.4591  0.0484  0.2937
17125TIP3    H172866   3.329   6.489  15.379  0.7378 -0.7313  0.2875
17125TIP3    H272867   3.361   6.460  15.524 -0.0076  1.0876  0.8523
17126TIP3   OH272868   2.450   0.496  13.022  0.2797 -0.1555  0.7187
17126TIP3    H172869   2.454   0.446  12.940 -0.3257  2.8591 -1.3287
17126TIP3    H272870   2.432   0.430  13.089 -0.3360 -2.6676 -1.6983
17127TIP3   OH272871   4.329   2.926   3.288 -0.5608  0.3368 -0.4749
17127TIP3    H172872   4.355   3.006   3.334  1.0408  1.4993 -3.1437
17127TIP3    H272873   4.371   2.855   3.337  0.0127  1.3735  0.5705
17128TIP3   OH272874   6.189   6.293  14.190  0.1320 -0.3184 -0.2724
17128TIP3    H172875   6.224   6.312  14.103 -0.8206 -0.2631 -0.6595
17128TIP3    H272876   6.192   6.198  14.197  1.0799 -0.2768  0.0179
17129TIP3   OH272877   4.469   6.136  12.956 -0.4815 -0.1616  0.9215
17129TIP3    H172878   4.432   6.065  12.903  0.0813  1.7021 -2.2206
17129TIP3    H272879   4.563   6.127  12.946 -0.3339 -0.1765  2.2402
17130TIP3   OH272880   5.277   3.640  11.506 -0.0683 -0.1784  0.1869
17130TIP3    H172881   5.248   3.580  11.575 -1.6444  1.9700  1.5341
17130TIP3    H272882   5.363   3.671  11.536  0.0887 -0.6404  0.2241
17131TIP3   OH272883   4.830   5.997  16.066  0.2484 -0.2123 -0.5538
17131TIP3    H172884   4.799   5.908  16.050  0.7514 -0.4078 -0.4355
17131TIP3    H272885   4.892   5.989  16.138 -1.5067  0.5714  1.1487
17132TIP3   OH272886   4.407   2.336   4.565  0.0633 -0.1711 -0.1792
17132TIP3    H172887   4.403   2.331   4.469 -3.5449  2.5506 -0.3822
17132TIP3    H272888   4.481   2.394   4.583  2.1054 -2.3423 -1.0635
17133TIP3   OH272889   0.720   6.777  12.747  0.3938 -0.4509  0.4139
17133TIP3    H172890   0.741   6.754  12.838  2.2673  2.2400  0.7868
17133TIP3    H272891   0.785   6.731  12.695  1.8743  1.0263  0.8528
17134TIP3   OH272892   0.558   1.633   0.517  0.2204  0.0304 -0.2719
17134TIP3    H172893   0.571   1.716   0.470  1.0755  0.8524  1.2954
17134TIP3    H272894   0.465   1.632   0.540 -0.0606 -0.0691 -1.3910
17135TIP3   OH272895   2.330   6.437  13.622 -0.0721  0.0572  0.2617
17135TIP3    H172896   2.398   6.452  13.687 -0.1267  0.5415  0.2153
17135TIP3    H272897   2.371   6.383  13.555  0.2153  0.2064  0.3178
17136TIP3   OH272898   5.934   1.879  12.327  0.3253 -0.1793 -0.2806
17136TIP3    H172899   5.963   1.965  12.294  1.1412 -0.0637  0.7065
17136TIP3    H272900   5.886   1.841  12.253  3.8897 -0.8649 -2.5264
17137TIP3   OH272901   1.562   3.854   3.208  0.2865 -0.0082  0.4134
17137TIP3    H172902   1.657   3.839   3.206  0.3355 -0.3602 -3.6313
17137TIP3    H272903   1.552   3.948   3.196  0.1088  0.0203  0.7677
17138TIP3   OH272904   2.944   5.786  14.302  0.2986 -0.2103 -0.1762
17138TIP3    H172905   3.001   5.862  14.294 -1.7546  1.5670  0.9578
17138TIP3    H272906   2.870   5.805  14.244 -0.4933 -1.1070  0.5086
17139TIP3   OH272907   6.257   0.424  15.393  0.1417 -0.3171 -0.4048
17139TIP3    H172908   6.257   0.328  15.401 -1.0580 -0.2740  0.4639
17139TIP3    H272909   6.191   0.441  15.325 -1.7231 -0.0470  1.3602
17140TIP3   OH272910   2.692   3.301  13.027 -0.6766 -0.5517 -0.0321
17140TIP3    H172911   2.633   3.361  12.981 -2.8372 -1.5911  1.2128
17140TIP3    H272912   2.634   3.232  13.061  1.5687 -2.8847 -0.6181
17141TIP3   OH272913   5.087   5.520  12.084 -0.1943  0.7385  0.4846
17141TIP3    H172914   5.014   5.522  12.145  1.3016 -0.0292  2.3811
17141TIP3    H272915   5.115   5.428  12.083 -0.0963  0.7382 -1.3107
17142TIP3   OH272916   2.856   1.370  11.473  0.0815  0.6020  0.1178
17142TIP3    H172917   2.869   1.439  11.538 -1.8298  0.9141  0.2211
17142TIP3    H272918   2.817   1.298  11.522 -0.8139  0.6106 -0.5629
17143TIP3   OH272919   0.837   1.336  14.605 -0.5679  0.6613  0.3196
17143TIP3    H172920   0.890   1.361  14.529 -0.2872  0.7276  0.5329
17143TIP3    H272921   0.828   1.241  14.597 -1.4951  0.7968 -0.4003
17144TIP3   OH272922   3.424   6.824   3.283 -0.1308  0.5385 -0.0213
17144TIP3    H172923   3.392   6.838   3.372 -0.4754  0.4873 -0.1346
17144TIP3    H272924   3.464   6.908   3.259  0.7546  0.2786  0.4986
17145TIP3   OH272925   2.473   6.224   4.897 -0.1402  0.4428 -0.3969
17145TIP3    H172926   2.391   6.272   4.892  0.0808  1.0903  1.6048
17145TIP3    H272927   2.541   6.290   4.882  0.0833 -0.2579 -3.1149
17146TIP3   OH272928   5.735   0.814   1.989 -0.2407  0.2844 -0.1893
17146TIP3    H172929   5.701   0.788   1.903 -0.0356  2.9434 -1.1552
17146TIP3    H272930   5.830   0.799   1.982 -0.5696 -3.7527  1.2718
17147TIP3   OH272931   4.117   3.142  11.707  0.2962  0.5471 -0.2432
17147TIP3    H172932   4.198   3.190  11.727 -0.4722  1.4329  0.8698
17147TIP3    H272933   4.103   3.156  11.614  1.5262  0.2022 -0.5068
17148TIP3   OH272934   4.616   5.660   2.703 -0.3005 -0.8855  0.4913
17148TIP3    H172935   4.575   5.721   2.642 -0.0907  0.0097  1.2261
17148TIP3    H272936   4.557   5.584   2.704 -0.6232 -0.6579 -0.3477
17149TIP3   OH272937   2.064   4.889  15.480  0.0515 -0.3035  1.0557
17149TIP3    H172938   2.025   4.931  15.403 -2.0363 -1.2081  1.5689
17149TIP3    H272939   2.047   4.950  15.552  1.8515  0.4611  0.8790
17150TIP3   OH272940   2.254   0.076  14.749  0.0625 -0.6094  0.7126
17150TIP3    H172941   2.170   0.067  14.704  0.6050 -0.3593 -0.3870
17150TIP3    H272942   2.255   0.005  14.813 -0.9459 -0.6600  0.6898
17151TIP3   OH272943   5.290   6.774  16.705  0.1765  0.0418 -1.0842
17151TIP3    H172944   5.305   6.688  16.744  0.0566  0.4950 -0.0130
17151TIP3    H272945   5.333   6.770  16.620  1.7619 -0.4537 -0.2818
17152TIP3   OH272946   0.016   0.911  13.585 -0.4183 -0.3813 -0.2185
17152TIP3    H172947   0.049   0.872  13.666  1.1859 -0.8540 -1.0654
17152TIP3    H272948   0.017   0.839  13.522  0.2531  0.4459 -1.1674
17153TIP3   OH272949   6.311   3.092  13.119  0.3998 -0.4104 -0.3929
17153TIP3    H172950   6.324   2.999  13.137 -0.5628 -0.2340  1.4853
17153TIP3    H272951   6.379   3.137  13.170  0.9364 -0.0725 -1.3814
17154TIP3   OH272952   6.776   4.391  13.092  0.2175 -0.1815  0.8915
17154TIP3    H172953   6.770   4.385  12.997 -0.7646 -0.9561  0.9850
17154TIP3    H272954   6.865   4.365  13.113  1.1858  2.1880  0.0432
17155TIP3   OH272955   4.523   2.342   3.318  0.0507 -0.5395 -0.1810
17155TIP3    H172956   4.556   2.420   3.274 -1.6763  0.0436 -0.5412
17155TIP3    H272957   4.599   2.286   3.328  0.8961  0.1605 -2.1243
17156TIP3   OH272958   2.179   5.974   2.105 -0.0571  0.1354  0.2357
17156TIP3    H172959   2.239   5.907   2.074 -0.6753 -0.6257  0.6653
17156TIP3    H272960   2.181   5.967   2.200 -1.1450 -0.2003  0.2478
17157TIP3   OH272961   5.117   5.197  10.960  0.1662 -0.0503 -0.1149
17157TIP3    H172962   5.162   5.147  10.891 -0.3079 -0.4119 -0.1690
17157TIP3    H272963   5.103   5.134  11.030 -0.7385 -0.0891 -0.3182
17158TIP3   OH272964   6.048   0.326  16.595 -0.0896 -0.0659  0.4892
17158TIP3    H172965   5.999   0.275  16.660 -3.2652 -0.4346 -1.9056
17158TIP3    H272966   6.091   0.259  16.541 -0.3984  0.0121  0.1404
17159TIP3   OH272967   2.561   1.257   0.216  0.0437 -0.7727  0.2140
17159TIP3    H172968   2.534   1.168   0.237 -0.5779 -1.1811 -2.0205
17159TIP3    H272969   2.495   1.313   0.259 -0.2228 -1.4371  0.6810
17160TIP3   OH272970   0.543   1.106  12.083  0.4445  0.3625 -0.1634
17160TIP3    H172971   0.612   1.171  12.099  0.2870  0.6057 -0.4630
17160TIP3    H272972   0.562   1.071  11.996  1.5479 -1.2713  0.6928
17161TIP3   OH272973   3.546   5.850   1.276  0.0907 -0.4426  0.6415
17161TIP3    H172974   3.498   5.917   1.227  1.4487  1.5561  1.8739
17161TIP3    H272975   3.563   5.781   1.212 -0.8737  0.6385 -0.8534
17162TIP3   OH272976   3.500   2.508  14.934  0.5805  0.0923  0.4810
17162TIP3    H172977   3.566   2.572  14.907 -0.8999  1.5728  0.2313
17162TIP3    H272978   3.453   2.487  14.853  1.4962 -1.9360  0.4035
17163TIP3   OH272979   3.041   5.335  12.858 -0.2977 -0.4366  0.5812
17163TIP3    H172980   3.043   5.421  12.901  1.5525  0.0886 -0.4292
17163TIP3    H272981   3.127   5.298  12.877  0.0165 -0.8075 -1.3882
17164TIP3   OH272982   5.927   1.051   3.328  0.0407 -0.5332 -0.0841
17164TIP3    H172983   5.879   0.969   3.316 -0.1117 -0.7127  1.5782
17164TIP3    H272984   6.017   1.029   3.305 -0.0486 -1.0912  0.0859
17165TIP3   OH272985   2.548   1.077  17.232 -0.0530 -0.2706  0.0800
17165TIP3    H172986   2.531   1.138  17.160 -1.0920  0.6989  1.1181
17165TIP3    H272987   2.522   0.992  17.197 -0.6494  0.2026 -0.6543
17166TIP3   OH272988   1.099   6.120   4.959  0.1409 -0.0081  0.6721
17166TIP3    H172989   1.138   6.094   4.876 -0.9690 -0.4030  0.2676
17166TIP3    H272990   1.042   6.194   4.938  1.0208  0.8985  1.3443
17167TIP3   OH272991   5.607   2.322  16.403 -0.1298 -0.5710 -0.1543
17167TIP3    H172992   5.688   2.278  16.380  0.1405 -0.8989  1.3672
17167TIP3    H272993   5.562   2.262  16.462 -0.6208  0.3935  0.4855
17168TIP3   OH272994   5.353   5.405  15.610 -0.4481  0.2164  0.3164
17168TIP3    H172995   5.292   5.463  15.657 -2.5230 -0.1348 -1.7777
17168TIP3    H272996   5.297   5.350  15.556  1.7403  1.6502 -3.8262
17169TIP3   OH272997   4.724   5.058   1.599 -0.2399  0.5224 -0.0186
17169TIP3    H172998   4.817   5.072   1.620 -0.5008 -0.9827  2.5037
17169TIP3    H272999   4.719   4.965   1.576 -0.9036  0.9690 -1.8292
17170TIP3   OH273000   2.606   2.403   0.906 -0.1364 -0.9256 -0.1228
17170TIP3    H173001   2.525   2.396   0.955 -0.7965  0.8427 -0.8717
17170TIP3    H273002   2.591   2.474   0.843  1.4063 -1.6658 -1.4324
17171TIP3   OH273003   3.234   6.464   4.079 -0.2642  0.1733 -0.2055
17171TIP3    H173004   3.195   6.551   4.092 -1.1466 -0.1013 -0.9656
17171TIP3    H273005   3.303   6.478   4.014 -0.2156  0.3445 -0.1192
17172TIP3   OH273006   0.986   1.700  13.159 -0.0630 -0.5706 -0.9635
17172TIP3    H173007   0.914   1.763  13.160  0.6223  0.2680  1.0875
17172TIP3    H273008   0.950   1.622  13.201  0.4891  0.2692  1.2106
17173TIP3   OH273009   3.157   1.475   1.356 -0.1641 -0.6086 -0.3918
17173TIP3    H173010   3.112   1.465   1.440  1.4516 -1.6489  0.4078
17173TIP3    H273011   3.238   1.426   1.367  2.1158  2.6788 -1.0953
17174TIP3   OH273012   1.032   2.729  15.153  0.0167  0.2151 -0.5598
17174TIP3    H173013   0.981   2.683  15.087  0.5483  0.4348 -1.1356
17174TIP3    H273014   1.103   2.770  15.104  0.4903  0.2802  0.1660
17175TIP3   OH273015   5.846   1.556  12.934 -0.3833 -0.3876 -0.0274
17175TIP3    H173016   5.778   1.534  12.870  0.7098 -0.9736 -1.0325
17175TIP3    H273017   5.844   1.651  12.939 -1.1408 -0.3852 -0.1971
17176TIP3   OH273018   4.789   3.713  14.969 -0.2856  0.0692  0.1798
17176TIP3    H173019   4.872   3.713  15.017  0.1739 -0.1123 -0.6067
17176TIP3    H273020   4.783   3.625  14.932  0.5824  0.9030 -2.1427
17177TIP3   OH273021   2.609   2.434   1.676  0.0330  0.9680  0.3217
17177TIP3    H173022   2.577   2.494   1.610 -1.0572  0.7533  0.6280
17177TIP3    H273023   2.590   2.347   1.640  2.4187  0.7452 -0.5289
17178TIP3   OH273024   3.405   4.391  12.895  0.2860 -0.4590  0.8149
17178TIP3    H173025   3.354   4.454  12.844  2.6505  0.6518 -0.3427
17178TIP3    H273026   3.340   4.332  12.932 -1.8271  0.9863 -0.3716
17179TIP3   OH273027   4.630   4.989  10.707 -0.3167  0.1800  1.1085
17179TIP3    H173028   4.598   5.028  10.626  0.3449 -0.7324  0.3826
17179TIP3    H273029   4.725   4.997  10.701 -0.0517 -2.5727  0.3435
17180TIP3   OH273030   0.155   0.501  15.765  0.1994  0.2643  0.0810
17180TIP3    H173031   0.152   0.474  15.673 -1.4711  0.6354  0.0036
17180TIP3    H273032   0.120   0.427  15.813  0.8183  0.1773  0.4136
17181TIP3   OH273033   0.032   6.404  11.877 -0.5031 -0.3458  0.4104
17181TIP3    H173034   0.086   6.482  11.888 -0.6289 -0.2618  0.4356
17181TIP3    H273035   0.065   6.342  11.943 -1.8839  0.4952  1.9525
17182TIP3   OH273036   4.838   4.600   6.262  0.3450  0.1650  0.2213
17182TIP3    H173037   4.811   4.514   6.230 -1.2226  0.7527 -0.1575
17182TIP3    H273038   4.779   4.617   6.336 -0.6889  1.6731 -0.8806
17183TIP3   OH273039   3.469   4.169   4.912 -0.1959  0.1992 -0.1602
17183TIP3    H173040   3.475   4.254   4.869  0.8047  0.1168 -0.2134
17183TIP3    H273041   3.558   4.134   4.908 -0.7743 -1.2767 -1.0060
17184TIP3   OH273042   3.845   0.424   2.551 -0.0641  0.1071  0.4219
17184TIP3    H173043   3.782   0.433   2.479 -1.4893 -0.8208  1.4865
17184TIP3    H273044   3.901   0.351   2.525  1.4805  1.7465 -1.1195
17185TIP3   OH273045   2.164   2.088  15.025  0.0328  0.4930  0.6252
17185TIP3    H173046   2.199   2.061  14.940 -0.2352  0.2358  0.5945
17185TIP3    H273047   2.104   2.017  15.050 -0.8635  1.1678  0.4346
17186TIP3   OH273048   6.583   2.800   1.908 -0.0104  0.3718  0.1495
17186TIP3    H173049   6.665   2.754   1.892 -0.7218 -1.0558  0.4516
17186TIP3    H273050   6.559   2.838   1.824  0.2860 -0.3531 -0.2694
17187TIP3   OH273051   3.139   6.426   0.061 -0.2302  0.4037  0.2141
17187TIP3    H173052   3.106   6.508   0.026 -0.1610  0.0762 -0.6351
17187TIP3    H273053   3.233   6.429   0.044 -0.3685 -0.2880 -0.7499
17188TIP3   OH273054   2.219   6.512   2.481  0.2245  0.5025  0.6388
17188TIP3    H173055   2.255   6.515   2.393 -1.0931  0.5675  0.0915
17188TIP3    H273056   2.218   6.419   2.504  0.5227  0.4832  0.5757
17189TIP3   OH273057   4.372   5.748  16.301 -0.3082 -0.2001 -0.3747
17189TIP3    H173058   4.338   5.782  16.218 -1.8599  1.2438  0.7906
17189TIP3    H273059   4.296   5.743  16.358  0.8174 -0.5933  1.1568
17190TIP3   OH273060   4.618   2.427   1.133  0.7530  0.5164 -0.1560
17190TIP3    H173061   4.603   2.513   1.172  1.9803  0.3474  0.7702
17190TIP3    H273062   4.713   2.423   1.120  0.6749 -0.5662 -0.5045
17191TIP3   OH273063   3.702   3.344  13.648  0.3170  0.1444 -0.0686
17191TIP3    H173064   3.728   3.433  13.674  2.1452 -0.5927  0.7489
17191TIP3    H273065   3.682   3.352  13.555  1.0187  1.3164 -0.1473
17192TIP3   OH273066   4.015   3.472   1.302 -0.0174  0.9336 -0.0333
17192TIP3    H173067   4.009   3.542   1.237 -1.6200  0.1783 -0.7533
17192TIP3    H273068   3.962   3.502   1.376 -0.5082  0.5930 -0.2435
17193TIP3   OH273069   3.932   5.723  15.351 -0.5725  0.1749 -0.1813
17193TIP3    H173070   3.965   5.650  15.403 -0.0548 -0.1749 -0.9802
17193TIP3    H273071   3.970   5.801  15.392 -2.8796  0.2485  2.0455
17194TIP3   OH273072   2.790   2.875   4.333 -0.1719 -0.0137  0.1526
17194TIP3    H173073   2.882   2.901   4.339 -0.1806 -0.2291  1.5717
17194TIP3    H273074   2.753   2.932   4.267  0.9109  0.2953 -0.2077
17195TIP3   OH273075   3.952   2.649  11.037 -0.4726 -0.1991  0.0868
17195TIP3    H173076   3.978   2.690  10.954 -0.1755 -1.1997 -0.3195
17195TIP3    H273077   3.912   2.566  11.012  0.6057 -1.0178  1.0057
17196TIP3   OH273078   3.014   2.680  13.709  0.5838 -0.3735 -0.4519
17196TIP3    H173079   3.052   2.748  13.765  0.0210  0.3925 -0.9747
17196TIP3    H273080   2.945   2.641  13.762  0.3270  0.0686 -0.4543
17197TIP3   OH273081   5.838   6.311  15.737 -0.4533 -0.3908 -0.1856
17197TIP3    H173082   5.821   6.224  15.699 -1.0276 -0.4451  0.1748
17197TIP3    H273083   5.776   6.369  15.692 -1.7854 -0.6164  1.2444
17198TIP3   OH273084   4.672   3.371   6.005 -0.9482  0.2043 -0.0646
17198TIP3    H173085   4.662   3.288   6.051 -3.5736 -0.4798 -1.6875
17198TIP3    H273086   4.589   3.416   6.017 -0.5444  1.4108 -1.4446
17199TIP3   OH273087   4.420   1.733   2.238  0.5849 -0.0949 -0.1395
17199TIP3    H173088   4.391   1.807   2.185  0.5423  1.2163  1.6590
17199TIP3    H273089   4.369   1.659   2.204 -2.5186  1.4834  0.6925
17200TIP3   OH273090   2.473   1.226   2.704 -0.3014  0.4229 -0.1835
17200TIP3    H173091   2.531   1.231   2.779 -2.1843  1.5233  1.3009
17200TIP3    H273092   2.455   1.132   2.693  1.0663  0.1417 -0.1669
17201TIP3   OH273093   5.198   0.910   4.121 -0.2046  0.1208  0.1250
17201TIP3    H173094   5.261   0.917   4.049  0.3443  0.1150  0.5940
17201TIP3    H273095   5.114   0.893   4.078  0.4165 -1.8671 -0.4362
17202TIP3   OH273096   4.172   4.068  13.807 -0.7709 -0.3338  0.1805
17202TIP3    H173097   4.164   4.115  13.724 -1.1694  0.4927  0.6725
17202TIP3    H273098   4.253   4.018  13.799  0.1231  1.0932 -0.0528
17203TIP3   OH273099   2.030   1.324  12.938 -0.0818  0.1578 -0.4131
17203TIP3    H173100   2.009   1.301  12.848 -0.1510  1.0486 -0.6415
17203TIP3    H273101   2.048   1.418  12.935  2.1589 -0.1946  0.0757
17204TIP3   OH273102   5.411   4.435   4.643 -0.1392  0.5460 -0.7140
17204TIP3    H173103   5.337   4.464   4.695  1.0841 -0.5100  1.7552
17204TIP3    H273104   5.488   4.478   4.682  0.8466 -0.3564 -1.5742
17205TIP3   OH273105   1.026   0.425   3.356  0.1757  0.8265  0.5368
17205TIP3    H173106   0.991   0.403   3.270  0.5915  0.6375  0.4135
17205TIP3    H273107   0.978   0.368   3.417 -1.2390  2.0502  0.6253
17206TIP3   OH273108   4.175   1.206  11.595  0.1675  0.4783  0.7830
17206TIP3    H173109   4.164   1.301  11.599  0.1582  0.4733  0.8837
17206TIP3    H273110   4.090   1.174  11.566  0.1431  0.4954  0.8335
17207TIP3   OH273111   6.480   5.193   2.799  0.2641 -0.6962  0.2339
17207TIP3    H173112   6.407   5.155   2.847 -1.0579  2.1771  0.7060
17207TIP3    H273113   6.480   5.149   2.715  1.2258 -4.2881  1.9298
17208TIP3   OH273114   4.844   1.065   6.031 -0.0278  0.5448  0.4451
17208TIP3    H173115   4.876   0.981   6.001  0.8075  0.5932  1.1663
17208TIP3    H273116   4.769   1.084   5.974 -1.7689 -1.8028  1.8110
17209TIP3   OH273117   3.762   1.383  13.970  0.5446 -0.1068 -0.2789
17209TIP3    H173118   3.783   1.290  13.979  1.4942  0.0936 -0.3049
17209TIP3    H273119   3.820   1.427  14.032  1.5784  0.6249 -1.6996
17210TIP3   OH273120   5.212   3.490  14.387  0.2532 -0.4633 -0.2713
17210TIP3    H173121   5.141   3.552  14.372 -1.1977 -2.2294 -1.0948
17210TIP3    H273122   5.170   3.404  14.387  1.8763 -1.4240  2.6684
17211TIP3   OH273123   1.792   6.229   0.964  0.0996  0.7845  0.2850
17211TIP3    H173124   1.773   6.147   1.010  1.0242  1.0386  1.1521
17211TIP3    H273125   1.760   6.215   0.875  1.6895 -1.1084 -0.0358
17212TIP3   OH273126   1.253   3.482   4.346  0.0132  0.1446 -0.3776
17212TIP3    H173127   1.297   3.476   4.430 -1.5080 -0.1931  0.4279
17212TIP3    H273128   1.237   3.391   4.319 -1.5346  0.2304  0.1176
17213TIP3   OH273129   0.276   0.999   5.950  0.5581 -0.6336 -0.0691
17213TIP3    H173130   0.248   0.926   6.005 -0.9150  0.1485  0.2718
17213TIP3    H273131   0.325   1.057   6.008 -1.8222  0.6820  0.7720
17214TIP3   OH273132   0.738   5.823   1.418  0.0332  0.1760  0.0694
17214TIP3    H173133   0.664   5.882   1.401 -0.1741 -0.0371  0.2287
17214TIP3    H273134   0.799   5.841   1.346 -0.1782  0.3425 -0.0725
17215TIP3   OH273135   3.299   4.830   0.875 -0.0187 -0.2054  0.4086
17215TIP3    H173136   3.299   4.757   0.812  0.6205  1.2085 -1.3302
17215TIP3    H273137   3.376   4.815   0.929  0.5579 -0.4188 -0.4501
17216TIP3   OH273138   2.591   2.782   3.257  0.1987 -0.0350 -0.3547
17216TIP3    H173139   2.608   2.849   3.191  3.0105  0.3279  0.5792
17216TIP3    H273140   2.547   2.828   3.328  1.8493  0.8606  0.1553
17217TIP3   OH273141   6.067   5.252  10.999  0.0312  0.3241  0.2913
17217TIP3    H173142   6.109   5.331  10.966  0.7194 -1.1070 -2.5552
17217TIP3    H273143   6.139   5.194  11.023 -0.3243 -0.7110 -1.0031
17218TIP3   OH273144   1.788   1.522   3.396  0.1562 -0.0013 -0.6615
17218TIP3    H173145   1.704   1.552   3.361  0.1577 -0.4943 -1.1000
17218TIP3    H273146   1.777   1.525   3.491  0.7233  3.0329 -0.5739
17219TIP3   OH273147   0.055   5.027   0.161 -0.1607 -0.4136 -0.1553
17219TIP3    H173148   0.025   5.117   0.154  1.5205  0.1827 -0.3013
17219TIP3    H273149   0.149   5.032   0.143 -0.2481 -2.3774 -1.5143
17220TIP3   OH273150   1.040   0.476  16.655 -0.0449 -0.2966 -0.0011
17220TIP3    H173151   0.992   0.408  16.608  2.7741 -3.2839  1.0426
17220TIP3    H273152   0.978   0.511  16.718 -1.3035 -2.9104  0.3383
17221TIP3   OH273153   4.919   5.004  11.312  0.1134 -0.2279  0.2519
17221TIP3    H173154   4.851   5.072  11.313  1.0816  0.7982  2.4921
17221TIP3    H273155   4.988   5.040  11.257  0.4890  0.4949  1.1772
17222TIP3   OH273156   2.437   1.889  11.719  0.0345  0.1180 -0.2563
17222TIP3    H173157   2.521   1.912  11.759  0.4900 -0.7290 -0.6917
17222TIP3    H273158   2.420   1.959  11.657  1.4211 -0.6854 -1.6119
17223TIP3   OH273159   4.028   0.143  11.967  0.1757  0.4517  0.2059
17223TIP3    H173160   3.947   0.157  11.917  1.4935  1.9459 -1.6789
17223TIP3    H273161   4.053   0.230  11.996  2.5024  0.4982 -1.6668
17224TIP3   OH273162   5.890   5.241   6.308  0.2725  0.3802  0.2669
17224TIP3    H173163   5.846   5.232   6.392  1.5075 -1.2837  0.7827
17224TIP3    H273164   5.829   5.203   6.245 -0.2466  0.7630  0.5302
17225TIP3   OH273165   0.393   1.012  14.771  0.0876  0.2881  0.4616
17225TIP3    H173166   0.344   1.043  14.847 -1.4403  0.6083 -0.6044
17225TIP3    H273167   0.439   1.089  14.739 -0.3977  0.4913  0.2439
17226TIP3   OH273168   4.439   6.082   4.265 -0.4667 -0.5856  0.2277
17226TIP3    H173169   4.377   6.051   4.331  0.6464 -0.7087  1.2480
17226TIP3    H273170   4.442   6.177   4.279  0.3193 -0.6957  0.8638
17227TIP3   OH273171   5.158   0.707  14.285  0.0918 -0.2797 -0.5182
17227TIP3    H173172   5.192   0.730  14.371 -0.4331 -0.1288 -0.3492
17227TIP3    H273173   5.217   0.751  14.224  1.3678 -1.5993 -0.2940
17228TIP3   OH273174   1.507   5.612  15.131 -0.2492 -0.1314 -0.2365
17228TIP3    H173175   1.533   5.555  15.060 -1.6432 -1.5615  0.3334
17228TIP3    H273176   1.456   5.682  15.089 -1.2530 -1.0870 -0.6601
17229TIP3   OH273177   6.108   0.515   5.691  0.2414  1.1584  0.7232
17229TIP3    H173178   6.154   0.589   5.653  0.5242  0.2854 -0.6724
17229TIP3    H273179   6.177   0.453   5.714 -0.1502 -0.0761 -1.2101
17230TIP3   OH273180   6.488   4.805   0.191 -0.4714 -0.2818 -0.2952
17230TIP3    H173181   6.393   4.815   0.197 -0.4049 -0.2272  1.2181
17230TIP3    H273182   6.522   4.861   0.261  0.6893 -0.1380 -0.9484
17231TIP3   OH273183   2.963   1.371   1.173 -0.0781  0.4701 -0.5975
17231TIP3    H173184   2.892   1.367   1.237  0.4861  0.0586  0.0182
17231TIP3    H273185   3.036   1.410   1.220  0.5535 -0.4505 -0.7738
17232TIP3   OH273186   4.876   4.851   2.696 -0.1529 -0.2422  0.1512
17232TIP3    H173187   4.961   4.818   2.726 -0.1029  1.0012  1.5095
17232TIP3    H273188   4.898   4.930   2.646 -0.4667 -0.3234 -0.1160
17233TIP3   OH273189   1.668   1.166   2.386 -0.0043 -0.2215  0.3183
17233TIP3    H173190   1.741   1.214   2.347 -0.2191 -0.0339  0.1422
17233TIP3    H273191   1.601   1.233   2.401 -0.5431 -0.5631 -0.5125
17234TIP3   OH273192   5.334   2.854  15.956 -0.7423  0.1180 -0.1860
17234TIP3    H173193   5.348   2.925  16.018  2.4348 -0.2434 -0.3221
17234TIP3    H273194   5.385   2.879  15.879 -0.0047 -1.9891 -0.4558
17235TIP3   OH273195   5.067   6.198   4.026  0.0177 -0.1986 -0.1548
17235TIP3    H173196   5.043   6.108   4.052  1.5369 -0.7799 -0.6832
17235TIP3    H273197   5.162   6.196   4.018  0.0742  1.4812 -0.1846
17236TIP3   OH273198   6.522   6.433  12.485  0.5442 -0.0079  0.5775
17236TIP3    H173199   6.496   6.424  12.394 -1.6465  0.0391  1.1331
17236TIP3    H273200   6.570   6.515  12.490  0.0587  0.3414 -0.4084
17237TIP3   OH273201   3.076   2.337   5.384  0.0225 -0.3136  0.2260
17237TIP3    H173202   3.154   2.392   5.388  0.9493 -1.4905 -0.8332
17237TIP3    H273203   3.037   2.356   5.299 -1.1423  0.6012  0.9283
17238TIP3   OH273204   1.626   5.494  14.017  0.8204 -0.4039 -0.4650
17238TIP3    H173205   1.710   5.537  14.001  0.6830 -0.7189 -2.1975
17238TIP3    H273206   1.639   5.404  13.986  0.0620 -0.6655 -0.0520
17239TIP3   OH273207   0.239   2.882   5.530 -0.9521  0.2247 -0.5972
17239TIP3    H173208   0.151   2.845   5.536 -1.3920  1.2548 -0.5727
17239TIP3    H273209   0.270   2.857   5.443 -1.4566  0.2637 -0.7894
17240TIP3   OH273210   3.285   0.031  14.067  0.1171 -0.2239 -1.0749
17240TIP3    H173211   3.310  -0.010  13.984 -2.1589 -0.3609 -1.7556
17240TIP3    H273212   3.330   0.116  14.066  2.9663 -1.6051 -0.7387
17241TIP3   OH273213   2.655   1.552  13.024  0.3423  0.0358  0.2839
17241TIP3    H173214   2.661   1.545  12.929  2.2255 -1.0022  0.4298
17241TIP3    H273215   2.621   1.640  13.040 -0.5226  0.0233 -1.3420
17242TIP3   OH273216   1.652   2.357  13.970  0.2470  0.0976  0.1747
17242TIP3    H173217   1.737   2.364  14.013  0.0223 -1.2746  0.8950
17242TIP3    H273218   1.616   2.274  14.001 -1.6598  0.9591  0.4179
17243TIP3   OH273219   5.432   1.257   1.388 -0.2387  0.7862  0.4021
17243TIP3    H173220   5.503   1.304   1.430 -0.3344  1.5900 -0.3151
17243TIP3    H273221   5.418   1.303   1.305 -0.9903  0.0927  0.1306
17244TIP3   OH273222   4.415   2.332  15.327 -0.6866  0.1632  0.7179
17244TIP3    H173223   4.376   2.387  15.395 -2.2854 -0.0677  0.0377
17244TIP3    H273224   4.430   2.392  15.254  1.3610  0.4853  1.3532
17245TIP3   OH273225   5.906   1.072  16.545 -0.3421 -0.1179 -0.3179
17245TIP3    H173226   5.811   1.068  16.534 -0.4544  0.5535  0.3092
17245TIP3    H273227   5.919   1.134  16.617  0.5289 -0.9162  0.2315
17246TIP3   OH273228   0.818   1.366   1.060  0.3775 -0.3901 -0.0964
17246TIP3    H173229   0.893   1.308   1.070  0.3845 -0.1995  1.1184
17246TIP3    H273230   0.757   1.339   1.129  0.7005  1.4771  0.9957
17247TIP3   OH273231   2.111   5.635  11.675 -0.6816 -0.7895  0.1584
17247TIP3    H173232   2.108   5.644  11.579  0.1733 -1.0377  0.0972
17247TIP3    H273233   2.090   5.543  11.690 -0.9716 -0.7125  0.2186
17248TIP3   OH273234   3.626   4.832   3.976 -0.0330 -0.2870 -0.3480
17248TIP3    H173235   3.634   4.790   4.061  1.2527 -0.4692 -0.5343
17248TIP3    H273236   3.547   4.794   3.938 -0.1754 -0.7991  0.4359
17249TIP3   OH273237   1.551   0.245   3.153  0.5030  0.5496  0.6634
17249TIP3    H173238   1.456   0.246   3.164  0.5080 -1.5634  1.1751
17249TIP3    H273239   1.583   0.182   3.217  2.1451  0.2297 -0.3995
17250TIP3   OH273240   6.240   0.573  10.804  0.4257  0.8710  0.2462
17250TIP3    H173241   6.214   0.617  10.724 -0.5991  1.0284  0.6556
17250TIP3    H273242   6.259   0.644  10.865 -4.6076  1.0323  2.0618
17251TIP3   OH273243   2.544   3.971  12.778  0.2090  0.2408 -0.6410
17251TIP3    H173244   2.568   4.050  12.729  2.9804 -0.3882 -0.5075
17251TIP3    H273245   2.512   3.911  12.711  1.3718  0.3292 -1.3117
17252TIP3   OH273246   0.427   3.297   0.305 -0.3939 -0.8466  0.0356
17252TIP3    H173247   0.520   3.275   0.302 -0.4222 -0.9977  0.2244
17252TIP3    H273248   0.412   3.350   0.227 -0.1139 -0.6892  0.0869
17253TIP3   OH273249   1.425   4.159  17.117  0.1837 -0.0877  0.3015
17253TIP3    H173250   1.370   4.171  17.194 -0.0352 -0.2023  0.1639
17253TIP3    H273251   1.507   4.124  17.152 -0.8791 -2.9138  0.2386
17254TIP3   OH273252   4.128   2.936   0.340 -0.4025 -0.5327  0.5071
17254TIP3    H173253   4.156   2.855   0.299 -0.6577 -0.6141  0.4902
17254TIP3    H273254   4.194   2.955   0.406 -1.0685 -1.5009  1.4801
17255TIP3   OH273255   3.171   1.021   4.361  0.5467  0.6654  0.0903
17255TIP3    H173256   3.196   0.984   4.445 -1.0751  0.5540  0.5692
17255TIP3    H273257   3.191   0.953   4.297  1.2209  0.5123  0.4620
17256TIP3   OH273258   2.433   1.686   2.038 -0.2017 -0.6140 -0.0628
17256TIP3    H173259   2.407   1.732   1.958 -0.3550  0.7261  0.7239
17256TIP3    H273260   2.365   1.619   2.049 -1.4042  0.5779  0.0732
17257TIP3   OH273261   0.635   1.938   2.176  0.1367 -0.7348 -0.0721
17257TIP3    H173262   0.728   1.950   2.193  0.3984  0.6119 -2.0374
17257TIP3    H273263   0.631   1.877   2.103 -0.3167  1.1822 -1.7365
17258TIP3   OH273264   2.451   6.785   3.535 -0.1027 -0.7005  0.3044
17258TIP3    H173265   2.505   6.855   3.571  1.0355 -2.1394  1.5623
17258TIP3    H273266   2.421   6.736   3.612  0.5021 -2.5342 -0.5522
17259TIP3   OH273267   0.162   3.157  13.711  0.0211 -0.5438 -0.4246
17259TIP3    H173268   0.218   3.212  13.765  0.7726 -1.0287 -0.7052
17259TIP3    H273269   0.138   3.084  13.769 -1.4981  0.3728  0.1572
17260TIP3   OH273270   6.696   3.099   2.438 -0.2736 -0.1280 -0.2889
17260TIP3    H173271   6.664   3.048   2.363  0.5035 -0.5544 -0.3489
17260TIP3    H273272   6.792   3.089   2.433 -0.1893 -3.9752  3.2776
17261TIP3   OH273273   2.505   2.410  14.485  0.2019  0.5346 -0.1475
17261TIP3    H173274   2.533   2.496  14.514  1.8738  0.2467 -0.7507
17261TIP3    H273275   2.549   2.349  14.544  1.0591  0.0451 -1.2532
17262TIP3   OH273276   3.324   4.779  11.132 -0.1762 -0.2769  0.1941
17262TIP3    H173277   3.321   4.863  11.086 -0.3119  0.8268  2.1223
17262TIP3    H273278   3.235   4.765  11.162 -0.1380 -1.1007 -0.0571
17263TIP3   OH273279   1.735   2.805   0.237  0.3129  0.7153  0.1921
17263TIP3    H173280   1.668   2.737   0.234  0.8621  0.1007  1.2301
17263TIP3    H273281   1.694   2.878   0.283  0.9065 -0.3714  2.5995
17264TIP3   OH273282   4.535   1.707  16.386 -0.7229 -0.1184  0.2505
17264TIP3    H173283   4.440   1.702  16.373 -0.5509  0.9633 -1.7209
17264TIP3    H273284   4.572   1.661  16.311  0.3192  1.1836 -0.0591
17265TIP3   OH273285   4.965   4.226  16.590  0.0721 -0.0911  0.2561
17265TIP3    H173286   4.916   4.290  16.537  1.5027 -0.5653 -1.7349
17265TIP3    H273287   5.025   4.280  16.642  0.1446  0.2787 -0.2022
17266TIP3   OH273288   4.624   2.944  11.501 -0.4074 -0.1556 -0.3223
17266TIP3    H173289   4.663   3.026  11.532  1.6446 -1.2779  0.2639
17266TIP3    H273290   4.538   2.969  11.468 -0.1903  2.0841  0.6443
17267TIP3   OH273291   3.686   4.691   5.074 -0.1528  0.1509 -0.2503
17267TIP3    H173292   3.711   4.685   4.982 -0.5991 -0.4989 -0.3434
17267TIP3    H273293   3.591   4.680   5.073 -0.3874  1.9140  0.1449
17268TIP3   OH273294   3.992   1.336   3.865  0.5688 -0.1990  0.2788
17268TIP3    H173295   3.934   1.386   3.808  0.8810 -1.4273 -1.1756
17268TIP3    H273296   4.016   1.398   3.934 -0.2941  1.1625 -0.5762
17269TIP3   OH273297   3.777   5.091  11.844 -0.0978  0.0477  0.5469
17269TIP3    H173298   3.784   4.998  11.867  1.3454 -0.5139 -1.8006
17269TIP3    H273299   3.702   5.094  11.784  1.2122 -0.0957 -1.1886
17270TIP3   OH273300   3.854   2.357   1.305  0.1560  0.6385  0.7196
17270TIP3    H173301   3.764   2.388   1.313  0.2341  0.6054  1.9905
17270TIP3    H273302   3.879   2.334   1.395  0.8258 -1.0793  0.1389
17271TIP3   OH273303   5.217   1.769   0.499  0.6005 -0.4308 -0.7112
17271TIP3    H173304   5.145   1.734   0.447  1.3713 -0.8623 -1.5177
17271TIP3    H273305   5.287   1.785   0.436  0.6376  1.6267 -0.2118
17272TIP3   OH273306   2.324   2.800  13.180 -0.1276  0.3741 -0.4653
17272TIP3    H173307   2.392   2.844  13.129  1.2705 -0.7138  0.4088
17272TIP3    H273308   2.315   2.854  13.259  0.9290 -0.3581  0.1799
17273TIP3   OH273309   5.637   2.804  12.203 -0.6795 -0.4870 -0.3751
17273TIP3    H173310   5.647   2.865  12.130 -0.4891 -2.3199 -1.9573
17273TIP3    H273311   5.582   2.734  12.169 -0.8718 -1.2327  1.3638
17274TIP3   OH273312   5.830   3.574   4.872  0.1742  0.5477  0.0229
17274TIP3    H173313   5.925   3.563   4.878  0.1704  0.6147  0.1942
17274TIP3    H273314   5.808   3.631   4.945  0.0276  0.6927 -0.1337
17275TIP3   OH273315   0.010   4.850  16.993 -0.9030  0.1142  0.3901
17275TIP3    H173316   0.095   4.851  16.948 -1.6894  0.6904 -1.1824
17275TIP3    H273317   0.031   4.837  17.085  0.9994  1.7875  0.2554
17276TIP3   OH273318   3.993   4.944   3.035 -0.3791 -0.0487  0.0910
17276TIP3    H173319   4.019   5.006   3.102  0.5014  0.3702 -0.6144
17276TIP3    H273320   3.978   4.862   3.083  0.9293  0.0538  0.7212
17277TIP3   OH273321   0.441   3.465   0.537  0.0649  0.4597  0.2904
17277TIP3    H173322   0.514   3.516   0.571  0.4358  0.3225 -0.2837
17277TIP3    H273323   0.475   3.424   0.457  0.1769 -1.6863  1.3708
17278TIP3   OH273324   0.078   2.734  15.478  0.0196 -0.0165  0.6766
17278TIP3    H173325   0.027   2.778  15.410  0.4013 -0.2753  0.2202
17278TIP3    H273326   0.143   2.799  15.504 -0.2428  0.1485  0.9305
17279TIP3   OH273327   1.659   6.318   2.274 -0.1445 -0.3854  0.2257
17279TIP3    H173328   1.745   6.357   2.265  0.6508 -2.1306 -0.1729
17279TIP3    H273329   1.676   6.229   2.307 -1.7223 -1.0523 -0.6452
17280TIP3   OH273330   5.610   1.311  11.598 -0.0173 -0.8753  0.6366
17280TIP3    H173331   5.682   1.248  11.606 -0.7271 -1.5412  2.1542
17280TIP3    H273332   5.532   1.262  11.623 -0.4890  0.7878  2.7291
17281TIP3   OH273333   1.292   4.968   3.533 -0.0745  0.5886  0.2597
17281TIP3    H173334   1.385   4.990   3.520 -0.0866  0.7700  0.4709
17281TIP3    H273335   1.267   4.922   3.453  0.8264 -1.5281  1.0958
17282TIP3   OH273336   3.958   0.787   4.783 -0.6194 -0.5672  0.0564
17282TIP3    H173337   3.888   0.765   4.721 -1.1887 -0.5353  0.6775
17282TIP3    H273338   3.983   0.876   4.759 -1.3962 -0.2518  0.3701
17283TIP3   OH273339   5.045   6.257   5.525  0.1745  0.3784 -0.2735
17283TIP3    H173340   4.982   6.284   5.591  1.6686  0.9721  0.9734
17283TIP3    H273341   5.111   6.326   5.525  1.5076 -0.8477 -0.5635
17284TIP3   OH273342   2.603   3.536   0.827  0.4014 -0.1086 -0.2186
17284TIP3    H173343   2.645   3.450   0.833  0.6786  0.0057 -0.5363
17284TIP3    H273344   2.568   3.539   0.738 -0.3470 -0.2317  0.0606
17285TIP3   OH273345   6.814   6.497   5.357  0.2272 -0.0113 -0.4192
17285TIP3    H173346   6.736   6.480   5.303 -0.0548  0.9466 -0.3322
17285TIP3    H273347   6.824   6.418   5.410 -0.3123 -0.4032 -0.8855
17286TIP3   OH273348   0.126   6.376   5.639 -0.5372 -0.1604  0.4114
17286TIP3    H173349   0.124   6.358   5.733 -0.4006 -1.1372  0.2368
17286TIP3    H273350   0.093   6.466   5.631 -0.3878 -0.0098  1.4006
17287TIP3   OH273351   4.123   3.331   0.720  0.5156 -0.4452  0.0890
17287TIP3    H173352   4.103   3.247   0.760 -0.0636  0.4632  1.7946
17287TIP3    H273353   4.111   3.317   0.626  1.4943 -2.5334  0.2408
17288TIP3   OH273354   4.961   3.518   3.596  0.1152 -0.3524  0.3085
17288TIP3    H173355   4.931   3.513   3.506  2.6414  2.3245 -0.8274
17288TIP3    H273356   5.007   3.436   3.611  0.6061 -0.3801 -1.2178
17289TIP3   OH273357   4.221   5.978  15.229 -0.1426  0.8457 -0.0528
17289TIP3    H173358   4.171   5.969  15.311 -0.3877  0.0362 -0.2833
17289TIP3    H273359   4.291   6.040  15.251 -0.5238  1.0535  0.6203
17290TIP3   OH273360   2.170   1.258  13.492 -1.0146  0.9100  0.0240
17290TIP3    H173361   2.262   1.263  13.521 -0.9790  1.6475 -0.1930
17290TIP3    H273362   2.126   1.206  13.560  0.1559 -2.1730 -1.3818
17291TIP3   OH273363   3.240   4.669   2.554 -0.2611 -0.1824  0.0939
17291TIP3    H173364   3.191   4.722   2.491  2.9672  3.6212  0.3702
17291TIP3    H273365   3.233   4.717   2.636  0.9699 -1.4637  0.9866
17292TIP3   OH273366   1.676   6.326  13.224 -0.1069 -0.3312  0.5327
17292TIP3    H173367   1.691   6.358  13.135  0.6939 -1.2774  0.3146
17292TIP3    H273368   1.652   6.405  13.273 -1.6006  0.0559 -0.7200
17293TIP3   OH273369   6.183   5.409   5.220 -0.1107 -0.0661  0.4710
17293TIP3    H173370   6.130   5.461   5.160 -0.8677 -2.0250 -0.6599
17293TIP3    H273371   6.190   5.462   5.299 -1.9832  1.1578 -0.1206
17294TIP3   OH273372   4.047   3.648  16.052 -0.6585  0.6728 -0.1224
17294TIP3    H173373   3.967   3.600  16.034 -0.4861  0.0122  0.8148
17294TIP3    H273374   4.018   3.726  16.101 -0.8132  0.8832 -0.5486
17295TIP3   OH273375   0.628   6.647   4.341  0.3416  1.0595  0.5736
17295TIP3    H173376   0.718   6.676   4.355  0.4500 -0.1053  2.8634
17295TIP3    H273377   0.636   6.552   4.327 -0.4206  1.2031 -1.0373
17296TIP3   OH273378   3.988   3.408   3.236  0.2235  0.5473  0.2638
17296TIP3    H173379   3.909   3.362   3.208  0.4786 -0.6154  1.3684
17296TIP3    H273380   4.059   3.366   3.186  0.4858 -0.4766  1.4499
17297TIP3   OH273381   4.659   2.549  14.381  0.1637  0.0539 -0.5861
17297TIP3    H173382   4.719   2.564  14.307 -0.1367 -2.9650 -1.5733
17297TIP3    H273383   4.658   2.633  14.428  3.3005  0.9556 -1.8443
17298TIP3   OH273384   3.637   6.606   5.465 -0.3446  0.1729 -0.4891
17298TIP3    H173385   3.559   6.557   5.438 -0.9552  0.1741  1.1564
17298TIP3    H273386   3.678   6.551   5.532 -0.3065  1.2883  0.4331
17299TIP3   OH273387   0.156   2.030   4.225 -0.8991  0.4077 -0.0844
17299TIP3    H173388   0.173   2.072   4.141  0.1642  1.1314  0.4614
17299TIP3    H273389   0.106   1.951   4.204 -1.1060  0.8564 -1.3291
17300TIP3   OH273390   5.682   6.152   0.636 -0.5154 -0.3332  0.1504
17300TIP3    H173391   5.771   6.120   0.627 -0.1850 -0.3089  2.5865
17300TIP3    H273392   5.677   6.228   0.578  0.6222 -1.0906 -0.9727
17301TIP3   OH273393   3.060   0.963  16.950  0.6123 -0.0388 -0.2821
17301TIP3    H173394   3.054   1.053  16.916  0.5241  0.3501  0.7334
17301TIP3    H273395   3.153   0.947  16.962  0.5803  0.2550  0.3942
17302TIP3   OH273396   5.725   0.691  15.970  0.4152 -1.0292 -0.1971
17302TIP3    H173397   5.763   0.677  15.883 -0.9784 -0.1608 -0.9823
17302TIP3    H273398   5.800   0.706  16.027  1.2926  0.7512 -1.7050
17303TIP3   OH273399   1.082   3.208  15.634  0.4193  0.0245  0.5744
17303TIP3    H173400   1.009   3.184  15.577  0.0119 -0.9915  1.4943
17303TIP3    H273401   1.045   3.210  15.722  0.9109  2.1026  0.7944
17304TIP3   OH273402   0.772   4.997  14.400  0.3422 -0.0982 -0.2541
17304TIP3    H173403   0.678   5.003  14.380  0.1295 -1.8879  0.0351
17304TIP3    H273404   0.793   5.080  14.442 -0.9330  0.6535 -1.0217
17305TIP3   OH273405   3.147   3.691  13.082  0.2501  0.5536 -0.2474
17305TIP3    H173406   3.108   3.635  13.014 -1.2493 -0.3716  1.2988
17305TIP3    H273407   3.155   3.634  13.158  0.0300  2.0768  0.9532
17306TIP3   OH273408   4.172   1.267  15.066  0.1801 -0.2865 -0.5390
17306TIP3    H173409   4.096   1.254  15.123  0.5004 -0.9944 -0.2640
17306TIP3    H273410   4.134   1.285  14.980 -0.3183  1.5953  0.0406
17307TIP3   OH273411   3.705   6.216   2.754 -0.1864  0.2336 -0.5682
17307TIP3    H173412   3.757   6.199   2.676  0.7732  1.8594 -0.3268
17307TIP3    H273413   3.668   6.131   2.777  2.1188 -0.9530 -0.9310
17308TIP3   OH273414   3.943   6.228  16.146 -1.0644  0.1013 -0.1663
17308TIP3    H173415   3.926   6.141  16.183  0.1325 -0.1154 -0.0879
17308TIP3    H273416   4.037   6.228  16.127 -1.0237  1.4339 -0.0427
17309TIP3   OH273417   6.519   4.506   3.270 -0.1370  0.4597  0.3239
17309TIP3    H173418   6.519   4.599   3.249  3.2910  0.4448 -0.2484
17309TIP3    H273419   6.543   4.502   3.362  1.3892  0.1492 -0.0651
17310TIP3   OH273420   2.072   6.765   4.015 -0.0566  0.0562 -0.5509
17310TIP3    H173421   2.048   6.673   4.025 -1.5213  0.4977  0.2818
17310TIP3    H273422   2.029   6.809   4.088  0.9998  1.3530 -0.6655
17311TIP3   OH273423   4.602   5.112  16.235 -0.2282  0.1905  0.0480
17311TIP3    H173424   4.683   5.124  16.285 -0.0175  1.0837 -0.4782
17311TIP3    H273425   4.627   5.057  16.161  0.8284  3.2648 -2.1059
17312TIP3   OH273426   0.533   2.081  11.664 -0.3327  0.5893  0.0369
17312TIP3    H173427   0.575   2.167  11.655 -2.5618  1.7841  0.3161
17312TIP3    H273428   0.441   2.097  11.643 -0.4149 -2.2563 -2.4806
17313TIP3   OH273429   3.516   0.664   1.045  0.0440  0.2543 -0.0302
17313TIP3    H173430   3.515   0.740   0.987 -0.7002 -0.1516 -0.5647
17313TIP3    H273431   3.442   0.610   1.016 -1.1788  0.6384  2.0940
17314TIP3   OH273432   1.888   0.825   1.690 -0.0043  0.0674  0.3291
17314TIP3    H173433   1.902   0.870   1.606  1.0923  0.0943  0.5059
17314TIP3    H273434   1.963   0.851   1.743  0.5508 -1.7643  0.5204
17315TIP3   OH273435   5.959   3.086  12.298 -0.1840 -0.4363 -0.1243
17315TIP3    H173436   5.881   3.119  12.344  0.3546 -0.5096  0.8550
17315TIP3    H273437   6.023   3.156  12.306 -0.2081 -0.2646 -1.1679
17316TIP3   OH273438   2.255   1.272   5.877 -0.8663 -0.9948 -0.1396
17316TIP3    H173439   2.343   1.246   5.905 -0.9865 -0.3484  0.8879
17316TIP3    H273440   2.201   1.195   5.893 -0.6442 -1.1222  0.0013
17317TIP3   OH273441   5.679   3.645  14.079 -0.1785  0.3677  0.2217
17317TIP3    H173442   5.642   3.560  14.103  0.3647  0.1677  0.3692
17317TIP3    H273443   5.747   3.661  14.144  0.1370  0.6303 -0.1643
17318TIP3   OH273444   0.136   5.230   6.031  0.6542 -0.1335 -0.1779
17318TIP3    H173445   0.197   5.156   6.024  0.1352 -0.6100  0.2098
17318TIP3    H273446   0.063   5.205   5.975  0.1071 -0.2987  0.5963
17319TIP3   OH273447   4.579   4.660  13.529 -0.2742  0.7762  0.1095
17319TIP3    H173448   4.509   4.643  13.592 -0.7121  0.8904 -0.3452
17319TIP3    H273449   4.543   4.725  13.469  0.3182  1.0465  0.0330
17320TIP3   OH273450   1.632   5.736   0.934 -0.0743 -0.6836  0.5902
17320TIP3    H173451   1.665   5.650   0.957  1.6018  0.0261  1.0346
17320TIP3    H273452   1.647   5.743   0.839  0.0917 -0.7555  0.6112
17321TIP3   OH273453   3.846   6.458   0.388  0.3135  0.3182 -0.3870
17321TIP3    H173454   3.928   6.502   0.409  0.9388 -0.0844 -1.8916
17321TIP3    H273455   3.872   6.381   0.337 -0.9442 -0.3627 -0.0584
17322TIP3   OH273456   5.130   3.169   5.706  0.3852 -0.1676  0.1484
17322TIP3    H173457   5.096   3.089   5.665 -0.6942  0.2769  0.1532
17322TIP3    H273458   5.080   3.178   5.787 -1.4165  1.8858 -1.0756
17323TIP3   OH273459   5.974   2.351   1.514  0.0876  0.4933 -0.2884
17323TIP3    H173460   5.954   2.418   1.449  1.5724  1.4997  0.2453
17323TIP3    H273461   6.025   2.286   1.467 -0.8358  0.0062 -0.6575
17324TIP3   OH273462   6.354   4.573  16.857 -0.5370 -0.2082 -0.3601
17324TIP3    H173463   6.367   4.665  16.832  1.3748 -0.4367 -0.3482
17324TIP3    H273464   6.327   4.530  16.777 -3.3266  0.6287  0.0001
17325TIP3   OH273465   4.621   4.024  15.748  0.0474  0.2081  1.3265
17325TIP3    H173466   4.677   4.034  15.671  1.5550  0.0429  2.3679
17325TIP3    H273467   4.681   4.011  15.821 -1.3653 -1.1181  2.3355
17326TIP3   OH273468   5.756   1.056  12.398 -0.4487  0.3449 -0.6560
17326TIP3    H173469   5.812   1.102  12.462 -0.9526  1.1563 -0.7909
17326TIP3    H273470   5.803   0.974  12.381 -0.0246  0.3647  0.3330
17327TIP3   OH273471   2.650   5.626   1.395 -0.1192 -0.5680 -0.8337
17327TIP3    H173472   2.689   5.646   1.480 -0.3469 -1.3364 -0.5373
17327TIP3    H273473   2.719   5.580   1.347 -0.5353 -1.6302 -0.4334
17328TIP3   OH273474   0.495   4.478   3.622 -0.5217 -0.4525  0.0187
17328TIP3    H173475   0.555   4.499   3.693 -1.5655  0.0877  0.7661
17328TIP3    H273476   0.467   4.563   3.588 -0.2904 -0.7010 -0.8306
17329TIP3   OH273477   5.959   6.422  14.246 -0.1271 -0.5059 -0.2070
17329TIP3    H173478   6.055   6.412  14.247 -0.2714 -2.0398  0.1734
17329TIP3    H273479   5.926   6.333  14.259 -1.6120  0.0218 -0.3021
17330TIP3   OH273480   0.484   4.871  16.009 -0.2049 -0.0633 -0.3319
17330TIP3    H173481   0.408   4.876  15.950 -1.0688  1.0368  0.8099
17330TIP3    H273482   0.536   4.949  15.988  1.0633 -1.2229 -1.6548
17331TIP3   OH273483   2.867   6.713   2.353 -0.4934  0.6128 -0.1492
17331TIP3    H173484   2.777   6.741   2.371 -0.4297  2.6414 -2.5103
17331TIP3    H273485   2.885   6.744   2.264  2.3963 -0.1611  0.0615
17332TIP3   OH273486   6.643   1.889   1.552  0.1137  0.5652  0.0717
17332TIP3    H173487   6.650   1.943   1.630 -1.8574  0.6543  0.2272
17332TIP3    H273488   6.566   1.834   1.567  1.1631 -1.2429 -0.7283
17333TIP3   OH273489   1.030   1.816  16.256 -0.3544 -0.1440 -0.2395
17333TIP3    H173490   0.942   1.813  16.293 -0.9817  2.7129 -1.2653
17333TIP3    H273491   1.035   1.901  16.212  1.8585 -1.4974 -2.9185
17334TIP3   OH273492   4.663   2.130   5.500 -0.2243 -0.1606 -0.5403
17334TIP3    H173493   4.746   2.174   5.484 -1.1045  1.7560 -0.1643
17334TIP3    H273494   4.608   2.157   5.426 -1.7186  1.9381  1.2091
17335TIP3   OH273495   3.924   1.257   4.288 -0.5809  0.2312 -0.1076
17335TIP3    H173496   3.865   1.256   4.213 -0.1570 -0.0862 -0.4348
17335TIP3    H273497   3.934   1.350   4.310 -0.8567  0.3116 -0.3153
17336TIP3   OH273498   1.346   0.350   0.569 -0.0949  0.3221 -0.7872
17336TIP3    H173499   1.420   0.296   0.541  0.1531  0.6617 -0.7927
17336TIP3    H273500   1.382   0.408   0.636 -0.9541 -1.3280  1.1864
17337TIP3   OH273501   3.180   2.913  14.213  0.1832  0.5857  0.3000
17337TIP3    H173502   3.251   2.978  14.220  0.8561 -0.1565  0.5858
17337TIP3    H273503   3.196   2.869  14.130  1.5761 -1.2507  1.4378
17338TIP3   OH273504   1.402   5.350  11.472 -0.1189  0.2151  0.5196
17338TIP3    H173505   1.480   5.388  11.432  0.2258 -0.4349  0.5591
17338TIP3    H273506   1.330   5.383  11.418  0.3963 -1.2542 -1.1730
17339TIP3   OH273507   2.108   6.772  13.774 -0.1701 -0.1389  0.0214
17339TIP3    H173508   2.200   6.761  13.750 -0.0703 -0.3425  0.4881
17339TIP3    H273509   2.099   6.866  13.792  0.1537 -0.2553  0.8104
17340TIP3   OH273510   0.340   5.941   3.900 -0.3574  0.1564  1.3256
17340TIP3    H173511   0.321   5.935   3.994 -0.0961 -1.6360  1.3131
17340TIP3    H273512   0.255   5.958   3.860 -0.8662 -1.2144  1.7566
17341TIP3   OH273513   4.257   1.731  15.122 -0.0103 -0.3063  0.4856
17341TIP3    H173514   4.208   1.772  15.051 -1.3289 -0.6733  1.1501
17341TIP3    H273515   4.339   1.703  15.081  0.4870  1.9860 -0.2235
17342TIP3   OH273516   0.609   6.774  10.740  0.5264 -0.0369  0.0325
17342TIP3    H173517   0.604   6.682  10.713 -0.2157 -0.2198  0.7347
17342TIP3    H273518   0.699   6.800  10.721  0.1911 -0.2855 -2.0955
17343TIP3   OH273519   1.900   4.993   1.855  0.1211  0.0595 -0.0987
17343TIP3    H173520   1.900   5.041   1.772 -0.1976 -0.8870 -0.6648
17343TIP3    H273521   1.816   4.947   1.856  0.3404 -0.3339  0.5086
17344TIP3   OH273522   3.537   2.332   3.350 -0.4480  0.1506  0.1781
17344TIP3    H173523   3.531   2.238   3.366 -0.9640  0.0290 -0.6496
17344TIP3    H273524   3.447   2.364   3.357 -0.5007  0.3138 -0.9873
17345TIP3   OH273525   1.093   1.183  11.074 -0.1162 -0.1806  0.4294
17345TIP3    H173526   1.048   1.193  11.158 -1.9256  0.4355 -0.5599
17345TIP3    H273527   1.105   1.089  11.064 -1.5493 -0.4023  0.5755
17346TIP3   OH273528   5.526   2.704  16.316 -0.1441 -0.4694  0.4569
17346TIP3    H173529   5.547   2.796  16.299  0.8475 -0.1741  2.8125
17346TIP3    H273530   5.514   2.666  16.230 -0.7081  1.8863 -0.6047
17347TIP3   OH273531   4.548   6.482   4.113 -0.1798  0.2845 -0.1245
17347TIP3    H173532   4.478   6.448   4.169  0.3247 -0.1102  0.2792
17347TIP3    H273533   4.595   6.544   4.168 -0.9838  1.5422 -0.8009
17348TIP3   OH273534   0.583   4.370  15.079  0.8406 -0.3845  0.3405
17348TIP3    H173535   0.515   4.417  15.128  1.0753  0.7257 -0.3736
17348TIP3    H273536   0.536   4.299  15.036  0.1532  0.2446  0.0257
17349TIP3   OH273537   0.452   4.394   2.272 -0.6850  0.5151 -0.1365
17349TIP3    H173538   0.528   4.447   2.246 -0.5136  0.4217  0.1662
17349TIP3    H273539   0.490   4.319   2.317 -0.8765 -0.3458 -1.3575
17350TIP3   OH273540   4.211   5.739  12.197 -0.0268 -0.1069 -0.0803
17350TIP3    H173541   4.166   5.823  12.185  0.1416  0.1513  0.9978
17350TIP3    H273542   4.202   5.695  12.113  0.0948  1.0976 -0.7456
17351TIP3   OH273543   1.870   2.387   3.997  0.3778 -0.4106 -0.6976
17351TIP3    H173544   1.924   2.337   3.936 -1.3013 -1.3672 -1.4459
17351TIP3    H273545   1.780   2.373   3.968 -0.3345  0.8171  0.7513
17352TIP3   OH273546   5.167   1.931   6.436 -0.0314  0.6387 -0.5439
17352TIP3    H173547   5.162   1.852   6.490 -2.9271  0.4544 -0.9340
17352TIP3    H273548   5.248   1.974   6.464  1.2034 -2.0039  0.2698
17353TIP3   OH273549   3.592   1.315   4.517  1.2546  0.7230  0.1440
17353TIP3    H173550   3.608   1.244   4.455 -1.8663  0.9317 -1.0848
17353TIP3    H273551   3.653   1.299   4.589  1.5038 -2.4814 -0.6396
17354TIP3   OH273552   0.448   4.285  17.176 -0.6809 -0.5004 -0.1354
17354TIP3    H173553   0.471   4.336  17.099 -0.9867  0.0047  0.1018
17354TIP3    H273554   0.353   4.296  17.185 -1.0957 -2.6902 -1.1974
17355TIP3   OH273555   2.402   2.150  11.299  0.6360 -0.3243  0.2049
17355TIP3    H173556   2.407   2.209  11.224  1.4834  0.2331  0.6739
17355TIP3    H273557   2.448   2.071  11.271 -0.6438 -0.8623 -0.4847
17356TIP3   OH273558   3.321   1.294   4.043  0.5411  0.5235  0.3290
17356TIP3    H173559   3.356   1.347   3.971 -1.4293 -2.6492 -3.3549
17356TIP3    H273560   3.386   1.226   4.056 -0.9446 -1.4205 -1.7102
17357TIP3   OH273561   2.627   1.959  13.850  0.5728  0.0431 -0.8610
17357TIP3    H173562   2.609   2.050  13.824  0.9411  0.5778  0.6455
17357TIP3    H273563   2.547   1.931  13.895  1.1088  0.2444  0.2410
17358TIP3   OH273564   5.056   4.638  16.317  0.1632  0.0562 -0.0390
17358TIP3    H173565   5.036   4.629  16.410  0.1141 -0.8737 -0.1336
17358TIP3    H273566   5.000   4.710  16.287 -1.5598 -1.1533  0.1498
17359TIP3   OH273567   2.623   0.231  14.782  0.3077  0.3197  0.3152
17359TIP3    H173568   2.615   0.288  14.859 -1.4701 -0.6442  0.8928
17359TIP3    H273569   2.574   0.277  14.714  0.1467  0.2046  0.3527
17360TIP3   OH273570   3.250   6.160  16.596  0.5892 -0.5397 -0.2358
17360TIP3    H173571   3.232   6.247  16.560 -0.5356 -1.1777 -1.2482
17360TIP3    H273572   3.240   6.171  16.690  0.4806  0.4282 -0.3468
17361TIP3   OH273573   6.535   1.756   3.906 -0.1137 -0.1492 -0.3256
17361TIP3    H173574   6.526   1.851   3.914  0.0794 -0.1565  0.0063
17361TIP3    H273575   6.445   1.724   3.903 -0.2132 -0.0879  1.2674
17362TIP3   OH273576   4.889   6.509  12.130  0.9173  0.4069 -0.4055
17362TIP3    H173577   4.897   6.577  12.063  1.6235  0.2174 -0.5258
17362TIP3    H273578   4.845   6.552  12.203  0.6496  0.7726 -0.7809
17363TIP3   OH273579   4.092   3.924   6.248 -0.3127  0.1195 -0.2879
17363TIP3    H173580   4.000   3.906   6.266 -0.2289  0.3703  0.4198
17363TIP3    H273581   4.104   3.897   6.157 -1.3192  0.9847 -0.6969
17364TIP3   OH273582   1.979   2.313   6.059  0.2948 -0.0010 -0.8254
17364TIP3    H173583   1.954   2.254   6.130  1.1760 -1.9310 -2.0445
17364TIP3    H273584   1.900   2.364   6.042 -0.3254 -0.4080  0.6614
17365TIP3   OH273585   5.669   0.764  16.710  0.7745  0.4150  0.0874
17365TIP3    H173586   5.758   0.750  16.742 -0.2706 -0.9811  2.6475
17365TIP3    H273587   5.616   0.773  16.789 -1.7953 -1.7534 -1.2170
17366TIP3   OH273588   4.554   2.603   4.936  0.3186 -0.0974  0.1180
17366TIP3    H173589   4.599   2.593   5.020 -0.6451 -1.0859  0.5323
17366TIP3    H273590   4.615   2.564   4.873  0.3905 -0.7473  0.5718
17367TIP3   OH273591   6.807   6.179  15.982  0.2946 -0.0376 -0.3198
17367TIP3    H173592   6.751   6.102  15.989  1.0056 -0.4620  1.0690
17367TIP3    H273593   6.851   6.170  15.898  1.1819 -1.7386  0.2952
17368TIP3   OH273594   5.546   4.431  12.378  0.5113 -0.3820  0.1601
17368TIP3    H173595   5.577   4.422  12.288  0.3598  0.1778  0.0474
17368TIP3    H273596   5.587   4.358  12.425 -1.3774 -2.2061 -0.8558
17369TIP3   OH273597   2.003   3.643   5.264  0.3781 -0.0972  0.0017
17369TIP3    H173598   1.907   3.636   5.268  0.3321  0.7988  0.8438
17369TIP3    H273599   2.027   3.597   5.184 -0.8163  0.1996 -0.5438
17370TIP3   OH273600   2.355   2.868  14.633  0.5845 -0.1343 -0.0197
17370TIP3    H173601   2.347   2.850  14.540  0.5803 -0.1130 -0.0234
17370TIP3    H273602   2.269   2.848  14.669  0.8467 -1.0206  0.1265
17371TIP3   OH273603   0.131   0.792   3.865  0.0341 -0.0097  1.0040
17371TIP3    H173604   0.041   0.763   3.878 -1.1274  2.2159 -1.2217
17371TIP3    H273605   0.182   0.743   3.930 -2.4793 -2.6222  1.1854
17372TIP3   OH273606   1.919   2.074  12.682  0.1768 -0.8696  0.0230
17372TIP3    H173607   2.007   2.102  12.659 -0.1774 -0.6596 -1.1584
17372TIP3    H273608   1.907   1.990  12.636 -0.0023 -1.2328  0.7186
17373TIP3   OH273609   2.833   2.865  13.419 -0.2354  0.1155  0.1440
17373TIP3    H173610   2.848   2.867  13.324 -0.1493 -1.0250  0.1176
17373TIP3    H273611   2.920   2.852  13.457 -0.3727 -0.2677  0.3317
17374TIP3   OH273612   0.094   6.148   1.800 -0.2128  0.0132 -0.3093
17374TIP3    H173613   0.094   6.172   1.892  1.0385 -1.3978  0.0969
17374TIP3    H273614   0.183   6.119   1.782 -0.8583 -1.3670 -1.5186
17375TIP3   OH273615   5.828   5.760   5.835  0.6791  0.0676 -0.5051
17375TIP3    H173616   5.776   5.839   5.850  0.4848  0.2066 -1.8140
17375TIP3    H273617   5.792   5.696   5.897  0.2347  0.7266 -0.0632
17376TIP3   OH273618   2.676   4.911  15.907 -0.2674 -0.7854 -0.4580
17376TIP3    H173619   2.654   5.004  15.904  0.5949 -0.3239  3.2313
17376TIP3    H273620   2.738   4.899  15.834  0.8586  1.9470 -0.0648
17377TIP3   OH273621   4.860   0.113   6.555  0.2151  0.5619  0.2608
17377TIP3    H173622   4.830   0.131   6.644 -0.1868 -0.8183  0.4264
17377TIP3    H273623   4.857   0.198   6.511  1.7450  1.5586  1.9269
17378TIP3   OH273624   5.465   3.533  15.877 -0.0809 -0.4557  0.0669
17378TIP3    H173625   5.545   3.564  15.834  0.2062  1.5254  1.8174
17378TIP3    H273626   5.492   3.454  15.924  1.6352  1.4556  2.6003
17379TIP3   OH273627   0.758   6.412  11.323 -0.0568 -0.0452  0.3953
17379TIP3    H173628   0.809   6.374  11.252 -0.3087  0.4608 -0.0674
17379TIP3    H273629   0.782   6.361  11.400 -1.9721 -2.6051 -0.5557
17380TIP3   OH273630   3.284   4.624   1.114  0.1993  0.1093 -0.2194
17380TIP3    H173631   3.253   4.535   1.126  0.5261  0.2165  1.6922
17380TIP3    H273632   3.221   4.664   1.054 -0.9294 -0.8938  0.2724
17381TIP3   OH273633   6.260   0.462   4.373  0.6832  0.0647  0.1583
17381TIP3    H173634   6.308   0.521   4.432 -0.6227  0.1862  1.1590
17381TIP3    H273635   6.171   0.498   4.371  0.5588 -0.2591 -1.4927
17382TIP3   OH273636   0.186   1.937   5.403  0.1953 -0.1023  0.2385
17382TIP3    H173637   0.258   1.894   5.357  0.3605 -0.3764  0.7439
17382TIP3    H273638   0.175   2.020   5.357 -0.0495 -0.6241 -0.6767
17383TIP3   OH273639   1.254   4.092  14.770 -0.2615 -0.0967 -0.1132
17383TIP3    H173640   1.230   4.033  14.698  0.7532  0.1599 -0.6921
17383TIP3    H273641   1.340   4.060  14.798 -0.6913 -0.2568  1.0664
17384TIP3   OH273642   1.726   3.558  12.053  0.0231 -0.2109  0.0983
17384TIP3    H173643   1.668   3.508  11.996 -0.5106  2.2588 -1.6968
17384TIP3    H273644   1.814   3.524  12.034 -0.4094 -1.1715 -0.2276
17385TIP3   OH273645   4.914   5.879  12.461 -0.4033 -0.1544  0.2527
17385TIP3    H173646   4.837   5.917  12.504 -0.3418  1.7899 -1.2032
17385TIP3    H273647   4.961   5.954  12.426  0.0522 -1.5281 -2.3131
17386TIP3   OH273648   3.578   3.936   0.117  1.2880 -0.3826  0.0286
17386TIP3    H173649   3.537   3.875   0.056 -0.3477  1.1219 -0.4736
17386TIP3    H273650   3.608   4.009   0.062 -2.2215  2.0925  1.0175
17387TIP3   OH273651   3.350   3.897  11.135 -0.1402 -0.3112  0.1479
17387TIP3    H173652   3.365   3.951  11.057  0.4327  0.9509  1.0914
17387TIP3    H273653   3.259   3.913  11.159 -0.2098 -0.4181 -0.0374
17388TIP3   OH273654   2.178   6.470  14.605  0.1997  0.0296 -0.4264
17388TIP3    H173655   2.248   6.453  14.668 -0.4875  0.4104  0.4576
17388TIP3    H273656   2.116   6.398  14.619 -0.1896  0.3842 -0.3221
17389TIP3   OH273657   5.407   4.465   2.020  0.0063 -0.0369 -0.4653
17389TIP3    H173658   5.379   4.373   2.018 -0.4618 -0.0219  2.1755
17389TIP3    H273659   5.396   4.495   1.930 -4.4001 -1.2646 -0.5929
17390TIP3   OH273660   0.076   0.894  14.864  0.3229 -0.5390  0.1297
17390TIP3    H173661   0.140   0.824  14.850  0.7282 -0.9338  3.1801
17390TIP3    H273662  -0.008   0.855  14.842  0.7164 -1.4613  0.2044
17391TIP3   OH273663   4.119   4.120  16.471 -0.0886  0.6860 -0.2756
17391TIP3    H173664   4.149   4.176  16.400 -0.8017  1.3382 -0.0769
17391TIP3    H273665   4.186   4.130  16.539  0.7726 -0.2050 -0.9668
17392TIP3   OH273666   2.139   5.672   3.780 -0.7064  0.1413  0.3381
17392TIP3    H173667   2.197   5.613   3.731 -1.1187  0.3690 -0.4394
17392TIP3    H273668   2.193   5.704   3.853  0.0471  0.1094 -0.1985
17393TIP3   OH273669   6.595   0.792  13.669  0.3820  0.4325 -0.0024
17393TIP3    H173670   6.580   0.739  13.590 -0.5019  0.8529 -0.1291
17393TIP3    H273671   6.649   0.865  13.640  0.7280  0.1579 -0.0500
17394TIP3   OH273672   5.132   4.267  10.883 -0.0188 -0.1611  0.0124
17394TIP3    H173673   5.194   4.200  10.910 -0.8545 -1.2839 -0.7546
17394TIP3    H273674   5.053   4.249  10.934  0.0567  0.8337  0.4928
17395TIP3   OH273675   2.676   5.701   4.922 -0.6729  0.4340  0.0846
17395TIP3    H173676   2.593   5.745   4.901  0.0767  1.4346 -0.8651
17395TIP3    H273677   2.676   5.696   5.018 -0.7296  2.7037  0.2710
17396TIP3   OH273678   1.705   6.601   3.075  0.2200 -0.0691  0.0333
17396TIP3    H173679   1.788   6.645   3.091 -0.7312  1.8568 -0.0656
17396TIP3    H273680   1.730   6.516   3.038  2.2325 -0.9937  3.0994
17397TIP3   OH273681   6.549   1.280  14.350  0.0484  0.9792  0.2388
17397TIP3    H173682   6.585   1.195  14.376 -1.2803 -0.0660 -1.1737
17397TIP3    H273683   6.529   1.270  14.257  0.0013  2.9023  0.0136
17398TIP3   OH273684   0.128   5.804  16.059 -0.1477 -0.5460  0.2464
17398TIP3    H173685   0.213   5.789  16.018  0.0271  2.7506 -0.8663
17398TIP3    H273686   0.148   5.857  16.137 -1.0458 -1.4729  1.1382
17399TIP3   OH273687   6.186   1.279  17.077  0.3369  0.0432 -0.1037
17399TIP3    H173688   6.112   1.228  17.044  0.3181 -0.4395  0.6386
17399TIP3    H273689   6.244   1.214  17.115 -0.1728  0.6233  1.8101
17400TIP3   OH273690   4.665   0.040  13.043 -0.5092 -0.2737  0.1198
17400TIP3    H173691   4.623  -0.003  13.117  0.9801  0.5366  1.4820
17400TIP3    H273692   4.660   0.133  13.062 -0.5753 -0.0086 -1.0833
17401TIP3   OH273693   1.232   0.772  16.778 -0.0700  0.3360 -0.6245
17401TIP3    H173694   1.247   0.838  16.711  0.7641  0.2468 -0.5322
17401TIP3    H273695   1.302   0.708  16.766 -0.2598  0.0104 -0.0498
17402TIP3   OH273696   2.821   5.518   0.451 -0.1371 -0.0499  0.0381
17402TIP3    H173697   2.747   5.555   0.499 -1.5072 -1.3055 -1.0548
17402TIP3    H273698   2.889   5.586   0.457 -2.1694  2.1970 -0.9794
17403TIP3   OH273699   4.736   5.573   0.985 -0.5378 -0.5503 -0.2879
17403TIP3    H173700   4.703   5.638   0.923 -3.6247 -2.3116 -0.6884
17403TIP3    H273701   4.796   5.518   0.934 -1.0524 -0.4380 -1.0220
17404TIP3   OH273702   6.508   6.207   4.112 -0.2556  0.3186 -0.0532
17404TIP3    H173703   6.553   6.209   4.196 -0.9732  0.2184  0.3469
17404TIP3    H273704   6.417   6.186   4.134 -0.5508  0.7439 -0.8076
17405TIP3   OH273705   0.999   2.697   0.389  0.4032 -0.1383  0.0962
17405TIP3    H173706   0.923   2.660   0.344 -0.0150  1.4750 -0.6050
17405TIP3    H273707   1.064   2.710   0.320  0.4163  0.6953  0.2508
17406TIP3   OH273708   2.321   2.079  14.549 -0.0778  0.4573 -0.1867
17406TIP3    H173709   2.395   2.139  14.553 -0.3667  0.8143 -0.1783
17406TIP3    H273710   2.338   2.015  14.619  0.6157  0.0755 -0.6899
17407TIP3   OH273711   6.127   1.472   1.933  0.1150 -0.1124 -0.5708
17407TIP3    H173712   6.186   1.497   1.863 -0.3720  0.9475 -0.6192
17407TIP3    H273713   6.107   1.380   1.916  0.1016  0.0931 -1.7579
17408TIP3   OH273714   5.347   4.563   3.490  0.1778 -0.5109 -0.0679
17408TIP3    H173715   5.368   4.656   3.480 -1.6994 -0.1065 -0.5474
17408TIP3    H273716   5.363   4.545   3.583 -0.8972  0.6964  0.3850
17409TIP3   OH273717   1.027   4.927   2.183  0.4582  0.2061 -0.8096
17409TIP3    H173718   0.998   4.845   2.224 -2.6775  1.0505 -1.0744
17409TIP3    H273719   1.007   4.915   2.090  2.7705  0.2289 -1.3723
17410TIP3   OH273720   6.420   1.804  13.127  0.1727 -0.0768  0.2077
17410TIP3    H173721   6.388   1.799  13.217 -0.6120 -0.1965 -0.0759
17410TIP3    H273722   6.511   1.832  13.137  0.8567 -2.3829  1.1709
17411TIP3   OH273723   1.094   3.528  14.788 -0.1568  0.0390 -0.5065
17411TIP3    H173724   0.998   3.531  14.786 -0.3151 -1.4438  1.4535
17411TIP3    H273725   1.118   3.596  14.851  0.0874  0.3488 -0.9305
17412TIP3   OH273726   1.356   4.915  12.169  0.8372 -0.4397 -0.4954
17412TIP3    H173727   1.402   4.978  12.224  0.8517 -1.6770  0.9867
17412TIP3    H273728   1.319   4.852  12.231 -1.9022 -0.1480 -1.6832
17413TIP3   OH273729   0.109   2.380   5.027  0.3477  0.1840 -0.1253
17413TIP3    H173730   0.119   2.296   5.073 -1.8234  1.5057  3.1398
17413TIP3    H273731   0.037   2.364   4.965  0.9093 -0.6857 -0.5872
17414TIP3   OH273732   4.415   3.208  17.139 -0.3379  0.1535  0.1089
17414TIP3    H173733   4.418   3.303  17.131  0.5332  0.1428  0.1942
17414TIP3    H273734   4.351   3.191  17.208 -1.9878  0.5849 -1.2508
17415TIP3   OH273735   6.547   1.552   4.292  0.0398  0.3926 -0.2009
17415TIP3    H173736   6.615   1.501   4.336  1.6931  2.1926 -0.5545
17415TIP3    H273737   6.479   1.564   4.359  0.8865  0.0775  0.7340
17416TIP3   OH273738   4.015   3.004   2.843  0.8732 -0.2533 -0.3767
17416TIP3    H173739   4.004   2.951   2.764 -0.0220 -1.0120  0.2382
17416TIP3    H273740   3.958   2.963   2.908 -1.0579  2.2629 -0.2803
17417TIP3   OH273741   3.547   2.842  15.244 -0.3023 -0.2134  0.1459
17417TIP3    H173742   3.487   2.775  15.213 -1.3339  0.3986  0.7519
17417TIP3    H273743   3.632   2.817  15.209 -0.7028 -1.7205  0.2074
17418TIP3   OH273744   5.998   2.972  17.053 -0.0370 -0.4830  0.0674
17418TIP3    H173745   5.975   3.036  17.121 -0.8907 -3.3627  2.7333
17418TIP3    H273746   5.913   2.945  17.017  0.3661  0.3274 -1.5913
17419TIP3   OH273747   1.790   6.730  13.805 -0.1063 -0.0101  0.3908
17419TIP3    H173748   1.872   6.755  13.763 -0.8876  1.0337 -0.5821
17419TIP3    H273749   1.816   6.697  13.891  1.3078  0.4659  0.1701
17420TIP3   OH273750   6.819   2.358   5.762  0.2487 -0.1979  0.2023
17420TIP3    H173751   6.809   2.263   5.758 -1.8048  0.0307 -1.5114
17420TIP3    H273752   6.782   2.383   5.847  0.0803 -0.8533  0.3236
17421TIP3   OH273753   1.962   1.585   2.842  0.0090 -0.0707  0.4369
17421TIP3    H173754   2.032   1.604   2.780 -0.7487 -1.9344 -1.1161
17421TIP3    H273755   1.987   1.501   2.881 -1.3755 -0.8361 -0.2406
17422TIP3   OH273756   4.166   2.822  15.423  0.1150  0.3101  0.4690
17422TIP3    H173757   4.233   2.823  15.354  0.9833 -0.7434  1.2730
17422TIP3    H273758   4.083   2.819  15.375  0.6205  1.4292 -0.5484
17423TIP3   OH273759   0.750   0.301  16.791  0.4171 -0.0663  0.0730
17423TIP3    H173760   0.787   0.383  16.757  0.5130 -0.4996 -0.8937
17423TIP3    H273761   0.664   0.295  16.751  0.5521 -0.6167 -0.1394
17424TIP3   OH273762   0.974   4.938  16.756  0.3619 -0.6084  0.4824
17424TIP3    H173763   1.057   4.981  16.733 -0.5734  1.3380  0.5476
17424TIP3    H273764   0.965   4.955  16.850  1.1671 -3.1707  1.0788
17425TIP3   OH273765   4.659   0.539   4.133  0.3658 -0.2425  0.2032
17425TIP3    H173766   4.751   0.551   4.156  0.9053 -1.3102 -1.1990
17425TIP3    H273767   4.629   0.627   4.109  0.7026  0.2960  1.6381
17426TIP3   OH273768   6.040   1.290  15.751  0.0906  0.1126  0.6061
17426TIP3    H173769   5.956   1.251  15.776 -0.3985  0.4380 -0.4563
17426TIP3    H273770   6.052   1.364  15.810 -0.2630 -0.0597  0.8942
17427TIP3   OH273771   5.821   2.345  13.809  0.1089  0.3031 -0.5068
17427TIP3    H173772   5.733   2.314  13.788  0.1754 -0.0093 -0.3308
17427TIP3    H273773   5.856   2.279  13.869  1.1414 -0.5539 -1.9998
17428TIP3   OH273774   3.751   5.682   5.729 -0.4849 -0.4503  0.1328
17428TIP3    H173775   3.803   5.664   5.808 -0.5522 -0.6085  0.1420
17428TIP3    H273776   3.735   5.776   5.732  1.3280 -0.0653 -0.8003
17429TIP3   OH273777   5.189   1.977  14.424  0.2635 -0.0179 -0.7349
17429TIP3    H173778   5.140   1.898  14.401 -0.4419  0.1408  0.1774
17429TIP3    H273779   5.270   1.944  14.462  1.4423 -0.2936 -3.2304
17430TIP3   OH273780   5.741   3.729   6.537 -0.4081  0.1290 -0.1505
17430TIP3    H173781   5.696   3.679   6.468 -2.4285 -0.1792  1.2932
17430TIP3    H273782   5.690   3.711   6.616  2.0861  0.0949  1.5615
17431TIP3   OH273783   0.410   1.799  12.924 -0.2224  0.5481  0.2401
17431TIP3    H173784   0.376   1.865  12.864  0.3321 -0.7927 -1.6380
17431TIP3    H273785   0.469   1.746  12.871 -0.5953 -1.4205  1.6701
17432TIP3   OH273786   5.647   1.344   2.423  0.6169 -0.1596  0.1560
17432TIP3    H173787   5.681   1.373   2.338 -1.0384 -0.1661 -0.5500
17432TIP3    H273788   5.612   1.424   2.463  0.3986 -0.3445  0.3372
17433TIP3   OH273789   4.724   4.242   4.848  0.1404 -0.7229 -0.1949
17433TIP3    H173790   4.788   4.195   4.794 -0.5565 -2.0560  0.0811
17433TIP3    H273791   4.645   4.188   4.845 -0.2110 -0.3763  1.4033
17434TIP3   OH273792   0.712   4.210  17.291 -0.5991 -0.0507 -0.5273
17434TIP3    H173793   0.633   4.261  17.275 -0.3956  0.4441  0.0082
17434TIP3    H273794   0.682   4.119  17.289 -1.2268  0.1375 -0.1424
17435TIP3   OH273795   1.393   6.223   4.876  0.0490  0.5402  0.1368
17435TIP3    H173796   1.351   6.308   4.862 -2.1313 -0.7920 -2.0728
17435TIP3    H273797   1.333   6.159   4.839  1.0751 -2.1563  2.6836
17436TIP3   OH273798   2.531   2.090   5.074  0.1427 -0.5426  0.2964
17436TIP3    H173799   2.496   2.006   5.043  0.0923 -1.0411  1.6428
17436TIP3    H273800   2.507   2.153   5.006 -0.2549 -1.5311 -0.4948
17437TIP3   OH273801   4.076   3.523  17.032 -0.4729  0.2966  0.5639
17437TIP3    H173802   4.011   3.476  16.980 -1.0154  2.1656 -0.5436
17437TIP3    H273803   4.157   3.518  16.981  0.3907 -2.1683  2.0167
17438TIP3   OH273804   3.339   6.103  16.878  0.0626 -0.1594  0.3396
17438TIP3    H173805   3.404   6.050  16.831 -0.6078 -0.0669 -0.7299
17438TIP3    H273806   3.387   6.140  16.952  0.9514 -0.9555  0.1874
17439TIP3   OH273807   2.791   1.495   5.691  0.2113 -0.3472  0.2427
17439TIP3    H173808   2.731   1.491   5.766 -0.8376 -0.9195 -0.5934
17439TIP3    H273809   2.879   1.497   5.731 -0.3552  0.9152  1.4966
17440TIP3   OH273810   3.973   6.632  10.906  0.1716  0.7714 -0.2450
17440TIP3    H173811   4.051   6.678  10.939  0.0295  0.4544  0.5460
17440TIP3    H273812   3.900   6.676  10.949 -0.1109  1.1779 -1.1157
17441TIP3   OH273813   3.210   2.795  13.947  0.1042  0.1753  0.5079
17441TIP3    H173814   3.136   2.739  13.967 -0.2253 -0.5325 -2.2149
17441TIP3    H273815   3.177   2.857  13.882  1.7499  0.1587 -0.4130
17442TIP3   OH273816   2.226   2.138  17.226  0.6932  0.3685 -0.8558
17442TIP3    H173817   2.206   2.140  17.132  0.6857  0.2252 -0.8582
17442TIP3    H273818   2.317   2.110  17.231  0.5302 -0.1615 -0.8016
17443TIP3   OH273819   4.898   1.836   0.444 -0.4052 -0.3809  0.2919
17443TIP3    H173820   4.869   1.871   0.360 -0.2152  0.5643  0.6092
17443TIP3    H273821   4.882   1.742   0.438  1.5261 -0.6687 -1.6009
17444TIP3   OH273822   1.693   1.152  12.647  0.5992 -0.1221  0.2906
17444TIP3    H173823   1.785   1.139  12.671  0.6756  0.7389  0.4811
17444TIP3    H273824   1.646   1.140  12.730  0.7007  1.0723  0.5391
17445TIP3   OH273825   2.873   3.296   6.212  0.4839 -0.2869  0.0217
17445TIP3    H173826   2.962   3.280   6.182  0.4809  1.3935 -1.0620
17445TIP3    H273827   2.818   3.263   6.142  0.3986  1.4852 -0.8095
17446TIP3   OH273828   6.248   3.410   2.348 -0.1358  0.2770 -0.1260
17446TIP3    H173829   6.319   3.350   2.326 -1.8708 -2.1103  0.3340
17446TIP3    H273830   6.287   3.473   2.409  1.4113 -1.4223  0.7345
17447TIP3   OH273831   4.076   3.837   1.306  0.5617 -0.8065 -0.3200
17447TIP3    H173832   4.169   3.857   1.317  0.5306 -0.4968 -0.6125
17447TIP3    H273833   4.071   3.797   1.219  0.3143 -0.1303 -0.6223
17448TIP3   OH273834   2.351   0.116   0.940  0.2666  0.1875  0.0525
17448TIP3    H173835   2.322   0.144   0.853 -0.6618  2.2821  0.9778
17448TIP3    H273836   2.309   0.178   1.001  1.7776 -0.5274  1.9149
17449TIP3   OH273837   1.288   4.180   4.493 -0.0267  0.0587  0.3145
17449TIP3    H173838   1.199   4.212   4.506  0.2949  1.0254  0.2149
17449TIP3    H273839   1.278   4.096   4.450 -0.8787  0.3812 -0.1274
17450TIP3   OH273840   4.290   0.900  13.449 -0.0421  0.0371  0.6411
17450TIP3    H173841   4.244   0.877  13.368 -2.6798  1.4709  1.6182
17450TIP3    H273842   4.268   0.831  13.510  1.0916 -0.4929  0.4767
17451TIP3   OH273843   4.126   1.237  14.064  0.1069 -0.3034 -0.2566
17451TIP3    H173844   4.211   1.272  14.040  1.2572 -1.9861  1.1014
17451TIP3    H273845   4.145   1.154  14.107 -2.2622 -0.9728 -0.3345
17452TIP3   OH273846   0.390   4.145   5.231  0.3808 -0.1443 -0.0267
17452TIP3    H173847   0.310   4.139   5.178 -0.1480 -0.0104  0.7483
17452TIP3    H273848   0.360   4.139   5.321  1.4408 -2.1640  0.2401
17453TIP3   OH273849   5.890   5.272  12.365  0.1653 -0.5976 -0.4175
17453TIP3    H173850   5.835   5.265  12.443 -0.2812  0.1618 -0.6631
17453TIP3    H273851   5.920   5.363  12.364 -2.1815  0.2697 -2.6754
17454TIP3   OH273852   2.687   4.391  11.026  1.2499 -0.0423  0.2008
17454TIP3    H173853   2.592   4.385  11.036  1.1899  0.9929  0.3912
17454TIP3    H273854   2.705   4.344  10.944  0.7144 -1.1276  0.6766
17455TIP3   OH273855   6.499   4.446   0.089  0.1068  0.5469 -0.2177
17455TIP3    H173856   6.542   4.496   0.158 -1.5053 -1.2709  2.2896
17455TIP3    H273857   6.571   4.411   0.036  1.3969  2.1064  0.4215
17456TIP3   OH273858   2.601   0.101   1.057 -0.6846  0.3446  0.1889
17456TIP3    H173859   2.506   0.090   1.059 -0.5056 -2.5896 -1.5256
17456TIP3    H273860   2.622   0.147   1.138 -3.4993  0.4811  0.9297
17457TIP3   OH273861   0.907   0.224  13.645  0.4347  0.1967 -0.1841
17457TIP3    H173862   0.880   0.169  13.719  0.6896  0.4745  0.1173
17457TIP3    H273863   0.927   0.309  13.684 -0.8355  0.7908 -0.7620
17458TIP3   OH273864   3.842   3.751   2.836 -0.3414 -0.8868 -0.3182
17458TIP3    H173865   3.758   3.721   2.800 -0.4066 -0.4009 -0.5811
17458TIP3    H273866   3.823   3.836   2.874  0.2533 -0.2650 -1.3571
17459TIP3   OH273867   0.003   3.457  12.874  0.2427 -0.5930  0.4141
17459TIP3    H173868  -0.027   3.522  12.811  1.1807  0.0283  0.5794
17459TIP3    H273869  -0.075   3.433  12.923 -0.4300 -0.8185 -0.7276
17460TIP3   OH273870   1.981   0.383   5.028 -0.4004 -0.3769 -0.2646
17460TIP3    H173871   2.001   0.327   4.953  0.2032 -1.1335  0.4416
17460TIP3    H273872   2.001   0.329   5.104  0.2320  0.8142  0.4437
17461TIP3   OH273873   5.235   0.170  14.314 -0.0814  0.0222  0.2545
17461TIP3    H173874   5.274   0.257  14.319  0.7863 -0.3386 -0.0662
17461TIP3    H273875   5.275   0.122  14.387 -0.9112  0.0247  0.7212
17462TIP3   OH273876   5.190   0.421   5.418  0.0600 -0.0350 -0.5433
17462TIP3    H173877   5.205   0.514   5.436  0.7705 -0.2992  0.3148
17462TIP3    H273878   5.260   0.397   5.358 -1.6768  0.5840 -2.9734
17463TIP3   OH273879   6.367   6.774  14.719 -0.3891 -0.3008  0.2341
17463TIP3    H173880   6.293   6.785  14.660  0.1227 -1.2718 -0.6312
17463TIP3    H273881   6.382   6.679  14.721  1.4374 -0.0818 -0.4245
17464TIP3   OH273882   1.524   2.849   3.515  0.2248 -0.2006 -0.6169
17464TIP3    H173883   1.587   2.915   3.485 -0.2387  0.8254  0.5977
17464TIP3    H273884   1.451   2.857   3.453 -1.2914  2.8049  1.3147
17465TIP3   OH273885   3.809   4.552   1.157  0.2004  0.2315 -0.0927
17465TIP3    H173886   3.719   4.527   1.137 -0.1482  1.4805 -0.1343
17465TIP3    H273887   3.809   4.647   1.153  1.6993  0.2200 -0.8258
17466TIP3   OH273888   5.637   1.535   0.205 -0.2381  0.5002 -0.5099
17466TIP3    H173889   5.600   1.534   0.294 -0.2123  0.1963 -0.5001
17466TIP3    H273890   5.726   1.501   0.216 -0.7779 -1.1478 -0.8721
17467TIP3   OH273891   5.974   1.926   1.891 -0.4075 -0.4814  0.3546
17467TIP3    H173892   6.028   1.992   1.849  1.7268  0.1848  3.7294
17467TIP3    H273893   5.989   1.846   1.840  1.1350  0.4703 -0.7642
17468TIP3   OH273894   2.648   0.099   4.341  0.4603  0.0671  0.0085
17468TIP3    H173895   2.579   0.110   4.407  0.0387 -0.0569 -0.4043
17468TIP3    H273896   2.689   0.185   4.334 -0.6329  0.5467 -0.8067
17469TIP3   OH273897   3.086   2.915   2.171 -0.0949  0.0577 -0.3607
17469TIP3    H173898   3.066   2.981   2.104  1.0502  0.3177 -0.4705
17469TIP3    H273899   3.104   2.966   2.250 -1.5108 -0.2522  0.1798
17470TIP3   OH273900   3.115   3.475  12.538 -0.3557 -0.1411 -0.3402
17470TIP3    H173901   3.181   3.406  12.542  2.9300  2.6885 -0.1397
17470TIP3    H273902   3.064   3.456  12.460  1.9285 -1.5971 -1.5865
17471TIP3   OH273903   1.412   1.907   0.013 -0.2844  0.7204 -0.0986
17471TIP3    H173904   1.388   1.867  -0.070  0.8233 -0.5297  0.1541
17471TIP3    H273905   1.505   1.930   0.003  0.0023  0.0881  0.9639
17472TIP3   OH273906   2.877   2.262  13.725 -0.9726  0.1188 -0.0154
17472TIP3    H173907   2.888   2.305  13.640 -0.9623 -0.7910 -0.4869
17472TIP3    H273908   2.936   2.309  13.784  2.0445 -1.6598 -1.3860
17473TIP3   OH273909   5.718   1.567  14.537  0.3435  0.3154 -0.2658
17473TIP3    H173910   5.659   1.568  14.461  0.0893 -0.9869 -0.1196
17473TIP3    H273911   5.773   1.489  14.523 -0.5492 -0.7036  1.4791
17474TIP3   OH273912   5.474   5.103  12.467  0.5559 -0.1083  0.1198
17474TIP3    H173913   5.389   5.092  12.425  0.5840 -0.3056  0.1141
17474TIP3    H273914   5.474   5.039  12.538  0.9386 -0.5249 -0.2551
17475TIP3   OH273915   5.802   1.776   1.278  0.0157  1.0821  0.2438
17475TIP3    H173916   5.811   1.736   1.192  1.1224 -0.3088  0.9600
17475TIP3    H273917   5.731   1.840   1.268 -0.6884  0.1016 -1.3739
17476TIP3   OH273918   2.973   1.440  14.804 -0.2288 -0.2529  0.1153
17476TIP3    H173919   2.972   1.470  14.714  2.5109  0.2706  0.1552
17476TIP3    H273920   3.006   1.515  14.854 -0.8171 -0.8253  1.4182
17477TIP3   OH273921   6.634   3.575   5.579 -0.1788 -0.6161  0.3284
17477TIP3    H173922   6.542   3.595   5.565  0.1550 -0.8832 -2.8293
17477TIP3    H273923   6.677   3.661   5.582 -0.3719 -0.5291  0.6866
17478TIP3   OH273924   1.634   3.378  10.554 -0.3780  0.0210 -0.3378
17478TIP3    H173925   1.555   3.330  10.527 -0.9671  1.8319 -2.0231
17478TIP3    H273926   1.601   3.461  10.587  0.7979  0.6002 -0.5849
17479TIP3   OH273927   5.667   2.508  12.934  0.2727 -0.1629  0.1042
17479TIP3    H173928   5.695   2.563  13.007  0.8908  0.5273 -0.6265
17479TIP3    H273929   5.578   2.538  12.914  0.4324  0.2556  0.0118
17480TIP3   OH273930   1.000   2.872  13.396  0.8731 -0.1504 -0.1899
17480TIP3    H173931   1.091   2.856  13.422  0.9896 -1.4310 -1.2659
17480TIP3    H273932   0.964   2.784  13.383  0.0576  0.3753 -1.6398
17481TIP3   OH273933   2.090   4.809   3.116  0.5514  0.0152 -0.4548
17481TIP3    H173934   2.103   4.764   3.199  1.5250 -0.9213 -1.0967
17481TIP3    H273935   1.996   4.803   3.099  0.4454 -0.3578  0.2545
17482TIP3   OH273936   5.102   5.770   1.392  0.6799  0.3167 -0.1898
17482TIP3    H173937   5.137   5.778   1.480 -0.4446  0.8154  0.2205
17482TIP3    H273938   5.007   5.768   1.403  0.5331 -0.1209 -1.3461
17483TIP3   OH273939   2.910   1.362   3.684 -0.1106 -0.6833 -0.4467
17483TIP3    H173940   2.984   1.410   3.647  0.3438 -0.4247  0.7561
17483TIP3    H273941   2.834   1.392   3.634  0.3775  0.2273 -0.6517
17484TIP3   OH273942   3.263   3.676   2.632  0.4051  0.6295  0.4800
17484TIP3    H173943   3.276   3.705   2.542  0.6935 -1.7367 -0.3104
17484TIP3    H273944   3.263   3.581   2.627  0.4301  0.4197  3.0016
17485TIP3   OH273945   3.118   3.122  16.546  0.0499 -0.4113  0.4241
17485TIP3    H173946   3.187   3.186  16.533 -0.1295 -0.2285  0.3722
17485TIP3    H273947   3.158   3.039  16.519  1.2631 -0.8432  3.2567
17486TIP3   OH273948   2.632   2.007  15.649  0.0609 -0.2556  0.4611
17486TIP3    H173949   2.617   1.922  15.691 -1.8747 -0.2690 -0.1523
17486TIP3    H273950   2.545   2.045  15.640  0.9433  2.2671  1.6146
17487TIP3   OH273951   5.816   3.710  16.213 -0.2502 -0.1353  0.4439
17487TIP3    H173952   5.799   3.618  16.193  0.4955  0.0811 -1.4059
17487TIP3    H273953   5.731   3.754  16.202  0.0787 -0.0465 -2.4787
17488TIP3   OH273954   2.459   4.482  10.766 -0.2162 -0.0101 -0.4406
17488TIP3    H173955   2.459   4.472  10.670  0.0316 -1.6862 -0.3064
17488TIP3    H273956   2.506   4.404  10.797 -1.6522 -0.2920  1.1260
17489TIP3   OH273957   1.019   6.388   3.649 -0.8179 -0.3114 -0.1132
17489TIP3    H173958   1.048   6.478   3.658  1.5438 -1.0625  0.6451
17489TIP3    H273959   1.022   6.371   3.554 -1.0996  0.3250 -0.2407
17490TIP3   OH273960   0.416   3.224  13.878  0.1694  0.1777 -0.7574
17490TIP3    H173961   0.512   3.222  13.873  0.1274 -1.4328 -1.5390
17490TIP3    H273962   0.397   3.197  13.968  0.4516  0.4913 -0.6013
17491TIP3   OH273963   4.729   5.856  12.968 -0.2144 -0.0733  0.3528
17491TIP3    H173964   4.753   5.793  12.900  0.1449  0.4872 -0.0435
17491TIP3    H273965   4.641   5.828  12.996  0.8557 -2.2026  1.8863
17492TIP3   OH273966   5.208   2.542   0.789  0.5303  0.1856  0.0173
17492TIP3    H173967   5.180   2.588   0.868 -0.4734  0.2219 -0.3504
17492TIP3    H273968   5.132   2.490   0.763  0.7540  0.3855 -1.0768
17493TIP3   OH273969   0.370   4.583  14.321 -0.1141  0.4715  0.5570
17493TIP3    H173970   0.464   4.578  14.303 -0.0111 -0.1006  1.2235
17493TIP3    H273971   0.362   4.653  14.386  0.0011 -0.3103  1.4283
17494TIP3   OH273972   5.401   1.426   2.612 -0.0868 -0.3616 -0.1064
17494TIP3    H173973   5.477   1.450   2.665  0.4313 -0.9989 -0.5332
17494TIP3    H273974   5.373   1.508   2.572  1.0137 -0.2670 -0.7368
17495TIP3   OH273975   4.533   6.518  13.464 -0.0394  0.1256  0.1587
17495TIP3    H173976   4.496   6.595  13.507  0.4160  0.2776  0.2880
17495TIP3    H273977   4.565   6.463  13.535  1.4781  0.7636  0.0132
17496TIP3   OH273978   5.769   3.957  17.025 -0.0738  0.1578  0.3257
17496TIP3    H173979   5.676   3.950  17.044  0.3269  0.0240  2.4112
17496TIP3    H273980   5.778   4.041  16.979 -1.2285  0.0962 -0.0260
17497TIP3   OH273981   0.038   5.727  14.859 -0.3156  0.2779 -0.4775
17497TIP3    H173982   0.048   5.707  14.952  0.6555 -1.0675 -0.8373
17497TIP3    H273983  -0.006   5.812  14.857 -1.1856 -0.0927  1.1991
17498TIP3   OH273984   2.857   2.805  12.681 -0.0609 -0.3464 -0.3967
17498TIP3    H173985   2.883   2.873  12.619  0.6382  0.7351  1.0127
17498TIP3    H273986   2.850   2.726  12.628 -1.9965  0.9760 -2.3203
17499TIP3   OH273987   6.188   0.936   5.966 -0.2138 -1.0792  0.1859
17499TIP3    H173988   6.205   1.004   6.031  0.7877 -1.5692  0.4650
17499TIP3    H273989   6.103   0.900   5.990 -1.1108  0.5419 -0.4059
17500TIP3   OH273990   1.390   0.534   0.774 -0.2543  0.3054  0.4211
17500TIP3    H173991   1.351   0.557   0.858  1.2467 -0.4991  1.3794
17500TIP3    H273992   1.469   0.587   0.769  0.8424 -1.2537  0.5713
17501TIP3   OH273993   1.447   2.302  11.308 -0.0479  0.4424 -0.3335
17501TIP3    H173994   1.502   2.268  11.378  0.0952  0.6571 -0.3422
17501TIP3    H273995   1.504   2.362  11.259  0.6287 -1.5251 -2.1133
17502TIP3   OH273996   6.111   1.662  12.790  0.6497 -0.1793  0.0842
17502TIP3    H173997   6.191   1.672  12.738  0.4252  3.7827  0.2198
17502TIP3    H273998   6.112   1.736  12.851 -3.0718 -0.0068  0.1574
17503TIP3   OH273999   2.663   5.424   0.114  0.4072  0.9877 -0.0956
17503TIP3    H174000   2.688   5.515   0.128 -0.1587  1.0533  0.4860
17503TIP3    H274001   2.567   5.425   0.111  0.4050  0.4423 -0.3022
17504TIP3   OH274002   6.306   4.069  13.232 -0.0009 -0.1094  0.0500
17504TIP3    H174003   6.283   4.123  13.307 -3.3146 -1.2734  0.0187
17504TIP3    H274004   6.334   3.985  13.270  1.4964  0.3403  0.0032
17505TIP3   OH274005   2.367   6.029   4.502 -0.3682 -0.2423  0.1541
17505TIP3    H174006   2.460   6.050   4.511 -0.4349  0.7943 -1.2242
17505TIP3    H274007   2.333   6.031   4.592  0.1129  3.6453  0.4409
17506TIP3   OH274008   6.199   5.597   0.729 -0.4712  0.3443  0.3627
17506TIP3    H174009   6.141   5.558   0.795  1.4291 -3.3062  0.1599
17506TIP3    H274010   6.253   5.659   0.777 -1.2374  0.1167  1.5559
17507TIP3   OH274011   2.046   1.661  16.976 -0.0209  0.3969 -0.3887
17507TIP3    H174012   1.961   1.703  16.957  0.1599  0.4779 -1.0378
17507TIP3    H274013   2.028   1.567  16.971  0.6938  0.2878 -4.4858
17508TIP3   OH274014   4.240   3.981   1.017 -0.3711 -0.5450 -0.2425
17508TIP3    H174015   4.251   3.942   1.103 -0.9132 -0.0398  0.0659
17508TIP3    H274016   4.171   3.929   0.975  0.1055 -0.9815 -0.4934
17509TIP3   OH274017   4.324   5.231   3.475  0.0390  0.9729 -0.1006
17509TIP3    H174018   4.363   5.285   3.544  0.7618  1.2263 -0.6893
17509TIP3    H274019   4.230   5.236   3.490  0.2228  0.2897  1.4016
17510TIP3   OH274020   1.684   2.005   0.724  0.1093 -0.4253 -0.5257
17510TIP3    H174021   1.753   2.060   0.761 -0.4794 -0.7290  1.1042
17510TIP3    H274022   1.603   2.055   0.739 -0.1654 -0.6396 -1.2705
17511TIP3   OH274023   6.672   0.875   2.380  0.0545  0.3192  0.3538
17511TIP3    H174024   6.696   0.965   2.359  1.0307 -0.3280 -1.5192
17511TIP3    H274025   6.756   0.829   2.386 -0.4721 -1.0935 -1.9287
17512TIP3   OH274026   3.744   1.666  12.012  0.3582 -0.4446 -0.1005
17512TIP3    H174027   3.657   1.707  12.014  0.8479  0.6494  2.0768
17512TIP3    H274028   3.740   1.605  11.938 -3.2849 -2.6239  1.5921
17513TIP3   OH274029   0.898   5.149  12.622  0.0342 -0.5902  0.2218
17513TIP3    H174030   0.984   5.160  12.665  0.2054 -0.0932 -0.2507
17513TIP3    H274031   0.919   5.128  12.531 -0.3414 -1.1168  0.2515
17514TIP3   OH274032   5.965   3.367  12.815  0.1473 -0.2531  0.1430
17514TIP3    H174033   6.008   3.292  12.857  0.3926 -0.3495 -0.2784
17514TIP3    H274034   5.949   3.340  12.725 -0.6279 -0.1412  0.2417
17515TIP3   OH274035   5.408   0.513   0.141  0.0414  0.2678  0.1564
17515TIP3    H174036   5.450   0.599   0.146 -0.1012  0.3130  0.6330
17515TIP3    H274037   5.459   0.465   0.076  1.5809 -0.0802  1.5462
17516TIP3   OH274038   4.489   5.489   0.184 -0.3382 -0.2577  0.5780
17516TIP3    H174039   4.534   5.492   0.268  0.8320  0.5595 -0.0606
17516TIP3    H274040   4.496   5.397   0.157 -0.8489 -0.5582  1.4200
17517TIP3   OH274041   3.176   1.225  13.822  1.1239  0.4414  0.3861
17517TIP3    H174042   3.165   1.306  13.873  1.5433  1.0253 -0.4337
17517TIP3    H274043   3.088   1.204  13.792  1.1453  1.0711 -0.1140
17518TIP3   OH274044   1.101   0.048  12.195  0.6173 -0.5063 -0.2563
17518TIP3    H174045   1.046   0.126  12.182 -2.7095 -1.9941  2.8349
17518TIP3    H274046   1.061  -0.019  12.140 -0.3582 -1.4344  1.4991
17519TIP3   OH274047   4.911   0.870  15.505 -0.1621  0.0108 -0.3355
17519TIP3    H174048   4.843   0.925  15.467 -3.2549 -3.6171 -0.6938
17519TIP3    H274049   4.967   0.845  15.431  0.0706  1.0170 -0.5111
17520TIP3   OH274050   4.685   5.513   3.628 -0.1282  0.4226 -0.3875
17520TIP3    H174051   4.779   5.508   3.608 -0.2350 -0.6738 -0.6932
17520TIP3    H274052   4.680   5.492   3.722 -0.0638  0.5537 -0.3543
17521TIP3   OH274053   0.705   2.912  12.636  0.0134  0.2088 -0.2798
17521TIP3    H174054   0.709   2.871  12.722  2.7165  0.9253  0.0313
17521TIP3    H274055   0.702   3.006  12.654  0.7796  0.3759 -0.9339
17522TIP3   OH274056   6.138   3.160  11.912 -0.0349 -0.5922 -0.0238
17522TIP3    H174057   6.055   3.124  11.942  0.2455 -1.0478  0.2104
17522TIP3    H274058   6.205   3.104  11.952  0.3941 -0.0155  0.0800
17523TIP3   OH274059   1.621   1.021  12.896  0.1184  0.3454  0.2908
17523TIP3    H174060   1.608   0.929  12.873 -0.1562  0.3600  0.3867
17523TIP3    H274061   1.712   1.025  12.925  0.8820  0.5511 -1.9131
17524TIP3   OH274062   4.665   5.081   1.942 -0.0115 -0.0741  0.1491
17524TIP3    H174063   4.645   5.141   2.014 -1.7516 -1.0603  0.5382
17524TIP3    H274064   4.581   5.064   1.900  0.6945 -0.9809 -0.9661
17525TIP3   OH274065   2.952   1.925   3.525 -0.5187  0.6340 -0.0519
17525TIP3    H174066   3.046   1.927   3.508 -0.5346  0.9796 -0.1215
17525TIP3    H274067   2.918   1.856   3.468 -0.4248  1.0966 -0.6759
17526TIP3   OH274068   5.262   6.669   4.644  0.0320 -0.5278  0.0858
17526TIP3    H174069   5.199   6.602   4.616  0.4688 -0.2389 -1.6636
17526TIP3    H274070   5.347   6.627   4.638  0.4854  0.5783 -2.6057
17527TIP3   OH274071   2.784   1.237  16.111 -0.0343  0.1433  0.3657
17527TIP3    H174072   2.850   1.295  16.073  1.0437  0.1003  2.0509
17527TIP3    H274073   2.738   1.199  16.036  0.0628  2.2087 -0.7952
17528TIP3   OH274074   5.336   1.081   6.290 -0.1814 -0.1636 -0.0829
17528TIP3    H174075   5.319   1.136   6.367 -1.2545  0.4675 -0.7400
17528TIP3    H274076   5.261   1.096   6.233  0.9376 -0.0673 -1.5898
17529TIP3   OH274077   2.199   3.865   1.450  0.0586 -0.1872  0.3194
17529TIP3    H174078   2.248   3.856   1.532  0.2686  0.9118  0.3276
17529TIP3    H274079   2.255   3.826   1.383  0.6143  0.3835  0.4479
17530TIP3   OH274080   3.770   3.037  16.620  0.7588  0.0310  0.8198
17530TIP3    H174081   3.825   3.027  16.542 -0.9376 -0.7139 -0.3460
17530TIP3    H274082   3.766   2.949  16.657  0.9475  0.2375  1.3446
17531TIP3   OH274083   1.680   2.320   1.069 -0.1192 -0.1282 -0.5435
17531TIP3    H174084   1.683   2.281   1.157 -0.3294  0.7541 -0.1326
17531TIP3    H274085   1.664   2.413   1.085 -3.4890 -0.4162 -1.6342
17532TIP3   OH274086   6.263   0.801   6.207  0.3933 -0.4094  0.0297
17532TIP3    H174087   6.326   0.873   6.204  2.3154 -2.0482 -1.4357
17532TIP3    H274088   6.305   0.733   6.259  0.2257 -1.8359 -1.6081
17533TIP3   OH274089   4.383   2.164  16.997 -0.3407  0.7216  0.5334
17533TIP3    H174090   4.431   2.082  17.007 -3.3465 -1.3968 -0.8101
17533TIP3    H274091   4.392   2.207  17.082  1.4330 -0.9032  1.2550
17534TIP3   OH274092   4.739   2.005   5.909  0.9033  0.3645  0.4903
17534TIP3    H174093   4.673   1.967   5.969  0.7115  0.5576  0.4026
17534TIP3    H274094   4.687   2.044   5.839  1.1470 -0.2526 -0.0344
17535TIP3   OH274095   5.511   4.891  10.386 -0.1628  0.0437  0.0217
17535TIP3    H174096   5.584   4.953  10.385  0.0503 -0.1995  0.2619
17535TIP3    H274097   5.481   4.891  10.477  1.2964 -1.8762  0.5822
17536TIP3   OH274098   3.101   4.319  15.911 -0.0422  0.4845  0.2526
17536TIP3    H174099   3.062   4.361  15.988  1.1662  0.8670  0.6774
17536TIP3    H274100   3.080   4.226  15.922 -2.2550  0.8497 -0.4055
17537TIP3   OH274101   3.519   5.901   0.000  0.4604  0.3456 -0.6630
17537TIP3    H174102   3.507   5.866  -0.088 -0.4297 -0.0251 -0.4060
17537TIP3    H274103   3.595   5.853   0.034  0.2795 -0.1404 -0.9236
17538TIP3   OH274104   2.415   5.922  15.554 -0.2683  0.1948 -0.0477
17538TIP3    H174105   2.393   6.013  15.535 -0.2342 -0.0692 -1.4126
17538TIP3    H274106   2.501   5.909  15.513 -0.5147 -0.5986 -0.3124
17539TIP3   OH274107   5.537   2.815   1.514 -0.2009  0.2413  0.6461
17539TIP3    H174108   5.480   2.886   1.482  0.2035  0.4515  0.3833
17539TIP3    H274109   5.579   2.851   1.592  0.3017  0.4379  0.2909
17540TIP3   OH274110   3.839   6.567   0.069 -0.1165 -0.4121  0.2521
17540TIP3    H174111   3.824   6.475   0.091 -1.6602 -0.2877 -0.1162
17540TIP3    H274112   3.753   6.609   0.080 -0.4110  0.2083 -3.1531
17541TIP3   OH274113   3.422   5.341   0.343 -0.1879 -0.1480 -0.0215
17541TIP3    H174114   3.327   5.333   0.348  0.0059 -2.5557  2.2911
17541TIP3    H274115   3.444   5.404   0.412 -0.0622 -0.1476 -0.0616
17542TIP3   OH274116   3.158   4.571   3.661 -0.1126  0.4985 -0.9440
17542TIP3    H174117   3.246   4.605   3.643  0.9431 -1.1024  0.8351
17542TIP3    H274118   3.100   4.628   3.611  1.8759  2.0153 -1.6689
17543TIP3   OH274119   1.677   4.585  14.473 -0.2718 -0.2147 -0.0985
17543TIP3    H174120   1.713   4.644  14.407 -0.2079  2.2050  1.9272
17543TIP3    H274121   1.651   4.643  14.545 -2.9239 -2.4021  0.9009
17544TIP3   OH274122   3.594   5.452  14.723 -0.0644 -0.3033 -0.3949
17544TIP3    H174123   3.582   5.543  14.696  0.2760 -0.0232  0.3641
17544TIP3    H274124   3.521   5.435  14.783 -1.2476 -1.1491 -1.9679
17545TIP3   OH274125   5.806   1.643   2.930 -0.4568  0.0127 -0.4392
17545TIP3    H174126   5.892   1.647   2.973 -0.3462  1.2601 -0.7249
17545TIP3    H274127   5.817   1.579   2.859  0.1035 -0.1659 -0.1938
17546TIP3   OH274128   3.633   3.880  14.242 -0.1619 -0.0715  0.2768
17546TIP3    H174129   3.596   3.792  14.250 -0.7808 -0.0138 -1.4627
17546TIP3    H274130   3.654   3.889  14.149  0.5468  1.3640  0.5443
17547TIP3   OH274131   4.338   0.537   1.536 -0.0601 -0.0276 -0.0394
17547TIP3    H174132   4.283   0.483   1.592  0.9569 -0.3117  0.6956
17547TIP3    H274133   4.396   0.584   1.596  0.0959  0.7311 -0.7626
17548TIP3   OH274134   5.947   0.476  10.728 -0.3303  0.3947  0.0905
17548TIP3    H174135   5.941   0.556  10.675 -2.3264  1.2024  1.3981
17548TIP3    H274136   5.933   0.405  10.667 -2.2346  1.2845 -0.5732
17549TIP3   OH274137   0.031   5.206   5.589  0.0015 -0.6867 -0.2335
17549TIP3    H174138   0.035   5.298   5.560 -0.9387  0.6195  3.3594
17549TIP3    H274139  -0.052   5.174   5.554 -0.4502  0.3736 -0.1914
17550TIP3   OH274140   4.360   0.454  14.631 -0.2050 -0.1769  0.4939
17550TIP3    H174141   4.280   0.418  14.594  0.8924 -0.1039 -2.2501
17550TIP3    H274142   4.416   0.470  14.555  0.9906  3.3693  1.9093
17551TIP3   OH274143   1.218   0.857   3.053  0.1792 -0.8567 -0.5431
17551TIP3    H174144   1.145   0.896   3.101 -0.0911 -1.5146 -0.4020
17551TIP3    H274145   1.225   0.768   3.088  0.2127 -1.2326 -1.4616
17552TIP3   OH274146   5.782   5.297  15.409  0.3393  0.4197  0.0595
17552TIP3    H174147   5.711   5.238  15.435 -0.5473  2.0792  1.5524
17552TIP3    H274148   5.860   5.241  15.410 -0.2884 -0.5509  2.4758
17553TIP3   OH274149   4.695   2.198  15.295 -0.6004 -0.4231 -0.0721
17553TIP3    H174150   4.612   2.219  15.337 -2.1079 -2.4189 -1.8431
17553TIP3    H274151   4.690   2.240  15.209  2.3383  3.4133  1.3036
17554TIP3   OH274152   5.265   2.488   5.142  0.6405 -0.7867  0.4616
17554TIP3    H174153   5.268   2.392   5.139  0.4202 -0.7778 -0.1098
17554TIP3    H274154   5.314   2.516   5.065  0.3260 -0.4447  0.3850
17555TIP3   OH274155   4.697   5.738  16.275  0.1995 -0.5628  0.2377
17555TIP3    H174156   4.622   5.797  16.288  1.1326  0.5715  0.6021
17555TIP3    H274157   4.700   5.723  16.181  1.7378  2.4291 -0.2715
17556TIP3   OH274158   2.151   0.707  11.447  0.4613 -0.4977 -0.1777
17556TIP3    H174159   2.233   0.747  11.475  0.0295  1.5031 -1.4692
17556TIP3    H274160   2.174   0.655  11.370  0.5506  0.0792 -0.5513
17557TIP3   OH274161   1.672   5.252  13.904 -0.1077  0.3543  0.3159
17557TIP3    H174162   1.755   5.240  13.951 -0.5202 -0.6537  0.8440
17557TIP3    H274163   1.697   5.285  13.818  0.7532  1.2023  0.8770
17558TIP3   OH274164   1.277   3.896  12.468 -0.1447  0.3488  0.1307
17558TIP3    H174165   1.342   3.827  12.454  1.4971  1.6747  0.7373
17558TIP3    H274166   1.194   3.850  12.475  0.3592 -1.2887 -2.7529
17559TIP3   OH274167   5.339   3.995  17.311  0.4770 -0.6635  0.0403
17559TIP3    H174168   5.367   4.057  17.379  0.9891 -1.0188  0.1602
17559TIP3    H274169   5.283   3.932  17.356  1.0398 -1.0591  0.1969
17560TIP3   OH274170   2.448   0.494  14.704 -0.0881  0.2008 -0.1269
17560TIP3    H174171   2.413   0.543  14.778 -0.6886  0.4589 -0.5720
17560TIP3    H274172   2.514   0.552  14.666  1.8431 -0.8050  1.4921
17561TIP3   OH274173   6.202   3.412   0.510 -0.4453 -0.2218 -0.6341
17561TIP3    H174174   6.172   3.442   0.595  1.3384  0.5367 -0.2318
17561TIP3    H274175   6.254   3.485   0.475  0.0706 -1.0711 -1.7242
17562TIP3   OH274176   2.898   0.394   0.555  0.0638  0.1132  0.0237
17562TIP3    H174177   2.931   0.443   0.631  0.8109  0.6053 -0.6042
17562TIP3    H274178   2.894   0.458   0.485  1.1424 -0.7152 -0.8363
17563TIP3   OH274179   2.993   4.350  15.661  0.0318  0.4248 -0.1833
17563TIP3    H174180   2.919   4.405  15.686 -0.3037 -1.0083  2.2396
17563TIP3    H274181   3.050   4.349  15.738  2.9891  1.9561 -2.1397
17564TIP3   OH274182   6.725   4.700   1.873  0.2665 -0.2084 -0.0760
17564TIP3    H174183   6.646   4.720   1.922 -0.9480 -1.2866 -1.5164
17564TIP3    H274184   6.743   4.608   1.891 -0.1720 -0.6136 -1.5334
17565TIP3   OH274185   0.408   0.274  16.387  0.8480  0.2062 -0.2977
17565TIP3    H174186   0.328   0.319  16.361  1.8813  1.9235 -0.6260
17565TIP3    H274187   0.383   0.181  16.391 -1.0466  0.6573 -0.7265
17566TIP3   OH274188   5.872   3.750   5.527  0.2537  0.0309 -0.0146
17566TIP3    H174189   5.862   3.836   5.486  2.3186 -1.5056 -4.4017
17566TIP3    H274190   5.850   3.765   5.619  1.1110  5.3691 -0.3241
17567TIP3   OH274191   3.648   3.408  13.115  0.2585 -0.8782  0.2350
17567TIP3    H174192   3.728   3.407  13.062 -0.0260 -0.7242 -0.2015
17567TIP3    H274193   3.578   3.419  13.051 -0.0232  0.3519  0.7219
17568TIP3   OH274194   5.619   1.457  13.718 -0.3854 -0.3724  0.2600
17568TIP3    H174195   5.711   1.466  13.742 -0.0052 -1.2395 -0.7633
17568TIP3    H274196   5.578   1.419  13.796 -0.0164  0.6001  0.9479
17569TIP3   OH274197   6.244   5.077   2.914  0.0802 -0.2041 -0.2601
17569TIP3    H174198   6.271   4.991   2.945  0.4638 -0.0252 -0.0972
17569TIP3    H274199   6.154   5.086   2.946  0.4089 -0.0938  0.6846
17570TIP3   OH274200   3.845   5.747  16.903 -0.2224 -0.3063  0.0836
17570TIP3    H174201   3.869   5.829  16.858  0.6114 -1.0294 -0.8352
17570TIP3    H274202   3.833   5.684  16.832 -0.1362 -1.1627  0.8166
17571TIP3   OH274203   2.892   4.088   5.564  0.1656 -0.1671 -0.1518
17571TIP3    H174204   2.903   4.180   5.587  0.6656  0.2933 -2.0707
17571TIP3    H274205   2.979   4.050   5.571  0.4399  0.1077 -1.6356
17572TIP3   OH274206   1.996   6.522  12.583  0.1342  0.7352 -0.3708
17572TIP3    H174207   2.038   6.530  12.497 -0.0474 -1.3805 -0.7167
17572TIP3    H274208   2.032   6.442  12.620  0.1124  1.5535  1.5074
17573TIP3   OH274209   5.347   4.883  14.291 -0.4536 -0.2682 -0.3004
17573TIP3    H174210   5.438   4.858  14.310 -0.2711  0.2291 -0.4918
17573TIP3    H274211   5.313   4.812  14.238 -0.8423 -1.4841  1.4896
17574TIP3   OH274212   5.658   4.967  17.285  0.6567 -0.7279 -0.2642
17574TIP3    H174213   5.747   4.947  17.312  1.1470  0.7930 -0.6564
17574TIP3    H274214   5.615   4.997  17.365  1.1042  0.4725 -0.4548
17575TIP3   OH274215   6.220   5.623  11.399  0.0789 -0.0373  0.1661
17575TIP3    H174216   6.220   5.527  11.402 -1.8835 -0.3716 -3.7111
17575TIP3    H274217   6.310   5.646  11.375 -0.1655 -1.2977 -2.2975
17576TIP3   OH274218   5.280   3.252   2.437  0.2341 -0.1813 -0.3454
17576TIP3    H174219   5.316   3.309   2.505 -1.0780 -1.3971  1.4701
17576TIP3    H274220   5.205   3.300   2.402 -0.9059 -0.7346  1.2197
17577TIP3   OH274221   0.897   4.161   5.321  0.2767 -0.5776  0.2156
17577TIP3    H174222   0.808   4.183   5.294  0.6371  1.0223  0.2411
17577TIP3    H274223   0.953   4.222   5.273  1.2151 -0.2680  1.6452
17578TIP3   OH274224   6.183   3.501  13.128 -0.1863 -0.1896 -0.2333
17578TIP3    H174225   6.261   3.469  13.173 -0.9042  0.7322  1.7921
17578TIP3    H274226   6.143   3.422  13.091  1.6846 -0.6693 -1.3584
17579TIP3   OH274227   5.693   3.641   5.781  0.1211 -0.4712 -0.3896
17579TIP3    H174228   5.631   3.713   5.789 -1.0314 -1.3063 -1.3814
17579TIP3    H274229   5.732   3.632   5.868 -0.4705  0.6628  0.0120
17580TIP3   OH274230   2.942   2.346  15.982 -0.0163  0.2373  0.7155
17580TIP3    H174231   2.864   2.387  16.020 -0.1148  0.5921  0.1343
17580TIP3    H274232   2.912   2.307  15.900  0.4546  0.5560  0.3818
17581TIP3   OH274233   1.663   1.747  12.813  0.1907 -0.0243  0.3575
17581TIP3    H174234   1.599   1.752  12.742  0.8159  0.6032 -0.1779
17581TIP3    H274235   1.617   1.784  12.889 -0.3588 -0.3700  0.2022
17582TIP3   OH274236   2.583   0.008  11.223 -0.1891 -0.2175 -0.2654
17582TIP3    H174237   2.536   0.090  11.240 -0.6831 -0.6222  0.3573
17582TIP3    H274238   2.651   0.032  11.160 -2.0031  0.1499 -2.1928
17583TIP3   OH274239   2.519   4.165   2.925 -0.7338  0.3512  0.3504
17583TIP3    H174240   2.520   4.087   2.869 -0.4741  0.6668 -0.0932
17583TIP3    H274241   2.573   4.141   3.000 -1.0507 -0.0624  0.4497
17584TIP3   OH274242   4.976   2.486   1.342 -0.6550  0.1263  0.2740
17584TIP3    H174243   5.001   2.571   1.378 -4.4430  0.6176  2.3234
17584TIP3    H274244   4.888   2.471   1.376 -2.0410 -2.5137 -3.7913
17585TIP3   OH274245   5.444   4.426  13.659  0.3813  0.3938 -1.4320
17585TIP3    H174246   5.456   4.385  13.745 -0.2332 -0.7252 -1.8581
17585TIP3    H274247   5.415   4.515  13.679  2.4228  0.9092 -0.4731
17586TIP3   OH274248   1.763   4.322  12.823  0.2839 -0.8203  0.3315
17586TIP3    H174249   1.852   4.288  12.833  0.6752 -0.1233 -0.5648
17586TIP3    H274250   1.774   4.400  12.768 -0.9967 -1.2890 -0.6288
17587TIP3   OH274251   2.260   2.205   6.289  0.0025 -0.2183 -0.2357
17587TIP3    H174252   2.219   2.273   6.341 -0.5996 -1.6155  1.1990
17587TIP3    H274253   2.187   2.164   6.242  0.2061 -0.5835 -0.2376
17588TIP3   OH274254   2.423   5.340  16.352  0.4201  0.2381 -0.0987
17588TIP3    H174255   2.517   5.327  16.342  0.2561 -0.9866 -0.1640
17588TIP3    H274256   2.400   5.294  16.432  0.0791  1.6765  0.6759
17589TIP3   OH274257   3.206   4.949   3.379 -0.0780  0.9065 -0.2090
17589TIP3    H174258   3.156   5.003   3.441 -2.0770 -0.8342 -0.1728
17589TIP3    H274259   3.193   4.990   3.294 -3.0042 -0.3072 -0.4566
17590TIP3   OH274260   6.561   6.190  14.245  0.0018  0.4022 -0.6213
17590TIP3    H174261   6.511   6.118  14.283  0.8543 -0.4148 -0.9976
17590TIP3    H274262   6.540   6.187  14.152  0.7483  0.0455 -0.7821
17591TIP3   OH274263   1.535   5.528   6.415 -0.2744 -0.3436  0.7149
17591TIP3    H174264   1.547   5.571   6.500  0.5545  0.2286  0.3283
17591TIP3    H274265   1.537   5.600   6.352  0.0423 -0.8517  0.1344
17592TIP3   OH274266   0.223   2.328   6.480 -0.4258 -0.5682  0.7096
17592TIP3    H174267   0.294   2.325   6.417  1.4663 -0.9378  2.7455
17592TIP3    H274268   0.194   2.419   6.480  0.9978 -0.0930  0.8250
17593TIP3   OH274269   0.037   1.873  14.375  0.1210  0.1554 -0.2977
17593TIP3    H174270   0.105   1.829  14.426 -0.6295 -1.3069 -0.5058
17593TIP3    H274271  -0.002   1.803  14.322 -1.7775  0.8771  0.0776
17594TIP3   OH274272   6.603   4.556   0.319 -0.0174 -0.0980 -0.1378
17594TIP3    H174273   6.575   4.636   0.274  1.9092  0.6075 -0.1774
17594TIP3    H274274   6.565   4.562   0.406  0.2477  0.9708 -0.0866
17595TIP3   OH274275   0.330   6.674  11.425 -0.1208 -0.1028  0.6195
17595TIP3    H174276   0.235   6.671  11.414 -0.1989 -0.2519  1.2927
17595TIP3    H274277   0.357   6.757  11.386 -0.6748  0.4838  1.4447
17596TIP3   OH274278   1.522   4.766   2.547 -0.1709 -0.1926  0.6768
17596TIP3    H174279   1.485   4.734   2.465  1.6228 -0.2187 -0.1740
17596TIP3    H274280   1.616   4.749   2.539  0.5572  2.8757  1.2626
17597TIP3   OH274281   1.070   4.609  11.833  0.5584  0.0698 -0.3053
17597TIP3    H174282   1.145   4.550  11.822 -0.4974 -1.1259 -1.5324
17597TIP3    H274283   1.083   4.677  11.767  1.0655  0.4351  0.1650
17598TIP3   OH274284   3.662   2.664  14.153 -0.5251 -0.0531 -0.0259
17598TIP3    H174285   3.622   2.599  14.211 -1.1940  0.9344  0.6512
17598TIP3    H274286   3.593   2.686  14.090 -0.4800  0.3776  0.0725
17599TIP3   OH274287   1.790   0.667  16.238  0.1986  0.2418 -0.0103
17599TIP3    H174288   1.723   0.723  16.277  0.0581  0.2192 -0.2145
17599TIP3    H274289   1.790   0.692  16.145 -0.4643 -0.6885 -0.2722
17600TIP3   OH274290   3.195   1.054   5.320 -0.3764 -0.0704 -0.3252
17600TIP3    H174291   3.119   1.042   5.376 -0.0627 -1.1412 -0.1108
17600TIP3    H274292   3.269   1.027   5.374 -0.1114 -1.5984 -1.3910
17601TIP3   OH274293   1.074   5.076  13.668  0.4138 -0.0535 -0.4118
17601TIP3    H174294   1.157   5.039  13.637  0.8747  1.7242 -1.4341
17601TIP3    H274295   1.099   5.130  13.743  0.0547 -0.1813 -0.1999
17602TIP3   OH274296   5.231   0.800   0.611 -0.2882  0.5401 -0.1288
17602TIP3    H174297   5.193   0.774   0.527 -0.1164  0.2837 -0.1280
17602TIP3    H274298   5.325   0.809   0.592 -0.3616  1.3018 -0.1667
17603TIP3   OH274299   4.956   5.891   0.435 -0.2101  0.1089  0.0265
17603TIP3    H174300   5.000   5.955   0.379 -0.8514  0.6495  0.1368
17603TIP3    H274301   4.917   5.829   0.373  1.2704 -0.7727 -0.0624
17604TIP3   OH274302   5.177   3.453  10.929  0.3433  0.2555 -0.0994
17604TIP3    H174303   5.101   3.502  10.961  1.1122  1.4136  0.0286
17604TIP3    H274304   5.234   3.520  10.891  2.1191 -0.3219  1.4023
17605TIP3   OH274305   6.199   3.332  16.673  0.1892 -0.2133 -0.0113
17605TIP3    H174306   6.240   3.247  16.665  1.8158  0.2834  2.0855
17605TIP3    H274307   6.203   3.352  16.766 -1.2257  1.6614 -0.2784
17606TIP3   OH274308   1.588   6.209   1.707 -0.5454 -0.0343  0.2490
17606TIP3    H174309   1.653   6.278   1.718 -1.4889  0.7672  1.0867
17606TIP3    H274310   1.550   6.198   1.795  0.8632 -2.9710  0.6120
17607TIP3   OH274311   5.353   5.688   3.507  0.1890  0.2489  0.3415
17607TIP3    H174312   5.301   5.626   3.457  0.5870 -1.1309  1.5428
17607TIP3    H274313   5.373   5.759   3.446  0.5865 -1.3084 -1.4190
17608TIP3   OH274314   3.885   2.268   6.122 -0.1720 -0.2519  0.0728
17608TIP3    H174315   3.941   2.323   6.177  1.4840 -2.8589  1.1804
17608TIP3    H274316   3.796   2.284   6.154  0.2727  1.5836  0.4789
17609TIP3   OH274317   4.591   1.790  15.836 -0.1433  0.1294  0.0052
17609TIP3    H174318   4.581   1.706  15.792 -0.1064 -0.0478  0.3337
17609TIP3    H274319   4.676   1.785  15.880  0.7194  1.0356 -1.4705
17610TIP3   OH274320   3.101   1.011   4.070  0.8044 -0.5989 -0.2945
17610TIP3    H174321   3.039   1.009   4.143  1.3889  1.6160  0.3332
17610TIP3    H274322   3.067   0.945   4.009 -0.3668 -1.6798  1.4173
17611TIP3   OH274323   4.077   4.942   5.980 -0.2362  0.3817  0.1433
17611TIP3    H174324   4.048   4.921   5.891  2.0314 -0.3316 -0.4952
17611TIP3    H274325   4.044   4.870   6.034  0.1157 -0.2736 -0.5015
17612TIP3   OH274326   5.331   0.985   3.485  0.2317  0.0930 -0.1029
17612TIP3    H174327   5.257   0.954   3.537 -0.1103 -1.0461 -1.2080
17612TIP3    H274328   5.378   1.045   3.543 -0.8731 -0.0926  1.0327
17613TIP3   OH274329   6.238   4.962   4.060  0.2198 -0.3847  0.3360
17613TIP3    H174330   6.187   4.979   3.981  0.0702  0.5248  0.6164
17613TIP3    H274331   6.329   4.978   4.033  0.3176 -1.4240 -0.0037
17614TIP3   OH274332   4.347   6.128   5.704  0.1032  0.1353  0.1103
17614TIP3    H174333   4.286   6.201   5.691 -0.6390 -0.4770  0.0653
17614TIP3    H274334   4.340   6.077   5.623  0.7516  0.1132  0.0662
17615TIP3   OH274335   2.492   1.338  14.301 -0.2692 -0.1377  0.1087
17615TIP3    H174336   2.400   1.361  14.289 -0.3386  0.5955  1.7339
17615TIP3    H274337   2.493   1.283  14.380  0.5770 -1.0637 -0.5142
17616TIP3   OH274338   2.542   3.061   3.038  0.3121 -0.8864 -0.0213
17616TIP3    H174339   2.465   3.104   3.076  1.2436  0.5515  0.3149
17616TIP3    H274340   2.586   3.130   2.989  1.8604 -1.4566  0.5019
17617TIP3   OH274341   4.184   5.511  15.309  0.0494  0.2223  0.1660
17617TIP3    H174342   4.268   5.552  15.290  0.5862 -0.6708  0.5545
17617TIP3    H274343   4.129   5.534  15.234  1.5278 -1.5831 -1.5700
17618TIP3   OH274344   3.586   3.678   3.764 -0.9641  0.6093 -0.3300
17618TIP3    H174345   3.663   3.732   3.778 -0.1276  0.4084 -3.4611
17618TIP3    H274346   3.528   3.732   3.710 -2.7480  0.4700  1.3359
17619TIP3   OH274347   2.030   2.619   2.532  0.2668 -0.0765 -0.3309
17619TIP3    H174348   2.115   2.607   2.575  1.5917  1.4635 -2.3009
17619TIP3    H274349   2.031   2.558   2.459 -0.8824 -0.9174  0.3287
17620TIP3   OH274350   3.954   6.122  11.489  1.0166  0.4181 -0.1706
17620TIP3    H174351   3.941   6.168  11.406 -1.9687 -1.1819 -0.7326
17620TIP3    H274352   3.942   6.030  11.469  0.0276 -0.0125  2.0384
17621TIP3   OH274353   4.590   5.019   5.257 -0.1120  0.0983  0.2158
17621TIP3    H174354   4.540   4.938   5.256  0.0817 -0.0339 -1.3183
17621TIP3    H274355   4.569   5.062   5.174 -0.4299  1.7754  1.1041
17622TIP3   OH274356   3.027   1.704  16.467 -0.1826  0.3292 -0.0773
17622TIP3    H174357   2.964   1.745  16.407 -2.6137  1.2854  2.8876
17622TIP3    H274358   2.993   1.615  16.479 -0.6848  0.6549  1.0617
17623TIP3   OH274359   2.257   0.746   1.962 -0.2693  0.2994  0.2760
17623TIP3    H174360   2.284   0.774   2.050 -0.9006 -0.2156  0.6468
17623TIP3    H274361   2.215   0.661   1.976 -1.2422  0.6526 -0.3908
17624TIP3   OH274362   6.650   0.593   5.251 -0.0549 -0.4644  0.4237
17624TIP3    H174363   6.628   0.583   5.158  0.3672 -0.2543  0.2968
17624TIP3    H274364   6.609   0.518   5.293 -0.8002 -0.2046  0.1664
17625TIP3   OH274365   6.502   0.028   2.915  0.1859  0.5733  0.5896
17625TIP3    H174366   6.477  -0.063   2.898  0.8847  0.6044 -0.7983
17625TIP3    H274367   6.419   0.076   2.918 -0.1193  0.1187 -0.2547
17626TIP3   OH274368   6.284   0.211   0.809  0.0765  0.2848  0.3603
17626TIP3    H174369   6.226   0.221   0.733  0.3696 -0.7311 -0.0151
17626TIP3    H274370   6.251   0.274   0.873  0.1181  1.5071 -0.7788
17627TIP3   OH274371   2.287   6.284   5.989 -0.8127  0.3479  0.0131
17627TIP3    H174372   2.242   6.251   6.067 -2.4103 -1.4058 -1.5463
17627TIP3    H274373   2.217   6.322   5.935  0.0901  0.6347 -0.9985
17628TIP3   OH274374   4.903   0.634  16.837  0.4718  0.1979  0.7500
17628TIP3    H174375   4.993   0.603  16.838  0.3273 -0.5691 -1.7724
17628TIP3    H274376   4.910   0.726  16.810  0.5449  0.4977  1.7626
17629TIP3   OH274377   4.640   4.419   2.496  0.2320 -0.1010  0.1614
17629TIP3    H174378   4.558   4.460   2.472 -0.2459  0.3292  2.2864
17629TIP3    H274379   4.706   4.488   2.487 -0.2955  0.7079  2.0853
17630TIP3   OH274380   2.159   2.171   1.428 -0.6089  0.0277  0.1690
17630TIP3    H174381   2.236   2.133   1.385 -0.6076 -1.0656  1.1102
17630TIP3    H274382   2.102   2.198   1.356  0.3386  0.2145 -0.5346
17631TIP3   OH274383   2.236   5.021  12.977 -0.3447 -0.0592  0.3168
17631TIP3    H174384   2.258   5.025  13.070  1.6415  1.3610 -0.1505
17631TIP3    H274385   2.264   4.933  12.950  0.1421 -0.0684  0.8253
17632TIP3   OH274386   2.081   4.592   5.206  0.4744  0.0447  0.2202
17632TIP3    H174387   1.996   4.625   5.178 -0.2130 -3.4671 -2.6147
17632TIP3    H274388   2.061   4.507   5.247  2.5373 -0.4603  0.2843
17633TIP3   OH274389   0.141   2.210  13.800  0.0520  0.3310 -0.0347
17633TIP3    H174390   0.181   2.142  13.745  1.5750  0.9588  0.2562
17633TIP3    H274391   0.209   2.276  13.810 -1.1472  1.5672  0.3070
17634TIP3   OH274392   1.746   4.186  16.391 -0.6257  0.4489  0.4958
17634TIP3    H174393   1.750   4.104  16.341 -1.4429  1.3265 -1.0633
17634TIP3    H274394   1.689   4.166  16.465 -0.1591 -0.6132  0.5893
17635TIP3   OH274395   6.556   3.892  15.107 -0.3778 -0.1244 -0.0870
17635TIP3    H174396   6.643   3.918  15.079 -1.0932  1.6542 -0.8631
17635TIP3    H274397   6.532   3.821  15.048  0.0310  0.3047 -0.7889
17636TIP3   OH274398   1.582   1.367   5.742  0.1578 -0.2973 -0.2595
17636TIP3    H174399   1.627   1.339   5.662 -1.9336 -1.8820 -0.9885
17636TIP3    H274400   1.498   1.401   5.711 -0.9220 -1.4173  1.2466
17637TIP3   OH274401   5.320   1.127  14.103 -0.1587  0.0435 -0.4872
17637TIP3    H174402   5.410   1.103  14.124 -0.3734 -0.8531 -0.5287
17637TIP3    H274403   5.290   1.177  14.179  0.9816  2.1033 -1.3083
17638TIP3   OH274404   6.216   5.078   0.547  0.4259 -0.7004 -0.1722
17638TIP3    H174405   6.286   5.056   0.609  0.1496  3.8070  2.1753
17638TIP3    H274406   6.258   5.076   0.461  3.1183  0.3087  1.0061
17639TIP3   OH274407   0.224   3.995   4.352  0.2449  0.3668  0.3743
17639TIP3    H174408   0.158   3.944   4.305 -0.4677  0.6213  1.0818
17639TIP3    H274409   0.307   3.951   4.333 -0.2422 -0.4935  0.2142
17640TIP3   OH274410   0.252   1.950  15.501 -0.1517 -0.4302 -0.0551
17640TIP3    H174411   0.174   1.927  15.551  1.4391 -0.0664  2.8905
17640TIP3    H274412   0.275   1.871  15.453  0.1948 -2.1753  2.7526
17641TIP3   OH274413   2.428   5.914  14.045 -0.1875  0.0997 -0.0410
17641TIP3    H174414   2.482   5.901  13.967 -1.3524 -0.1820 -0.8285
17641TIP3    H274415   2.459   5.849  14.108  0.5133  0.0825 -0.3956
17642TIP3   OH274416   0.420   1.567  16.940 -0.2271  0.6713  0.2904
17642TIP3    H174417   0.427   1.654  16.981  0.2332  0.5695  0.4323
17642TIP3    H274418   0.334   1.535  16.966 -1.2979  1.9500 -1.4775
17643TIP3   OH274419   6.027   5.263   0.617 -0.9142 -0.0121 -0.2767
17643TIP3    H174420   6.085   5.200   0.574 -0.0277  1.1936 -0.8969
17643TIP3    H274421   6.056   5.265   0.707  1.8915  2.5248 -1.0943
17644TIP3   OH274422   5.824   0.514   5.548  0.4202 -0.0946 -0.4909
17644TIP3    H174423   5.878   0.590   5.526  0.2993  0.5923  1.4150
17644TIP3    H274424   5.791   0.533   5.636 -1.8318 -1.1170 -1.0609
17645TIP3   OH274425   4.618   0.452   1.114 -0.2093 -0.1674 -0.1172
17645TIP3    H174426   4.701   0.426   1.155 -0.9588  0.0245  1.6289
17645TIP3    H274427   4.554   0.447   1.185 -1.5555  0.4560 -1.2356
17646TIP3   OH274428   5.536   2.848  11.407  0.6793 -0.1195  0.3283
17646TIP3    H174429   5.533   2.767  11.356 -1.2795 -0.5960  1.1155
17646TIP3    H274430   5.476   2.833  11.480 -0.6013  2.4327 -0.0984
17647TIP3   OH274431   5.914   1.023   5.813 -0.0015  0.2074 -0.1497
17647TIP3    H174432   5.832   1.022   5.764 -0.0329 -0.6389 -0.1061
17647TIP3    H274433   5.888   1.002   5.903 -0.1112  3.0126  0.5635
17648TIP3   OH274434   5.917   6.590   4.973 -0.1369 -0.5360  0.3424
17648TIP3    H174435   5.919   6.675   5.016 -1.4516 -0.1581 -0.2863
17648TIP3    H274436   5.925   6.527   5.044 -0.6968  0.0980  0.9823
17649TIP3   OH274437   6.546   2.882   2.546 -0.4100  0.3878 -0.1616
17649TIP3    H174438   6.589   2.964   2.519  1.5892  0.0859  1.7982
17649TIP3    H274439   6.494   2.857   2.470 -2.2806  4.1793 -0.3570
17650TIP3   OH274440   0.426   4.624  12.794  0.8737  0.0119 -0.4713
17650TIP3    H174441   0.474   4.651  12.873  0.3680 -0.2990 -0.0547
17650TIP3    H274442   0.347   4.581  12.827  0.2154  0.6716 -1.1538
17651TIP3   OH274443   3.236   5.055  12.621 -0.0152  0.2571 -0.5127
17651TIP3    H174444   3.192   4.996  12.560  1.5908 -1.9601  0.3403
17651TIP3    H274445   3.175   5.063  12.695  0.0167 -0.9087 -0.3450
17652TIP3   OH274446   3.339   5.359  13.630  0.0651 -0.5955  0.4811
17652TIP3    H174447   3.276   5.394  13.694 -0.9138  0.0331 -0.7769
17652TIP3    H274448   3.425   5.382  13.666 -0.5004  2.3352  0.2280
17653TIP3   OH274449   1.942   3.309   4.220  0.4737 -0.0370  0.1313
17653TIP3    H174450   2.023   3.271   4.253  0.0273  0.1859  1.5765
17653TIP3    H274451   1.926   3.265   4.137  1.0907 -1.4461  0.7381
17654TIP3   OH274452   2.026   0.238  12.059  0.1365 -0.0883 -0.3551
17654TIP3    H174453   2.069   0.323  12.051 -0.4674  0.3643  0.9550
17654TIP3    H274454   2.075   0.192  12.127 -0.2925 -0.3082 -0.1909
17655TIP3   OH274455   5.814   2.431   2.742 -0.1997  0.0841 -0.3242
17655TIP3    H174456   5.853   2.409   2.657 -1.6413  0.5497 -1.1481
17655TIP3    H274457   5.832   2.525   2.752  1.7266 -0.3535  0.8909
17656TIP3   OH274458   0.853   0.951  12.053 -0.1231 -1.1174 -0.0379
17656TIP3    H174459   0.904   1.031  12.064 -0.2999 -1.2324  2.1409
17656TIP3    H274460   0.917   0.886  12.023  0.1476 -0.3281 -1.2156
17657TIP3   OH274461   5.109   6.643   3.591 -0.0473 -0.2739  0.0045
17657TIP3    H174462   5.191   6.685   3.618  0.1519  1.0166 -2.3435
17657TIP3    H274463   5.127   6.612   3.502 -2.0664 -0.0014 -0.5447
17658TIP3   OH274464   1.476   2.414   4.429 -0.1790  0.0622  0.5234
17658TIP3    H174465   1.380   2.413   4.441 -0.0262  0.3818  2.0001
17658TIP3    H274466   1.489   2.467   4.350 -1.2569 -0.7535 -0.2401
17659TIP3   OH274467   0.716   2.221   6.325 -0.4043 -0.8874  0.3065
17659TIP3    H174468   0.748   2.192   6.410 -0.6012 -0.5318  0.5084
17659TIP3    H274469   0.744   2.154   6.264 -1.1542 -1.6920  0.8121
17660TIP3   OH274470   0.065   4.832   5.461  0.1865  0.1215 -0.6538
17660TIP3    H174471   0.032   4.764   5.402 -1.1107  0.7793 -0.7364
17660TIP3    H274472  -0.007   4.847   5.523  2.5461 -2.6688  3.1224
17661TIP3   OH274473   0.303   3.374  11.801  0.1972 -0.2427  0.1880
17661TIP3    H174474   0.382   3.354  11.852  2.0408 -1.4511 -2.8614
17661TIP3    H274475   0.244   3.300  11.819  1.3232 -1.2997 -0.3283
17662TIP3   OH274476   2.420   4.960   3.708  0.3473 -0.5583  0.0031
17662TIP3    H174477   2.398   4.958   3.801  0.4052 -2.4481  0.0253
17662TIP3    H274478   2.344   4.920   3.665 -0.4459  1.8198 -1.0006
17663TIP3   OH274479   0.429   1.392  11.934 -0.8925  0.5905 -0.1122
17663TIP3    H174480   0.395   1.398  11.845  1.1336 -2.6417 -1.2517
17663TIP3    H274481   0.352   1.376  11.988 -2.1204  2.3321 -1.2213
17664TIP3   OH274482   5.068   5.006  13.639 -0.1660 -0.3157 -0.1113
17664TIP3    H174483   4.993   4.962  13.600  1.3536 -3.2270  0.0070
17664TIP3    H274484   5.144   4.970  13.593  1.3148  0.5862  1.5080
17665TIP3   OH274485   3.398   0.845   1.221  0.0564  0.3670 -0.2275
17665TIP3    H174486   3.352   0.904   1.162 -1.8046 -1.6675 -0.9078
17665TIP3    H274487   3.388   0.758   1.183  0.3500 -0.7992  2.1345
17666TIP3   OH274488   5.785   0.713  16.403 -0.2965  0.1587 -0.4398
17666TIP3    H174489   5.759   0.801  16.376 -1.8980 -0.5061 -1.1988
17666TIP3    H274490   5.774   0.713  16.498 -1.0653  0.5338 -0.5248
17667TIP3   OH274491   6.662   1.369  12.415 -0.1083 -0.0148  0.2982
17667TIP3    H174492   6.726   1.304  12.388 -0.1042  0.1557 -0.1001
17667TIP3    H274493   6.704   1.416  12.487  0.4863  0.5651 -0.4265
17668TIP3   OH274494   2.946   1.759   3.015  0.3143 -0.2719 -0.3377
17668TIP3    H174495   2.961   1.749   2.921 -2.5828  1.9160 -1.1642
17668TIP3    H274496   2.851   1.759   3.025  0.4915 -2.3792  2.9221
17669TIP3   OH274497   6.427   3.994  11.196  0.1640  1.0760 -0.2848
17669TIP3    H174498   6.374   4.022  11.271  1.8646  0.5881  1.1716
17669TIP3    H274499   6.409   3.901  11.187 -0.1259  1.1579 -0.5646
17670TIP3   OH274500   6.115   5.635  13.745 -0.0838  0.1142  0.4513
17670TIP3    H174501   6.041   5.674  13.790  1.1028 -0.0591  2.7168
17670TIP3    H274502   6.081   5.609  13.660 -1.7519  3.0109  0.1005
17671TIP3   OH274503   0.934   4.852  13.508  0.1851 -0.1690 -0.4868
17671TIP3    H174504   1.013   4.864  13.562 -1.1923  0.4716  1.5098
17671TIP3    H274505   0.930   4.930  13.454  0.4938  0.1762 -0.0249
17672TIP3   OH274506   3.758   3.999  17.170  0.1590  0.3186 -0.0381
17672TIP3    H174507   3.756   3.922  17.112  1.3892  1.0067 -1.0563
17672TIP3    H274508   3.787   4.070  17.113 -1.4801  1.6813  0.7551
17673TIP3   OH274509   4.003   1.607   3.313 -0.3553 -0.5304 -0.3800
17673TIP3    H174510   3.950   1.687   3.312 -0.1533 -0.4043 -0.7813
17673TIP3    H274511   3.954   1.548   3.370 -0.5026 -0.1208 -0.0700
17674TIP3   OH274512   3.481   2.559  16.247 -0.0952 -0.1566 -0.2706
17674TIP3    H174513   3.403   2.575  16.300  0.4242 -2.5176  1.3906
17674TIP3    H274514   3.472   2.467  16.220  1.7808 -0.2756 -0.5836
17675TIP3   OH274515   5.493   0.147   2.557  0.4920  0.3394 -0.7024
17675TIP3    H174516   5.578   0.126   2.597  0.0393  1.7036  1.1068
17675TIP3    H274517   5.445   0.064   2.560  1.1215 -0.0185 -0.0503
17676TIP3   OH274518   3.740   1.154   4.998 -0.1119 -0.2263  0.2662
17676TIP3    H174519   3.835   1.147   4.988 -0.1092 -0.6136  0.5160
17676TIP3    H274520   3.712   1.206   4.923  0.1770 -0.9911 -0.3949
17677TIP3   OH274521   1.507   0.445  14.862 -0.0945 -0.1375 -0.0455
17677TIP3    H174522   1.470   0.503  14.929  0.6489  1.5212 -0.9986
17677TIP3    H274523   1.506   0.358  14.902 -0.1163  0.7183  1.9216
17678TIP3   OH274524   6.091   1.665   2.984 -0.5147  0.3188  0.0934
17678TIP3    H174525   6.099   1.607   3.060  1.8604  0.4478  0.0206
17678TIP3    H274526   6.121   1.750   3.015  0.7952  0.3018 -1.0185
17679TIP3   OH274527   0.384   3.215  16.126  0.2092 -0.2949  0.0875
17679TIP3    H174528   0.474   3.185  16.139  0.6489  0.7787 -0.3519
17679TIP3    H274529   0.332   3.162  16.187  1.0604 -1.2991 -0.0368
17680TIP3   OH274530   3.382   0.347  13.614 -0.0505 -0.3729 -0.1892
17680TIP3    H174531   3.368   0.259  13.650  0.0593 -0.6273 -0.7546
17680TIP3    H274532   3.470   0.345  13.578 -0.7920 -0.7304 -2.1283
17681TIP3   OH274533   1.378   4.267  14.068 -0.0014 -0.2487 -0.2794
17681TIP3    H174534   1.286   4.279  14.091  0.3272  2.1673  0.0023
17681TIP3    H274535   1.426   4.325  14.127  1.5028  0.2125 -1.8628
17682TIP3   OH274536   2.548   0.909  14.309  0.6875 -0.1614 -0.3636
17682TIP3    H174537   2.473   0.865  14.351  0.8016  0.0951  0.1197
17682TIP3    H274538   2.625   0.873  14.353  0.7985  0.2666 -0.1956
17683TIP3   OH274539   0.205   5.123  14.372  0.0778  0.4294 -0.5943
17683TIP3    H174540   0.163   5.061  14.431 -1.2485  1.9242  0.1098
17683TIP3    H274541   0.212   5.076  14.288 -0.7261 -0.6998 -0.0506
17684TIP3   OH274542   6.349   6.178  12.109 -0.4758  0.0102 -0.1170
17684TIP3    H174543   6.390   6.129  12.038 -1.3312  0.8243 -1.2108
17684TIP3    H274544   6.289   6.116  12.150  1.1745 -0.9474  0.9841
17685TIP3   OH274545   5.567   5.112  15.224  0.0034 -0.2169  0.3958
17685TIP3    H174546   5.655   5.141  15.203 -0.1735  0.9706  1.1493
17685TIP3    H274547   5.580   5.040  15.286  0.4514  0.0705  0.6457
17686TIP3   OH274548   3.277   5.853  16.555  0.4196  0.6062  0.1587
17686TIP3    H174549   3.234   5.789  16.498 -0.8913  0.2847  1.4511
17686TIP3    H274550   3.256   5.938  16.516 -0.9631  0.4215  0.4478
17687TIP3   OH274551   4.539   4.234  14.790  0.0318  0.0564  0.4831
17687TIP3    H174552   4.580   4.167  14.845  0.3707 -0.4169 -0.3316
17687TIP3    H274553   4.564   4.210  14.701 -0.5552  0.7854  0.1170
17688TIP3   OH274554   1.190   6.576  13.764  1.0412 -0.1953 -0.3239
17688TIP3    H174555   1.249   6.544  13.697  0.1261  0.6820 -1.6003
17688TIP3    H274556   1.192   6.672  13.755 -1.2465 -0.1461 -1.0857
17689TIP3   OH274557   4.344   2.643   6.315  0.1476 -0.3212 -0.3988
17689TIP3    H174558   4.320   2.578   6.381 -0.7345  1.4505  1.0949
17689TIP3    H274559   4.279   2.713   6.325  2.5742  2.0328 -0.1072
17690TIP3   OH274560   3.559   0.321  16.017 -0.3009  0.1836  1.0080
17690TIP3    H174561   3.509   0.251  16.059  0.2090 -0.5822  0.3747
17690TIP3    H274562   3.650   0.289  16.019 -0.2179  0.2860 -0.3383
17691TIP3   OH274563   3.059   6.459   6.129  0.2295 -0.3250  0.4342
17691TIP3    H174564   3.003   6.535   6.114  0.1456 -0.5921 -0.6783
17691TIP3    H274565   3.131   6.492   6.183  1.2196  1.0203 -1.5867
17692TIP3   OH274566   3.887   4.920   4.946  0.4639 -0.1779  0.6267
17692TIP3    H174567   3.880   5.001   4.996 -0.3521  0.0057  0.2322
17692TIP3    H274568   3.808   4.871   4.970  0.3929 -0.3696  0.0148
17693TIP3   OH274569   6.692   4.206  13.789 -0.0753  0.0645 -0.6624
17693TIP3    H174570   6.723   4.163  13.869 -0.9097  0.5381 -0.0682
17693TIP3    H274571   6.692   4.137  13.723  0.6002 -0.3385 -0.2491
17694TIP3   OH274572   1.816   0.415   0.343 -0.1395  0.0461 -0.2934
17694TIP3    H174573   1.901   0.457   0.334 -1.0942  2.4227  0.9022
17694TIP3    H274574   1.758   0.466   0.286 -1.2238 -0.0361  0.7135
17695TIP3   OH274575   1.808   2.276   0.461 -0.4558 -0.5231  1.1291
17695TIP3    H174576   1.812   2.318   0.547 -2.6910  2.5556 -0.0671
17695TIP3    H274577   1.723   2.231   0.461 -1.2605  0.9230  0.0325
17696TIP3   OH274578   5.805   5.838   5.157  0.2270 -0.1112 -0.7768
17696TIP3    H174579   5.782   5.908   5.095 -0.1205  0.8204  0.3787
17696TIP3    H274580   5.892   5.862   5.188  0.1928 -0.3034 -0.5355
17697TIP3   OH274581   6.510   0.586   0.444  0.1957 -0.2391  0.1828
17697TIP3    H174582   6.434   0.620   0.491  0.5997  0.2963  0.4612
17697TIP3    H274583   6.476   0.566   0.357 -0.4121 -0.6203  0.4979
17698TIP3   OH274584   0.123   6.194   4.103  0.2317  0.3636 -0.4783
17698TIP3    H174585   0.113   6.285   4.078  2.0479  0.6307 -0.3835
17698TIP3    H274586   0.191   6.195   4.170 -0.0322 -1.0216 -0.1493
17699TIP3   OH274587   2.538   2.201  15.245 -0.0103  0.2344  0.0116
17699TIP3    H174588   2.603   2.133  15.231  1.6146  2.1000 -2.3820
17699TIP3    H274589   2.455   2.162  15.217  0.8285 -0.8440 -1.0637
17700TIP3   OH274590   3.220   4.132  16.884 -0.6894  0.6928 -0.0328
17700TIP3    H174591   3.212   4.224  16.911 -1.8859  0.8827 -0.9240
17700TIP3    H274592   3.274   4.092  16.951 -0.3037  2.0093  0.4857
17701TIP3   OH274593   1.111   3.276  11.933 -0.0311 -0.3337 -0.1649
17701TIP3    H174594   1.055   3.199  11.947  1.5398 -1.1594  2.2743
17701TIP3    H274595   1.084   3.337  12.002  2.6836 -1.2190  1.8447
17702TIP3   OH274596   6.563   6.466  13.415  0.2970  0.4723 -0.0342
17702TIP3    H174597   6.640   6.493  13.364 -0.1475  0.1891 -0.8637
17702TIP3    H274598   6.491   6.519  13.379  0.3100  1.6415  1.5596
17703TIP3   OH274599   4.028   2.583  11.472  0.5055  0.1466 -0.7262
17703TIP3    H174600   3.958   2.520  11.455  0.2727  0.2073  0.0118
17703TIP3    H274601   4.109   2.534  11.454  0.3782 -0.7489  0.9987
17704TIP3   OH274602   1.414   0.672  15.971  0.2084  0.0688 -0.0610
17704TIP3    H174603   1.401   0.763  15.943  0.8499  0.0749 -0.3625
17704TIP3    H274604   1.338   0.652  16.025 -0.0160  0.7361 -0.1245
17705TIP3   OH274605   5.142   0.022  14.904  0.2478  0.1531  0.0450
17705TIP3    H174606   5.099   0.018  14.990 -0.8320  0.7339 -0.4396
17705TIP3    H274607   5.231  -0.009  14.920  0.3585  1.1188  1.5635
17706TIP3   OH274608   6.005   4.981  14.269 -0.2005  0.0833  0.7551
17706TIP3    H174609   6.059   4.977  14.348  0.2458 -1.8416  0.3803
17706TIP3    H274610   6.038   4.912  14.212 -0.8332  1.1146 -0.9443
17707TIP3   OH274611   1.813   4.657  15.911  0.3164  0.1502 -0.2482
17707TIP3    H174612   1.819   4.744  15.871 -2.4222 -0.2451 -1.7165
17707TIP3    H274613   1.791   4.674  16.003 -0.0939  1.0174 -0.4987
17708TIP3   OH274614   6.557   3.090  16.585  0.1381 -0.2179 -0.8134
17708TIP3    H174615   6.500   3.043  16.646 -0.6279  0.3825 -1.0453
17708TIP3    H274616   6.645   3.081  16.621 -0.2401 -0.2851  0.1136
17709TIP3   OH274617   1.750   2.115  16.432 -0.4495  0.2274 -0.6168
17709TIP3    H174618   1.832   2.143  16.392  0.7548  1.4433  2.3925
17709TIP3    H274619   1.726   2.035  16.384  2.3169  0.0056 -1.8265
17710TIP3   OH274620   4.825   1.690  11.267 -0.8698  0.4244 -0.6851
17710TIP3    H174621   4.810   1.605  11.308  0.4717 -0.2037 -1.4216
17710TIP3    H274622   4.816   1.753  11.338 -1.3627 -0.3799 -0.0182
17711TIP3   OH274623   5.360   5.506   4.743 -0.0482  0.4557 -0.6540
17711TIP3    H174624   5.315   5.569   4.686  0.2387  0.2621 -1.0934
17711TIP3    H274625   5.289   5.461   4.789 -0.4557 -1.2203 -2.7621
17712TIP3   OH274626   3.289   2.147   1.529  1.3247  0.3050 -0.1159
17712TIP3    H174627   3.366   2.116   1.482  1.3127  0.5904 -0.3254
17712TIP3    H274628   3.301   2.242   1.535  1.0711  0.3315 -0.0013
17713TIP3   OH274629   5.286   2.596  13.386 -0.4013 -0.3611 -0.0598
17713TIP3    H174630   5.237   2.561  13.311 -1.2492  0.9920 -0.1747
17713TIP3    H274631   5.373   2.555  13.379 -0.0631  0.5752 -2.4659
17714TIP3   OH274632   6.675   6.536   5.618  0.3854 -0.3511  0.3351
17714TIP3    H174633   6.622   6.594   5.563 -0.3614 -1.7624 -0.4775
17714TIP3    H274634   6.711   6.471   5.558  2.1522 -0.0982  1.0465
17715TIP3   OH274635   3.380   5.967   6.001  0.2969  0.3255  0.0243
17715TIP3    H174636   3.285   5.982   5.999  0.4526  1.2945 -1.0023
17715TIP3    H274637   3.417   6.047   5.964  1.4905 -0.3466 -0.2666
17716TIP3   OH274638   2.086   4.673  14.108  0.3410  0.3009  0.1134
17716TIP3    H174639   2.120   4.755  14.143  0.5261  0.4270 -0.3640
17716TIP3    H274640   1.991   4.682  14.115  0.2090  1.6457 -2.3056
17717TIP3   OH274641   5.983   3.594  15.310 -0.1561  0.2556  0.0694
17717TIP3    H174642   6.053   3.532  15.290  1.2026  1.8917 -0.5557
17717TIP3    H274643   5.934   3.554  15.382  0.4505 -1.6517 -0.5218
17718TIP3   OH274644   2.810   3.324   0.788  0.3661 -0.6529  0.1551
17718TIP3    H174645   2.825   3.237   0.824 -0.7807 -0.3625  1.4077
17718TIP3    H274646   2.873   3.331   0.716  1.2408 -2.0809  0.7309
17719TIP3   OH274647   1.512   0.463   6.682  0.3024  0.4292  0.5116
17719TIP3    H174648   1.553   0.546   6.658 -2.7795  2.0496  0.3066
17719TIP3    H274649   1.568   0.427   6.751  0.4835  3.9674  2.4353
17720TIP3   OH274650   3.907   1.227  14.240  0.1782 -0.1636 -0.1926
17720TIP3    H174651   3.949   1.205  14.324  0.7093  0.8969 -0.1597
17720TIP3    H274652   3.975   1.213  14.175 -0.2368 -0.9889 -0.4626
17721TIP3   OH274653   0.337   5.799   6.042 -0.7955  0.1611 -0.5593
17721TIP3    H174654   0.305   5.737   5.976  0.1317  0.1142 -0.9895
17721TIP3    H274655   0.364   5.743   6.116 -1.9371  0.2212 -0.0734
17722TIP3   OH274656   0.919   1.927  15.481  0.3951 -0.1727  0.2961
17722TIP3    H174657   0.888   2.018  15.488 -0.9530 -0.5729 -0.1879
17722TIP3    H274658   1.005   1.934  15.440  0.2024  0.8796  0.0462
17723TIP3   OH274659   5.837   3.322   3.296 -0.3605  0.0177  0.0363
17723TIP3    H174660   5.832   3.260   3.369  2.7246 -1.4090 -0.7946
17723TIP3    H274661   5.774   3.390   3.318 -0.3774 -0.9271  3.4543
17724TIP3   OH274662   4.179   0.825   3.758  0.6146 -0.3470  0.2264
17724TIP3    H174663   4.259   0.877   3.768 -0.6526  2.1818 -1.7153
17724TIP3    H274664   4.162   0.824   3.664 -2.6749  1.0000  0.6727
17725TIP3   OH274665   1.946   4.417   0.324  0.3672 -0.4473 -0.2667
17725TIP3    H174666   1.855   4.388   0.315 -0.3212  1.1698  1.0024
17725TIP3    H274667   1.949   4.500   0.277  0.7431  0.3013  1.0335
17726TIP3   OH274668   5.304   6.798   1.229 -0.2850  0.3982 -0.7917
17726TIP3    H174669   5.273   6.717   1.189 -1.4574  0.0563  0.6786
17726TIP3    H274670   5.224   6.847   1.248 -0.0120 -0.0986  2.3123
17727TIP3   OH274671   4.881   1.746   6.150 -0.4545  0.6316  0.0215
17727TIP3    H174672   4.896   1.705   6.064  0.7191  0.3873  0.3302
17727TIP3    H274673   4.788   1.729   6.168 -1.0284  1.6794 -1.7057
17728TIP3   OH274674   3.009   1.400  16.995 -0.5117  0.3836  0.2348
17728TIP3    H174675   3.083   1.401  17.056 -0.4574 -0.0526  0.1780
17728TIP3    H274676   2.993   1.492  16.976 -1.3294  0.6089  1.8556
17729TIP3   OH274677   2.845   5.944   5.449 -0.3178 -0.2724 -0.1215
17729TIP3    H174678   2.766   5.891   5.457 -0.6594  0.4010  1.0887
17729TIP3    H274679   2.916   5.885   5.473 -0.6196 -0.4056  0.4475
17730TIP3   OH274680   4.998   6.638   1.808 -0.0458  0.1368 -0.1186
17730TIP3    H174681   5.034   6.554   1.781 -0.5025 -0.8435  2.0974
17730TIP3    H274682   5.017   6.697   1.735  2.6076 -1.2372 -0.6579
17731TIP3   OH274683   2.695   1.167   4.529  0.5634  0.0722  0.1575
17731TIP3    H174684   2.608   1.181   4.491 -0.5445 -0.9816  2.1043
17731TIP3    H274685   2.744   1.245   4.506  0.5198 -1.0086 -4.4866
17732TIP3   OH274686   6.043   3.194   5.339 -0.0129 -0.4848 -0.3927
17732TIP3    H174687   6.129   3.168   5.372  0.1408 -0.5066 -0.8068
17732TIP3    H274688   6.062   3.251   5.265 -0.3433  1.2871  0.8242
17733TIP3   OH274689   3.508   4.036   0.819 -0.0658 -0.3070  0.1632
17733TIP3    H174690   3.467   3.950   0.826 -1.4243  0.3153  0.2071
17733TIP3    H274691   3.462   4.079   0.746  0.6157  0.3683  0.1147
17734TIP3   OH274692   1.068   2.575  16.656 -0.3862  0.2825 -0.6585
17734TIP3    H174693   1.070   2.483  16.682  1.0946  0.5422  0.3154
17734TIP3    H274694   1.060   2.624  16.738  0.8850  1.0509 -0.9532
17735TIP3   OH274695   0.041   0.516  14.329  0.7647 -0.6740  0.0868
17735TIP3    H174696   0.123   0.467  14.318 -0.0405 -2.1656  0.4425
17735TIP3    H274697  -0.009   0.465  14.393 -0.6991 -0.1512 -0.5949
17736TIP3   OH274698   2.065   5.703   2.204  0.3327  0.0026  0.2028
17736TIP3    H174699   2.025   5.666   2.283  0.4433  0.6858  0.5963
17736TIP3    H274700   2.141   5.648   2.187  0.3824 -0.0738  0.6593
17737TIP3   OH274701   6.395   2.307   2.873  0.1093 -0.4062  0.3862
17737TIP3    H174702   6.469   2.251   2.847  0.3113  0.0992 -0.1472
17737TIP3    H274703   6.433   2.394   2.883 -0.2311 -0.3349  1.0878
17738TIP3   OH274704   2.195   5.516  15.642 -0.6032 -0.0469  0.5393
17738TIP3    H174705   2.273   5.489  15.594  0.9609  2.8717  1.2307
17738TIP3    H274706   2.161   5.435  15.679  2.4251 -1.3873  0.6961
17739TIP3   OH274707   0.766   2.286   2.389  0.4166  0.5214 -0.3858
17739TIP3    H174708   0.677   2.254   2.382  1.0101 -1.1726 -0.6783
17739TIP3    H274709   0.800   2.248   2.470  0.0990  3.3075  1.1929
17740TIP3   OH274710   0.184   1.501   0.057  0.5288  0.3479 -0.2202
17740TIP3    H174711   0.258   1.455   0.018  1.8307  1.3416  1.0094
17740TIP3    H274712   0.109   1.475   0.002  1.3014 -2.5371 -0.0982
17741TIP3   OH274713   3.865   6.565   6.060 -0.0098  0.3393  0.5084
17741TIP3    H174714   3.834   6.475   6.075 -0.2709  0.1072 -1.2131
17741TIP3    H274715   3.786   6.618   6.058 -0.2006  0.0570 -1.8468
17742TIP3   OH274716   6.727   3.767  16.428  0.0088 -0.6171 -0.1815
17742TIP3    H174717   6.736   3.821  16.349  0.6342 -1.0824 -0.4391
17742TIP3    H274718   6.645   3.795  16.467  1.2068  1.9129  0.7487
17743TIP3   OH274719   2.377   4.608  13.017 -0.6370 -0.5655  0.5008
17743TIP3    H174720   2.332   4.620  13.100 -1.1053  0.4261  0.1212
17743TIP3    H274721   2.314   4.638  12.951  0.1426 -0.2540 -0.1243
17744TIP3   OH274722   2.601   2.186   1.490  0.0622  0.2667  0.2383
17744TIP3    H174723   2.545   2.128   1.439 -2.0990  2.2623  0.1239
17744TIP3    H274724   2.683   2.139   1.499 -0.3348 -1.2916 -2.8146
17745TIP3   OH274725   4.167   3.104   3.609  0.6955  0.1149 -0.4423
17745TIP3    H174726   4.199   3.152   3.533  0.7117  1.1002  0.1700
17745TIP3    H274727   4.086   3.062   3.579  2.1603 -1.9614 -1.8602
17746TIP3   OH274728   3.796   0.434  16.620  0.3137 -0.8003 -0.1878
17746TIP3    H174729   3.749   0.501  16.571 -0.0976  0.2710  1.6032
17746TIP3    H274730   3.830   0.375  16.553 -2.1982 -0.7262 -1.6406
17747TIP3   OH274731   1.151   6.147  16.075  0.0422 -0.2445 -0.3048
17747TIP3    H174732   1.178   6.064  16.115 -0.7468  0.4933  1.9135
17747TIP3    H274733   1.094   6.188  16.140 -2.0097  0.7233 -2.5805
17748TIP3   OH274734   5.541   6.635   0.449  0.6730 -0.3565 -0.4916
17748TIP3    H174735   5.631   6.667   0.443 -0.1359  2.3048  0.2420
17748TIP3    H274736   5.494   6.702   0.498 -1.9062 -1.2720 -1.4948
17749TIP3   OH274737   2.326   6.699   3.767 -0.0113  0.1984 -0.3778
17749TIP3    H174738   2.233   6.708   3.745 -0.2294 -2.2339 -0.7003
17749TIP3    H274739   2.327   6.682   3.861 -0.0550 -1.2754 -0.6203
17750TIP3   OH274740   3.576   5.607  15.854 -0.6292 -0.5849 -0.0402
17750TIP3    H174741   3.552   5.620  15.945  0.7656 -0.3651  0.3277
17750TIP3    H274742   3.671   5.596  15.856 -0.5734 -0.5554 -1.4682
17751TIP3   OH274743   1.527   2.543   5.069 -0.1747 -0.3767  0.2128
17751TIP3    H174744   1.509   2.464   5.119  0.9619  0.4552  2.0635
17751TIP3    H274745   1.619   2.534   5.044 -0.3521 -0.1459 -0.5185
17752TIP3   OH274746   5.225   0.494   4.128 -0.1220  0.3937  0.2536
17752TIP3    H174747   5.217   0.404   4.161 -1.8655  0.3837 -0.1075
17752TIP3    H274748   5.235   0.548   4.206  0.7871 -0.0836  0.4823
17753TIP3   OH274749   0.810   3.172   1.273 -0.2799  0.1794 -0.2576
17753TIP3    H174750   0.816   3.261   1.308  1.2579  0.1595 -0.3950
17753TIP3    H274751   0.798   3.183   1.179 -3.2667  0.2209  0.0298
17754TIP3   OH274752   4.333   5.353   1.129 -0.2443 -0.6749 -0.0304
17754TIP3    H174753   4.265   5.418   1.112  1.0070  0.5889 -0.3956
17754TIP3    H274754   4.310   5.279   1.073 -0.6033  0.2519 -1.1428
17755TIP3   OH274755   1.626   4.864  13.480  0.0579 -0.2338  0.3694
17755TIP3    H174756   1.689   4.793  13.473  0.4602  0.1357  0.1867
17755TIP3    H274757   1.679   4.944  13.478 -0.5894  0.3223 -3.8290
17756TIP3   OH274758   3.266   2.262   3.047 -0.0933  0.5048  0.0130
17756TIP3    H174759   3.297   2.353   3.042 -0.4756  0.5554 -2.3483
17756TIP3    H274760   3.344   2.210   3.029 -0.8659  0.6089 -4.8202
17757TIP3   OH274761   2.911   5.235  14.500 -0.3391 -0.0629  0.0814
17757TIP3    H174762   2.875   5.186  14.574  0.4513  0.9534  1.1691
17757TIP3    H274763   2.993   5.190  14.479 -0.9281 -0.8134 -0.7138
17758TIP3   OH274764   0.516   4.943   1.134 -0.2405  0.1338  0.1840
17758TIP3    H174765   0.510   5.033   1.101  1.5078  0.0235 -0.5363
17758TIP3    H274766   0.568   4.897   1.068 -0.7626 -1.3236  0.7457
17759TIP3   OH274767   3.395   3.825   3.590 -0.2087  0.3524 -0.1968
17759TIP3    H174768   3.400   3.883   3.513  0.0431 -0.3011 -0.6790
17759TIP3    H274769   3.310   3.847   3.630  0.6177  2.2920  0.6369
17760TIP3   OH274770   1.285   4.490  14.429  0.4433 -0.2273 -0.1563
17760TIP3    H174771   1.376   4.490  14.399  0.6854  1.4102  0.4451
17760TIP3    H274772   1.279   4.418  14.491  1.5008 -0.0065  0.2185
17761TIP3   OH274773   4.189   2.082   0.026  0.0151 -0.0515  0.1840
17761TIP3    H174774   4.269   2.134   0.028  0.9056 -1.3660  0.2949
17761TIP3    H274775   4.182   2.045   0.114 -1.4481  1.0706  0.5755
17762TIP3   OH274776   0.285   3.813  14.365  0.2281 -0.2381 -0.2436
17762TIP3    H174777   0.291   3.909  14.361  0.7306 -0.2158  0.6102
17762TIP3    H274778   0.332   3.783  14.288  1.0808  0.2002  0.0818
17763TIP3   OH274779   4.579   3.842  14.740 -0.1820  0.5436 -0.4654
17763TIP3    H174780   4.620   3.758  14.718  2.2129  1.2311  0.9811
17763TIP3    H274781   4.531   3.825  14.821 -0.1923  0.4215 -0.4970
17764TIP3   OH274782   1.293   0.967  13.190 -0.0846 -0.2356  0.2425
17764TIP3    H174783   1.279   1.045  13.244  1.3019 -0.1940  0.5823
17764TIP3    H274784   1.207   0.947  13.153 -0.3588  1.8620 -0.4027
17765TIP3   OH274785   5.003   4.024   5.846  0.0659 -0.4174 -0.3355
17765TIP3    H174786   5.028   4.085   5.916 -0.7896 -0.4342  0.0018
17765TIP3    H274787   4.926   3.978   5.882 -0.8047  0.0486 -1.5390
17766TIP3   OH274788   2.889   0.870   3.951  0.4537  0.2779 -0.4556
17766TIP3    H174789   2.819   0.934   3.966  0.3173  0.3592 -1.3802
17766TIP3    H274790   2.895   0.863   3.856  0.7432 -0.7960 -0.3721
17767TIP3   OH274791   5.354   2.902   1.860 -0.1041 -0.1630  0.2203
17767TIP3    H174792   5.315   2.917   1.774 -1.1757 -0.5257  0.6275
17767TIP3    H274793   5.437   2.859   1.841  0.9751  2.1572 -0.7477
17768TIP3   OH274794   6.369   5.516   4.446  0.2416 -0.3634  0.0037
17768TIP3    H174795   6.361   5.513   4.351  1.1646  0.1152 -0.1101
17768TIP3    H274796   6.460   5.490   4.463  0.6972  1.4146  0.5948
17769TIP3   OH274797   6.188   1.161   6.156 -0.1750  0.4264  0.2767
17769TIP3    H174798   6.218   1.168   6.247  1.1207  0.2120 -0.1063
17769TIP3    H274799   6.094   1.143   6.163 -0.3898  1.8168  1.5407
17770TIP3   OH274800   4.731   0.723   6.127 -0.4067  0.5360  0.1446
17770TIP3    H174801   4.765   0.653   6.183  0.0251 -0.1359 -0.9253
17770TIP3    H274802   4.672   0.772   6.183 -0.4873 -0.5096  1.0057
17771TIP3   OH274803   6.474   0.014   0.853 -0.0064 -0.9253  0.5178
17771TIP3    H174804   6.402   0.077   0.840  0.7693 -0.4083 -1.6771
17771TIP3    H274805   6.506   0.032   0.941 -0.5298  1.0284  0.3538
17772TIP3   OH274806   2.865   3.798   0.407 -0.0972 -0.1599 -0.8529
17772TIP3    H174807   2.958   3.776   0.401 -0.0466  0.1402 -1.1843
17772TIP3    H274808   2.846   3.847   0.327 -0.0748  1.4784  0.0922
17773TIP3   OH274809   4.332   1.124  13.145 -0.1662 -0.1545  0.1323
17773TIP3    H174810   4.262   1.118  13.209 -2.9051 -0.4388 -2.6458
17773TIP3    H274811   4.337   1.036  13.107 -0.0559  0.4673 -1.3663
17774TIP3   OH274812   3.194   5.957  11.098  0.4766  0.3282 -0.8027
17774TIP3    H174813   3.271   6.008  11.123  1.3375 -1.0501 -0.6057
17774TIP3    H274814   3.217   5.866  11.117 -1.7807 -0.0021  0.7984
17775TIP3   OH274815   2.105   2.943   5.048 -0.2247 -0.1097 -1.0064
17775TIP3    H174816   2.102   2.856   5.088 -1.0296 -1.3103 -3.4892
17775TIP3    H274817   2.025   2.986   5.079  0.5671  0.1335  0.8701
17776TIP3   OH274818   1.405   0.111   1.687  0.1384  0.0451 -0.1370
17776TIP3    H174819   1.314   0.088   1.673  0.6410 -2.3727  0.1458
17776TIP3    H274820   1.416   0.114   1.782  0.1145  1.5737 -0.1535
17777TIP3   OH274821   2.151   4.741  11.901  0.2598 -0.1947  0.0840
17777TIP3    H174822   2.111   4.677  11.842 -2.1078  2.0006 -0.9062
17777TIP3    H274823   2.217   4.785  11.849 -1.0590  0.9747 -0.6869
17778TIP3   OH274824   0.541   0.371  16.641 -0.2170  0.7708 -0.1848
17778TIP3    H174825   0.531   0.314  16.565 -1.9935 -1.3219  1.4742
17778TIP3    H274826   0.475   0.439  16.629 -1.1215 -0.0735 -0.1091
17779TIP3   OH274827   2.914   2.018  11.409 -0.1150  0.1407 -0.4429
17779TIP3    H174828   2.933   1.941  11.356 -1.0327  0.6285 -1.5402
17779TIP3    H274829   2.997   2.066  11.413 -0.2710  0.6704 -2.4672
17780TIP3   OH274830   2.922   5.345   1.015 -0.6053  0.4158 -0.0813
17780TIP3    H174831   3.003   5.327   0.968  0.1333  2.2875  0.3601
17780TIP3    H274832   2.854   5.346   0.948 -0.0225  0.2445 -0.6780
17781TIP3   OH274833   4.530   5.320  14.465  0.4277 -0.0435 -0.3509
17781TIP3    H174834   4.512   5.367  14.383  0.8312 -1.1368 -1.0915
17781TIP3    H274835   4.614   5.277  14.450  1.0096  0.5556  1.0360
17782TIP3   OH274836   4.975   6.034   1.870 -0.3987 -0.1863 -0.1351
17782TIP3    H174837   5.065   6.017   1.844 -0.3163  1.7774 -1.3204
17782TIP3    H274838   4.981   6.110   1.928 -1.3375  0.3585 -0.7369
17783TIP3   OH274839   3.830   5.286  13.112 -0.4924 -0.4932 -0.3805
17783TIP3    H174840   3.782   5.206  13.135 -0.9280 -0.4729 -1.2070
17783TIP3    H274841   3.781   5.357  13.152 -0.3527 -0.5946 -0.0227
17784TIP3   OH274842   0.234   3.826   1.937 -0.2008 -0.3082 -0.2385
17784TIP3    H174843   0.313   3.791   1.978 -0.7888  0.0837  1.2760
17784TIP3    H274844   0.200   3.890   2.000 -1.2736  0.1395 -1.2320
17785TIP3   OH274845   6.003   2.317  16.254  0.2589 -0.2516 -0.1165
17785TIP3    H174846   6.032   2.229  16.230  0.6513 -0.8353  2.2432
17785TIP3    H274847   5.962   2.306  16.340 -1.2437  1.6166 -0.5246
17786TIP3   OH274848   3.004   0.851   0.991 -0.3267  0.3744  0.0299
17786TIP3    H174849   3.001   0.931   0.939  0.0347 -0.3433 -1.1278
17786TIP3    H274850   2.951   0.870   1.069 -1.4194  1.2473 -0.9073
17787TIP3   OH274851   3.598   4.190  11.322  0.2792 -0.0877 -0.2177
17787TIP3    H174852   3.634   4.227  11.402  0.6969 -1.2850  0.1692
17787TIP3    H274853   3.667   4.204  11.256 -0.0192  0.7952 -0.3560
17788TIP3   OH274854   3.189   5.859   2.600  0.5620 -0.3221 -0.2856
17788TIP3    H174855   3.109   5.816   2.571  0.2401 -0.1723  0.3510
17788TIP3    H274856   3.196   5.938   2.547 -0.0612 -0.0050  0.1025
17789TIP3   OH274857   1.414   2.632  14.986  0.4792  0.0927  0.3932
17789TIP3    H174858   1.507   2.614  14.999  0.9920  0.9718 -1.6549
17789TIP3    H274859   1.369   2.554  15.020  2.0594 -1.1048 -0.1423
17790TIP3   OH274860   3.290   0.160   2.591  0.5393  0.6064 -0.3201
17790TIP3    H174861   3.202   0.154   2.553 -0.9101  1.5358  2.5859
17790TIP3    H274862   3.325   0.071   2.583  0.1991  0.6374 -3.2504
17791TIP3   OH274863   0.164   6.375  14.354  0.1904  0.0595 -0.3731
17791TIP3    H174864   0.175   6.302  14.294 -1.6332  0.1610 -0.9045
17791TIP3    H274865   0.084   6.354  14.403  1.2192  0.3297  1.5325
17792TIP3   OH274866   0.522   2.667  16.298  0.2744  0.8231 -0.2481
17792TIP3    H174867   0.605   2.703  16.268  0.7627  0.1734  0.2994
17792TIP3    H274868   0.545   2.608  16.370 -0.7227  1.2160  0.4328
17793TIP3   OH274869   5.458   5.931   2.610  0.3668  0.4431  0.5713
17793TIP3    H174870   5.513   5.997   2.652 -0.8250  1.8157  0.0522
17793TIP3    H274871   5.373   5.974   2.598  0.5485  0.1401 -3.0964
17794TIP3   OH274872   4.220   3.647  14.770  0.1300 -0.0655 -0.0436
17794TIP3    H174873   4.145   3.588  14.772  0.0057  0.0067 -1.7233
17794TIP3    H274874   4.224   3.684  14.859 -0.6163 -1.5378  0.6257
17795TIP3   OH274875   3.046   1.462  12.141  0.5677  0.0798  0.7262
17795TIP3    H174876   3.050   1.390  12.078  0.7025  1.0080 -0.3522
17795TIP3    H274877   2.978   1.436  12.203 -1.2985  0.1930 -1.1558
17796TIP3   OH274878   2.080   6.443   4.529  0.3427 -0.0862  0.2019
17796TIP3    H174879   2.008   6.391   4.491  1.0419  1.3525 -3.5245
17796TIP3    H274880   2.054   6.534   4.515  2.6531  0.4806 -0.9307
17797TIP3   OH274881   6.060   4.089  14.624 -0.0443  0.2371  0.3364
17797TIP3    H174882   6.060   4.014  14.564 -3.5969  0.4027 -0.1086
17797TIP3    H274883   5.982   4.139  14.599  1.2761  3.2234  1.7142
17798TIP3   OH274884   2.390   4.293   1.420 -0.5798  0.0603  0.0249
17798TIP3    H174885   2.298   4.306   1.399 -0.5153  1.2378  0.4030
17798TIP3    H274886   2.437   4.311   1.339 -0.7461 -1.9102 -0.5548
17799TIP3   OH274887   6.387   3.468   3.243 -0.1100  0.3797 -0.3085
17799TIP3    H174888   6.326   3.420   3.298 -0.4255 -0.0921 -1.0435
17799TIP3    H274889   6.362   3.560   3.253  1.0141  0.5105  1.7379
17800TIP3   OH274890   4.778   5.603  11.933 -0.3406  0.5170 -0.5565
17800TIP3    H174891   4.776   5.584  12.026 -2.7445  2.5338 -0.0874
17800TIP3    H274892   4.734   5.528  11.892  1.0000 -0.5207 -0.1722
17801TIP3   OH274893   1.129   3.237  14.756  0.3769 -0.2431 -0.1753
17801TIP3    H174894   1.103   3.326  14.780 -0.1823 -0.8754  1.6837
17801TIP3    H274895   1.224   3.242  14.745  0.1441  0.9965 -2.1533
17802TIP3   OH274896   4.824   5.801   5.337  0.6688 -0.8641 -0.2487
17802TIP3    H174897   4.730   5.806   5.320  0.3836 -1.3606  1.0590
17802TIP3    H274898   4.833   5.731   5.402  1.4913  1.4317  2.3355
17803TIP3   OH274899   3.723   4.065  14.417 -0.2707  0.3924  0.3830
17803TIP3    H174900   3.689   3.982  14.386  0.8313 -0.6520  1.8157
17803TIP3    H274901   3.742   4.114  14.337  1.5944 -1.8082 -0.6482
17804TIP3   OH274902   5.823   5.523  16.113  0.3061  0.0157 -0.0522
17804TIP3    H174903   5.876   5.458  16.160  0.6537  1.5830  1.8792
17804TIP3    H274904   5.734   5.490  16.121  0.4000  0.0205  1.4509
17805TIP3   OH274905   4.358   5.914  16.882  0.2428 -0.5447  0.0635
17805TIP3    H174906   4.283   5.874  16.927  0.1960 -1.4856 -0.8066
17805TIP3    H274907   4.401   5.967  16.949 -0.9314 -0.3566  0.7001
17806TIP3   OH274908   2.831   0.591   2.777 -0.0844 -0.3571 -0.0206
17806TIP3    H174909   2.783   0.538   2.714  0.4009  0.8676 -1.5091
17806TIP3    H274910   2.835   0.538   2.856 -1.6552 -1.5172 -0.6715
17807TIP3   OH274911   5.045   5.659  14.383  0.1616  0.4641 -0.4812
17807TIP3    H174912   5.131   5.697  14.402  0.2084  0.3393 -0.4411
17807TIP3    H274913   5.037   5.586  14.444  0.7127 -0.5279 -1.5728
17808TIP3   OH274914   0.857   5.936  11.832  0.6853  0.7066 -0.4851
17808TIP3    H174915   0.856   6.030  11.811 -0.4403  0.6817 -0.6080
17808TIP3    H274916   0.789   5.899  11.775  0.7670 -0.1000 -0.0601
17809TIP3   OH274917   6.380   0.859  13.838 -0.0996  0.1474  0.8123
17809TIP3    H174918   6.434   0.812  13.901  0.5654 -0.1421  0.0557
17809TIP3    H274919   6.442   0.887  13.770 -0.6295  1.3161  0.7819
17810TIP3   OH274920   3.177   5.469  11.873 -0.5204  0.2533  0.4038
17810TIP3    H174921   3.212   5.518  11.799 -0.5863 -0.6074 -0.2154
17810TIP3    H274922   3.217   5.509  11.950  0.3545  0.4999 -0.1684
17811TIP3   OH274923   0.568   2.106  15.585 -0.4646  0.0449 -0.1214
17811TIP3    H174924   0.564   2.168  15.512 -0.1853 -0.0136 -0.1895
17811TIP3    H274925   0.492   2.127  15.639 -0.5447  0.2411 -0.3087
17812TIP3   OH274926   2.409   3.230  15.003  0.4246 -0.8410 -0.2343
17812TIP3    H174927   2.343   3.177  14.959  1.2081 -3.5091  1.5185
17812TIP3    H274928   2.465   3.263  14.933 -2.4071  1.1856 -1.7306
17813TIP3   OH274929   1.652   3.417   3.283 -0.0104 -0.1633 -0.5531
17813TIP3    H174930   1.657   3.481   3.211  0.0702 -1.0941 -1.3990
17813TIP3    H274931   1.628   3.335   3.240 -0.8231 -0.5584  0.6132
17814TIP3   OH274932   6.129   5.254  11.720  0.3235 -0.1348 -0.4507
17814TIP3    H174933   6.224   5.249  11.712  0.2899 -0.9216 -0.4222
17814TIP3    H274934   6.097   5.171  11.684 -0.2789 -0.3616  0.5446
17815TIP3   OH274935   0.913   0.568  13.521  0.3163  0.3331 -0.1243
17815TIP3    H174936   0.844   0.502  13.518 -0.9317  1.3738  2.3257
17815TIP3    H274937   0.913   0.598  13.612  1.9872  2.5004 -0.7459
17816TIP3   OH274938   1.030   5.553  16.825 -0.2028 -0.5540 -0.0924
17816TIP3    H174939   1.110   5.547  16.772 -0.1679  0.8126 -0.2308
17816TIP3    H274940   0.972   5.486  16.787  0.4220 -0.7298 -0.7766
17817TIP3   OH274941   0.949   0.512  11.958 -0.0889 -0.1583 -0.2827
17817TIP3    H174942   0.955   0.596  12.003  0.0008 -0.7064  0.7674
17817TIP3    H274943   0.860   0.509  11.923 -1.0445 -0.7353  2.0119
17818TIP3   OH274944   1.477   1.678  15.367 -0.4077  0.3946  0.9294
17818TIP3    H174945   1.408   1.629  15.321  1.4152 -1.8018  0.3238
17818TIP3    H274946   1.431   1.726  15.435 -2.6109 -0.4890  0.1675
17819TIP3   OH274947   4.947   1.057   5.438 -0.0083  0.6864  0.8009
17819TIP3    H174948   4.940   1.143   5.480 -1.9237  0.4768  0.9832
17819TIP3    H274949   4.917   0.995   5.504 -1.8855  0.2311 -0.3876
17820TIP3   OH274950   3.254   3.511  11.908  0.0489 -0.1082 -0.6052
17820TIP3    H174951   3.214   3.596  11.887  0.7511  1.1800  2.6591
17820TIP3    H274952   3.336   3.511  11.858 -0.0178  1.1193 -0.7656
17821TIP3   OH274953   1.037   0.719  13.785 -0.4612 -0.1609  0.1053
17821TIP3    H174954   1.055   0.753  13.873 -0.2909 -0.7713  0.3087
17821TIP3    H274955   0.972   0.779  13.749  1.3567  1.6403 -0.3505
17822TIP3   OH274956   1.388   3.852  14.953 -0.4029  0.1938  0.5378
17822TIP3    H174957   1.483   3.868  14.957 -0.1888 -0.7839 -0.2858
17822TIP3    H274958   1.351   3.919  15.011  0.7576  0.8125  0.6157
17823TIP3   OH274959   3.486   2.322   3.709 -0.1010  0.1183 -0.0048
17823TIP3    H174960   3.544   2.252   3.739 -0.5231  0.5124  1.8322
17823TIP3    H274961   3.472   2.302   3.616  0.8452 -1.4721  0.1435
17824TIP3   OH274962   0.838   5.686   1.760  0.0339 -0.1289  0.2075
17824TIP3    H174963   0.788   5.619   1.714 -0.8445 -0.0751  1.0582
17824TIP3    H274964   0.928   5.651   1.763  0.0742 -0.2259 -1.3318
17825TIP3   OH274965   0.051   1.558   1.168 -0.2750  0.0877  0.0568
17825TIP3    H174966   0.017   1.469   1.156 -1.3345  0.5031 -0.0542
17825TIP3    H274967   0.029   1.603   1.087  0.5129  0.3855 -0.0007
17826TIP3   OH274968   0.960   0.230   4.440 -0.4081  0.4792  0.3718
17826TIP3    H174969   1.030   0.200   4.498  0.1023  1.5533  0.3348
17826TIP3    H274970   0.880   0.192   4.477  0.1842 -0.8049  0.3838
17827TIP3   OH274971   2.908   6.476   3.751 -0.0596  0.3004 -0.2977
17827TIP3    H174972   2.818   6.503   3.735 -0.3394 -0.3940  0.0291
17827TIP3    H274973   2.905   6.380   3.746  0.9059  0.3110 -1.5355
17828TIP3   OH274974   6.364   5.739   0.931 -0.0787  0.5646 -0.1590
17828TIP3    H174975   6.448   5.693   0.943 -1.4326 -1.3071  3.9127
17828TIP3    H274976   6.384   5.830   0.952  0.7673 -0.1290  2.4838
17829TIP3   OH274977   5.175   4.813  11.319 -0.0005 -0.1117  0.2124
17829TIP3    H174978   5.225   4.856  11.389 -0.5342  0.5736  0.1760
17829TIP3    H274979   5.128   4.742  11.364 -1.2510  1.0405  0.7734
17830TIP3   OH274980   5.926   2.306   3.807  0.5127 -0.3033 -0.0403
17830TIP3    H174981   5.923   2.215   3.775  1.5893  0.2513 -1.8760
17830TIP3    H274982   6.011   2.338   3.778  0.2562  1.2241  0.8280
17831TIP3   OH274983   1.957   1.990  16.683 -0.5057 -0.6395 -0.4178
17831TIP3    H174984   2.017   2.001  16.610  0.2784 -0.2147  0.2753
17831TIP3    H274985   1.871   2.011  16.646 -0.5145 -2.8956 -1.8595
17832TIP3   OH274986   3.852   1.761   4.817 -0.0779 -0.2305 -0.2355
17832TIP3    H174987   3.783   1.826   4.825 -1.1745 -1.2714 -0.9705
17832TIP3    H274988   3.824   1.704   4.746  1.7479 -0.4515 -0.8314
17833TIP3   OH274989   5.736   4.670   6.059 -0.2652 -0.2453 -0.3602
17833TIP3    H174990   5.768   4.646   6.146 -0.5248  0.0389 -0.1845
17833TIP3    H274991   5.775   4.755   6.041 -4.0192  2.1645  1.6037
17834TIP3   OH274992   0.999   3.952  16.603  0.0333 -0.2734  0.4632
17834TIP3    H174993   1.069   4.004  16.643 -0.3270 -0.8298  1.8800
17834TIP3    H274994   0.957   4.012  16.542  0.0852  0.8946  1.5241
17835TIP3   OH274995   4.429   1.852  16.092  0.0665  0.0935  0.1156
17835TIP3    H174996   4.448   1.854  15.998  0.2157 -0.7698  0.1160
17835TIP3    H274997   4.498   1.904  16.133 -0.0811  0.5912 -0.2611
17836TIP3   OH274998   5.528   5.212   3.839  0.3812 -0.4222 -0.0726
17836TIP3    H174999   5.552   5.293   3.795 -0.0826 -0.7292 -0.9205
17836TIP3    H275000   5.608   5.159   3.839  1.0450  0.5036  1.6273
17837TIP3   OH275001   3.799   5.575  14.046  0.3829  0.0711  0.0986
17837TIP3    H175002   3.827   5.539  14.131 -0.8087  0.3101  0.6246
17837TIP3    H275003   3.705   5.554  14.042 -0.3403  2.8416  0.3075
17838TIP3   OH275004   0.423   3.922   2.570  0.1824  0.5968 -0.3388
17838TIP3    H175005   0.336   3.929   2.609 -0.5767 -1.5853 -1.4490
17838TIP3    H275006   0.423   3.837   2.526  3.1607  0.1788  0.2284
17839TIP3   OH275007   1.869   6.087  12.779  0.4170 -0.0324 -0.0445
17839TIP3    H175008   1.885   6.033  12.702  0.5000 -0.5773  0.3567
17839TIP3    H275009   1.957   6.110  12.810  0.3944  1.2612 -0.8515
17840TIP3   OH275010   5.929   3.366   6.383 -0.1337  0.4284 -0.3335
17840TIP3    H175011   5.923   3.290   6.440  1.0976  2.2418  2.3800
17840TIP3    H275012   5.839   3.398   6.376 -0.5959 -0.9498 -1.1499
17841TIP3   OH275013   6.736   4.338   1.265  0.2169  0.7872  0.5808
17841TIP3    H175014   6.806   4.276   1.243 -0.0665  0.2434  1.1657
17841TIP3    H275015   6.686   4.347   1.183 -0.0194 -0.1382  0.6121
17842TIP3   OH275016   3.021   4.025   1.941  0.0084 -0.3992 -0.3805
17842TIP3    H175017   3.101   3.986   1.907 -0.1212  0.2616 -1.5104
17842TIP3    H275018   3.035   4.120   1.932 -0.7961 -0.2701 -0.3808
17843TIP3   OH275019   1.355   0.545   5.386 -0.0462  0.5103 -0.2151
17843TIP3    H175020   1.401   0.604   5.327 -0.3925  0.8411 -0.1572
17843TIP3    H275021   1.284   0.598   5.423 -0.5508 -0.0204 -0.3976
17844TIP3   OH275022   0.548   4.994  16.500 -0.2742 -0.7169 -0.4262
17844TIP3    H175023   0.505   5.017  16.417 -0.5972 -0.9861 -0.3352
17844TIP3    H275024   0.476   4.983  16.562 -0.2095 -2.8479 -0.6711
17845TIP3   OH275025   0.548   0.184  13.537  0.5428  0.2946  0.3593
17845TIP3    H175026   0.529   0.202  13.629  2.1502  1.1738  0.5647
17845TIP3    H275027   0.519   0.093  13.523 -2.4709  1.0749  0.8777
17846TIP3   OH275028   0.115   4.266   0.772 -0.1724 -0.0635  0.6903
17846TIP3    H175029   0.033   4.296   0.733 -0.8826 -0.3122  1.9721
17846TIP3    H275030   0.179   4.274   0.700 -1.5906 -1.2756 -0.7855
17847TIP3   OH275031   6.450   2.227  14.286 -0.8821 -0.6954 -0.1357
17847TIP3    H175032   6.490   2.216  14.199  0.3313 -2.2718  0.5751
17847TIP3    H275033   6.389   2.154  14.293 -2.8036  0.7887 -0.5604
17848TIP3   OH275034   0.723   1.546   2.369 -0.0276  0.1671  0.1590
17848TIP3    H175035   0.753   1.582   2.285 -0.6571 -0.5455 -0.3895
17848TIP3    H275036   0.632   1.521   2.353 -0.7978  1.7890  1.6248
17849TIP3   OH275037   1.560   0.955   5.659  0.0501 -0.1107 -0.4826
17849TIP3    H175038   1.564   0.863   5.683 -0.2731  0.2304  0.9810
17849TIP3    H275039   1.606   1.001   5.730 -1.2348  0.9812 -0.3084
17850TIP3   OH275040   3.138   3.350  14.034 -0.6044  0.1814 -0.5517
17850TIP3    H175041   3.094   3.392  13.960 -1.4941 -2.5132 -1.6903
17850TIP3    H275042   3.067   3.306  14.082  0.3096 -0.3866  0.3177
17851TIP3   OH275043   2.701   5.421  12.034 -0.2381  0.0065 -0.1600
17851TIP3    H175044   2.762   5.385  11.970  0.9650 -2.1101  2.0409
17851TIP3    H275045   2.741   5.504  12.061  1.7619 -1.3084  1.2029
17852TIP3   OH275046   1.968   0.406  11.467  0.3740  0.0507  0.1533
17852TIP3    H175047   1.948   0.493  11.433  0.6925 -0.0931 -0.4051
17852TIP3    H275048   1.979   0.420  11.562 -0.6290  0.4253  0.2287
17853TIP3   OH275049   3.504   3.886   3.325  0.3076 -0.1188 -0.3190
17853TIP3    H175050   3.473   3.840   3.248  0.5054 -0.3100 -0.2850
17853TIP3    H275051   3.520   3.976   3.295 -1.6496  0.3927 -0.0176
17854TIP3   OH275052   2.435   3.737  12.674 -0.3463 -0.2524  0.0332
17854TIP3    H175053   2.343   3.752  12.695 -0.1328  0.8097  0.2793
17854TIP3    H275054   2.466   3.677  12.741 -1.1036 -1.4411 -0.6424
17855TIP3   OH275055   5.709   5.531  12.639 -0.5682 -0.0661  0.1213
17855TIP3    H175056   5.702   5.452  12.585 -0.3410  0.3012 -0.4616
17855TIP3    H275057   5.741   5.598  12.578  1.8601 -0.1622  1.2026
17856TIP3   OH275058   3.176   5.024   0.270 -0.1229 -0.2892 -0.5390
17856TIP3    H175059   3.105   4.995   0.327 -0.6843 -0.8873 -1.5275
17856TIP3    H275060   3.157   5.115   0.252 -0.7571 -0.4985 -0.9550
17857TIP3   OH275061   2.664   0.527  16.629  0.6709  0.1656  0.0067
17857TIP3    H175062   2.739   0.564  16.675  2.5864 -0.5999 -2.3140
17857TIP3    H275063   2.656   0.438  16.663  1.0004  0.1677  0.0925
17858TIP3   OH275064   0.641   1.107  11.546 -0.3475  0.1799  0.2122
17858TIP3    H175065   0.674   1.030  11.501 -1.1498 -0.6747  1.0560
17858TIP3    H275066   0.633   1.080  11.638 -1.0793  1.1107  0.4402
17859TIP3   OH275067   3.072   3.390   5.870 -0.8348  0.2261  0.4774
17859TIP3    H175068   3.091   3.384   5.963 -1.2131 -1.5939  0.4645
17859TIP3    H275069   2.999   3.330   5.856  1.9534 -3.0259 -1.6938
17860TIP3   OH275070   2.227   1.099   1.339  0.0582 -0.1748  0.0634
17860TIP3    H175071   2.242   1.017   1.385 -0.5068 -0.7494 -0.7403
17860TIP3    H275072   2.159   1.143   1.390  0.0047 -0.4378  0.2231
17861TIP3   OH275073   2.753   3.881   5.689 -0.3411  0.4146 -0.4512
17861TIP3    H175074   2.659   3.897   5.676 -0.5707 -0.3990  0.1410
17861TIP3    H275075   2.795   3.961   5.656 -1.1752  0.3963 -1.6337
17862TIP3   OH275076   3.942   0.104   4.915 -0.7809 -0.1246  0.5291
17862TIP3    H175077   3.853   0.105   4.880 -0.6644  0.8457  0.2455
17862TIP3    H275078   3.933   0.141   5.004 -0.6348  0.1711  0.4223
17863TIP3   OH275079   5.392   0.102  12.355  0.1251 -0.0482  0.2464
17863TIP3    H175080   5.347   0.119  12.272 -0.3676  0.3147  0.5812
17863TIP3    H275081   5.446   0.025  12.337 -0.6886 -0.5474 -0.1552
17864TIP3   OH275082   6.676   5.594   1.832  1.1230 -0.3858  0.0827
17864TIP3    H175083   6.706   5.503   1.832 -1.5491 -1.3693 -1.3655
17864TIP3    H275084   6.615   5.600   1.904  1.4655  0.3579  0.3211
17865TIP3   OH275085   3.609   2.103  14.948  0.3369  0.4477  0.1708
17865TIP3    H175086   3.695   2.119  14.987  1.2218 -0.5555 -1.2601
17865TIP3    H275087   3.622   2.026  14.891 -1.4683  0.3630 -0.1941
17866TIP3   OH275088   3.003   1.091  16.632 -0.0653  0.2013 -0.1807
17866TIP3    H175089   2.992   1.182  16.604  0.0972 -0.6570 -3.5138
17866TIP3    H275090   3.094   1.087  16.662 -0.7990  1.6155  2.5536
17867TIP3   OH275091   6.439   6.621  14.123 -0.4295  0.2663  0.1865
17867TIP3    H175092   6.382   6.571  14.065 -0.8755  0.6475  0.2842
17867TIP3    H275093   6.449   6.566  14.201 -1.4871  0.6152  0.5888
17868TIP3   OH275094   3.885   5.394   0.808  0.1580 -0.0316 -0.3214
17868TIP3    H175095   3.861   5.418   0.898  0.7576  1.1590 -0.4567
17868TIP3    H275096   3.904   5.300   0.812  0.6600  0.1012  0.9027
17869TIP3   OH275097   5.879   0.681  11.547 -0.1108 -0.8979 -0.6540
17869TIP3    H175098   5.945   0.616  11.523 -1.2432 -2.9007  1.1672
17869TIP3    H275099   5.899   0.702  11.638 -1.0871 -0.4000 -0.5408
17870TIP3   OH275100   6.312   4.676   3.842  0.1493 -0.2665  0.2618
17870TIP3    H175101   6.247   4.633   3.897  0.0655 -1.4259 -0.7024
17870TIP3    H275102   6.335   4.611   3.776  0.6173  0.9056 -0.7804
17871TIP3   OH275103   4.934   5.480   0.169 -0.1448 -0.3240  0.8108
17871TIP3    H175104   4.872   5.417   0.133  0.9796 -1.5144  0.8801
17871TIP3    H275105   4.921   5.477   0.263 -1.5122  1.1134  0.7111
17872TIP3   OH275106   1.336   3.031  12.318 -0.8199  0.1322 -0.0475
17872TIP3    H175107   1.336   2.976  12.397  0.4055  1.0728  0.6532
17872TIP3    H275108   1.244   3.052  12.304 -1.0383  0.2508  1.3781
17873TIP3   OH275109   5.950   0.066   0.973  0.4005  0.4202 -0.4732
17873TIP3    H175110   5.887   0.004   0.938  1.0582  0.6412 -2.1204
17873TIP3    H275111   5.921   0.151   0.941 -0.8998  1.1820  2.3268
17874TIP3   OH275112   5.338   5.493   1.545  0.0751 -0.0113  0.4996
17874TIP3    H175113   5.394   5.547   1.491 -0.2869 -0.5946 -0.4918
17874TIP3    H275114   5.257   5.485   1.495 -0.3258 -0.4490  1.1971
17875TIP3   OH275115   3.538   6.250   6.249 -0.3239  0.0445  0.2134
17875TIP3    H175116   3.570   6.333   6.286 -0.6769  0.0355  0.5490
17875TIP3    H275117   3.613   6.216   6.200  0.7193 -0.7009  2.1911
17876TIP3   OH275118   5.511   2.628   2.359 -0.1965  0.2850 -0.3503
17876TIP3    H175119   5.604   2.641   2.344  0.0029  2.0291  1.8609
17876TIP3    H275120   5.470   2.706   2.322 -0.5763  0.3739  0.2395
17877TIP3   OH275121   0.346   3.876   4.010 -0.0000  0.2136  0.3596
17877TIP3    H175122   0.340   3.968   4.034  0.1845 -0.5285  3.8794
17877TIP3    H275123   0.259   3.854   3.977 -0.9265  1.1084  2.0525
17878TIP3   OH275124   4.168   0.447  16.921 -0.2268  0.3562 -0.1875
17878TIP3    H175125   4.110   0.455  16.845 -0.0360  0.5971 -0.3099
17878TIP3    H275126   4.253   0.424  16.884 -0.7405 -2.3619  0.1503
17879TIP3   OH275127   4.424   4.181   0.877  0.2658 -0.3083 -0.2114
17879TIP3    H175128   4.389   4.123   0.945 -0.7259 -1.0492 -1.3193
17879TIP3    H275129   4.354   4.246   0.863 -1.0224 -2.1122 -2.8187
17880TIP3   OH275130   1.541   1.293   4.137 -0.0959 -0.2515 -0.6516
17880TIP3    H175131   1.593   1.322   4.062  0.7656  1.6431  0.5802
17880TIP3    H275132   1.571   1.349   4.209 -0.5268 -2.3282  1.2323
17881TIP3   OH275133   4.203   4.344  17.008 -0.6185 -0.0151  0.0429
17881TIP3    H175134   4.117   4.321  16.971 -0.4864  0.3628 -0.5104
17881TIP3    H275135   4.206   4.439  17.007 -0.0124 -0.0268 -0.3843
17882TIP3   OH275136   5.091   5.424  16.475  1.0125 -0.3303  0.0573
17882TIP3    H175137   5.116   5.332  16.470  2.0454  0.0012 -1.1171
17882TIP3    H275138   5.131   5.455  16.556  1.9286 -0.5429 -0.3065
17883TIP3   OH275139   3.485   3.567  12.502  0.0261  0.4265  0.1985
17883TIP3    H175140   3.562   3.609  12.462 -0.2925  0.3983 -0.4495
17883TIP3    H275141   3.482   3.604  12.591  0.6176  0.6483  0.1371
17884TIP3   OH275142   0.352   4.824  13.451 -0.1865 -0.0069  0.5827
17884TIP3    H175143   0.332   4.915  13.433  0.3390 -0.0426 -0.2204
17884TIP3    H275144   0.444   4.814  13.427 -0.5698 -1.0418 -0.5521
17885TIP3   OH275145   4.327   6.418  15.629  0.5189  0.2137 -0.2040
17885TIP3    H175146   4.355   6.360  15.700  1.1221 -0.6703 -1.1230
17885TIP3    H275147   4.236   6.440  15.650 -0.2299 -2.2455 -0.5060
17886TIP3   OH275148   3.267   1.523  15.547 -0.0150 -0.0637 -0.3534
17886TIP3    H175149   3.231   1.449  15.499  1.2315 -2.0426  1.5778
17886TIP3    H275150   3.355   1.534  15.512  0.2346 -0.3107  0.1785
17887TIP3   OH275151   1.245   0.457   2.223 -0.5401  0.2746  0.6133
17887TIP3    H175152   1.177   0.408   2.269  0.2015 -0.2011  1.2230
17887TIP3    H275153   1.270   0.527   2.284  0.1799 -0.1281  0.7904
17888TIP3   OH275154   2.552   0.716  11.800 -0.2561 -0.8160 -0.1517
17888TIP3    H175155   2.567   0.700  11.707  1.3509 -2.1070  0.2886
17888TIP3    H275156   2.639   0.734  11.835 -1.0137  1.1953  0.8623
17889TIP3   OH275157   2.116   5.308   1.096  0.1665  0.4079  0.2798
17889TIP3    H175158   2.071   5.244   1.151 -2.6003  0.1437 -2.0847
17889TIP3    H275159   2.189   5.259   1.058 -0.7016 -0.7825  0.0849
17890TIP3   OH275160   3.907   6.228  16.724 -0.1434  0.0354 -0.1106
17890TIP3    H175161   3.823   6.269  16.706 -0.0624  0.5396  0.6387
17890TIP3    H275162   3.941   6.273  16.802  0.9084 -0.0197 -0.5127
17891TIP3   OH275163   5.204   4.954  15.948  0.0699  0.1563  0.0400
17891TIP3    H175164   5.171   4.927  15.862  1.7234  0.7948 -0.8242
17891TIP3    H275165   5.198   4.875  16.001 -0.0431 -0.5215 -0.9472
17892TIP3   OH275166   6.164   4.971  14.866  0.2712  0.7169 -0.2020
17892TIP3    H175167   6.247   4.929  14.891 -0.5253 -0.5487  0.4097
17892TIP3    H275168   6.191   5.052  14.822  1.8573 -0.2662 -1.1472
17893TIP3   OH275169   3.481   0.306  12.652  0.1084 -0.2588  0.0022
17893TIP3    H175170   3.486   0.373  12.584 -0.1717  0.7699  0.9616
17893TIP3    H275171   3.393   0.269  12.643 -1.2128  2.1227  1.7732
17894TIP3   OH275172   3.114   3.963  14.095 -0.8329 -0.1265  0.9065
17894TIP3    H175173   3.172   4.023  14.048 -1.4139  0.3552  0.7841
17894TIP3    H275174   3.027   3.979  14.057 -0.8829 -1.5988  0.3426
17895TIP3   OH275175   3.374   6.055  14.357  0.1857  0.1886 -0.7558
17895TIP3    H175176   3.403   6.029  14.445 -1.4540 -0.5257 -0.3886
17895TIP3    H275177   3.450   6.100  14.319  1.7877 -1.6654  0.0748
17896TIP3   OH275178   5.143   4.674  12.494  0.4644  0.6247  0.6397
17896TIP3    H175179   5.153   4.671  12.399  1.6998 -2.0207  0.7606
17896TIP3    H275180   5.073   4.612  12.513  1.3465 -0.1350  1.5172
17897TIP3   OH275181   4.790   3.664   5.696  0.9788 -0.5107  0.3872
17897TIP3    H175182   4.883   3.679   5.682  1.0384 -0.0134  1.2459
17897TIP3    H275183   4.783   3.571   5.719  1.1914 -0.6701 -0.1726
17898TIP3   OH275184   0.383   2.716  16.594  0.2988 -0.2803 -0.2518
17898TIP3    H175185   0.376   2.621  16.596 -2.1894 -0.2100 -1.9084
17898TIP3    H275186   0.431   2.735  16.514  0.9980 -0.1289  0.1962
17899TIP3   OH275187   5.087   5.039   5.904 -0.6173  0.8328 -0.5462
17899TIP3    H175188   5.132   4.977   5.962 -1.6955 -1.0279 -1.6033
17899TIP3    H275189   5.150   5.058   5.835 -0.0680  1.4366  0.0990
17900TIP3   OH275190   6.334   1.730   4.765  0.6228 -0.2218 -0.1706
17900TIP3    H175191   6.379   1.647   4.779  1.5481  0.3383  0.2195
17900TIP3    H275192   6.261   1.729   4.827  1.3223 -0.2354  0.6630
17901TIP3   OH275193   2.777   1.172   6.046  0.2748 -0.2302  0.6683
17901TIP3    H175194   2.834   1.106   6.006  0.5251  0.4654 -0.1428
17901TIP3    H275195   2.763   1.140   6.136  0.3753 -1.3827  0.2870
17902TIP3   OH275196   4.199   2.294  10.865 -0.1902  0.3917 -0.5603
17902TIP3    H175197   4.110   2.264  10.881 -0.5244  1.5945 -0.0616
17902TIP3    H275198   4.252   2.214  10.867 -1.0910 -0.2053  0.3208
17903TIP3   OH275199   5.397   1.696  15.021  1.0579 -0.0291 -0.3950
17903TIP3    H175200   5.322   1.709  14.964  1.2768 -2.0809 -1.2258
17903TIP3    H275201   5.360   1.683  15.108  0.4614 -0.6565 -0.7339
17904TIP3   OH275202   0.645   1.294   4.350 -0.1960 -0.0983  0.1366
17904TIP3    H175203   0.688   1.311   4.266 -0.2250 -1.0196 -0.0757
17904TIP3    H275204   0.629   1.380   4.387  3.1704  0.3431  0.9237
17905TIP3   OH275205   4.096   6.416  13.185 -0.0250 -0.1007  0.2540
17905TIP3    H175206   4.111   6.322  13.173  0.5865 -0.1186  1.1033
17905TIP3    H275207   4.003   6.428  13.167  0.1151 -0.6823 -0.9530
17906TIP3   OH275208   2.948   2.541   3.357  0.1516  0.2443 -0.6101
17906TIP3    H175209   2.905   2.551   3.442 -0.1031  1.2204 -0.8456
17906TIP3    H275210   2.986   2.453   3.360  0.1461  0.2604  0.5112
17907TIP3   OH275211   6.363   4.849  13.807 -0.2705  0.0508 -0.4443
17907TIP3    H175212   6.318   4.789  13.866 -1.0108  1.3890  0.3946
17907TIP3    H275213   6.436   4.798  13.771 -0.2565 -1.0190  1.0330
17908TIP3   OH275214   6.019   4.126   1.385 -0.0878 -0.3847  0.3697
17908TIP3    H175215   6.049   4.140   1.296 -1.4487 -0.2843 -0.0987
17908TIP3    H275216   6.072   4.054   1.418  0.4252 -0.4216 -0.5160
17909TIP3   OH275217   4.931   2.339   1.571  0.1782 -0.1191 -0.1628
17909TIP3    H175218   4.964   2.333   1.482  2.0248  1.2711  0.3673
17909TIP3    H275219   4.845   2.380   1.562  0.4245  0.1747 -1.3028
17910TIP3   OH275220   3.977   5.470  13.335 -0.1473 -0.2512 -0.1935
17910TIP3    H175221   3.924   5.492  13.258 -0.0790 -1.4036 -0.5977
17910TIP3    H275222   3.932   5.395  13.373  0.5686 -0.5233  0.1198
17911TIP3   OH275223   6.825   0.785  14.334 -0.1095  0.4098  0.7620
17911TIP3    H175224   6.782   0.800  14.419 -2.1557 -2.2273  0.3183
17911TIP3    H275225   6.842   0.691  14.332 -0.4080  0.3409 -1.8901
17912TIP3   OH275226   2.407   2.705  16.644 -0.1235  0.1281 -0.5403
17912TIP3    H175227   2.455   2.638  16.692 -0.4995  0.5809  0.4897
17912TIP3    H275228   2.320   2.705  16.682 -1.4494 -1.6039 -3.2462
17913TIP3   OH275229   3.230   4.663  13.127 -0.2060 -0.1348 -0.4453
17913TIP3    H175230   3.169   4.633  13.195 -0.1345 -0.0684 -0.3531
17913TIP3    H275231   3.271   4.741  13.164  0.1401 -0.3408 -0.3966
17914TIP3   OH275232   2.833   5.916   1.425  0.9705  0.8775  0.3602
17914TIP3    H175233   2.788   5.965   1.493  0.3368 -0.8454  1.2456
17914TIP3    H275234   2.878   5.846   1.472 -1.0484 -1.5497 -1.0496
17915TIP3   OH275235   4.250   5.740  11.118 -0.1795 -0.2473  0.3433
17915TIP3    H175236   4.165   5.700  11.135 -0.3745 -0.4299 -0.9887
17915TIP3    H275237   4.234   5.834  11.121 -0.7202 -0.2658 -1.1285
17916TIP3   OH275238   6.269   3.322   2.014 -0.2235 -0.5755  0.2759
17916TIP3    H175239   6.338   3.255   2.006 -0.1553 -0.6911  1.5914
17916TIP3    H275240   6.195   3.275   2.053  0.3021  0.3784  2.5909
17917TIP3   OH275241   2.954   1.774  13.016 -0.3486  0.1763 -0.1502
17917TIP3    H175242   3.026   1.731  12.969 -0.5618 -0.1968 -0.1438
17917TIP3    H275243   2.972   1.757  13.108 -0.9407 -0.7309 -0.1906
17918TIP3   OH275244   1.701   0.500  12.963  0.3760 -0.0509 -0.1941
17918TIP3    H175245   1.684   0.580  13.012 -1.4536 -1.0533  0.9059
17918TIP3    H275246   1.741   0.441  13.026 -2.5727 -1.5784  0.4394
17919TIP3   OH275247   2.214   1.071  14.804 -0.4551 -0.1956 -0.3716
17919TIP3    H175248   2.232   1.032  14.889  0.1190 -1.2175 -0.9411
17919TIP3    H275249   2.139   1.020  14.771  0.8687 -1.4773 -1.5099
17920TIP3   OH275250   1.552   5.128  15.020 -0.0329 -0.1683  0.0387
17920TIP3    H175251   1.501   5.142  14.941 -0.9085  3.3685  1.0542
17920TIP3    H275252   1.486   5.117  15.089  0.6707 -0.2970  0.7051
17921TIP3   OH275253   4.186   0.614   4.688 -0.1628  0.7324  0.0451
17921TIP3    H175254   4.247   0.631   4.760 -1.0254 -0.9819  1.2530
17921TIP3    H275255   4.109   0.667   4.708 -0.8136 -0.5163  1.0088
17922TIP3   OH275256   5.978   4.165   3.451  0.1966  0.5607  0.0449
17922TIP3    H175257   5.974   4.260   3.442  2.6490  0.5836 -2.2864
17922TIP3    H275258   6.072   4.145   3.446 -0.3220 -2.0200 -0.6753
17923TIP3   OH275259   1.943   2.854  14.703  0.2142  0.4871 -0.7890
17923TIP3    H175260   1.900   2.939  14.711  0.3627  0.6065 -1.2218
17923TIP3    H275261   1.872   2.791  14.697  0.1028  0.5856 -0.4939
17924TIP3   OH275262   5.427   5.748  11.169 -0.2912  0.3365 -0.2937
17924TIP3    H175263   5.392   5.749  11.080 -1.7760  1.1051  0.2602
17924TIP3    H275264   5.522   5.760  11.158 -0.6604  2.4790 -1.6987
17925TIP3   OH275265   2.743   1.349  14.510  0.4788  0.2286  0.1466
17925TIP3    H175266   2.811   1.414  14.530 -0.0458  1.1058 -0.8185
17925TIP3    H275267   2.707   1.378  14.426 -1.7811  0.3769  1.1098
17926TIP3   OH275268   3.364   6.385  11.437  0.4288  0.4630 -0.3065
17926TIP3    H175269   3.331   6.443  11.369 -0.6925 -0.9722 -1.0400
17926TIP3    H275270   3.308   6.403  11.513  0.3493  0.6197 -0.3999
17927TIP3   OH275271   0.252   2.924  14.323 -0.3076  0.0950  0.1022
17927TIP3    H175272   0.280   2.909  14.413  0.1169  0.7705  0.0906
17927TIP3    H275273   0.157   2.939  14.329 -0.0484  1.6784  0.6481
17928TIP3   OH275274   2.838   4.012   1.754 -0.3096  0.3567  0.2211
17928TIP3    H175275   2.929   4.005   1.783 -0.3004  0.9239  0.3423
17928TIP3    H275276   2.813   4.102   1.775 -0.3728  0.7221 -1.3156
17929TIP3   OH275277   2.010   5.278  14.593 -0.2280  0.0740  0.0644
17929TIP3    H175278   1.957   5.346  14.551 -0.4716 -0.0176  0.2210
17929TIP3    H275279   2.062   5.325  14.659 -1.2822 -0.0511  1.0122
17930TIP3   OH275280   4.486   3.373  15.259  0.6129 -0.3146 -0.5377
17930TIP3    H175281   4.461   3.287  15.224 -0.7226  0.1493 -0.7587
17930TIP3    H275282   4.538   3.353  15.337 -0.5755 -1.3337  0.0278
17931TIP3   OH275283   1.933   4.513  11.580  0.0222 -0.5485  0.0739
17931TIP3    H175284   1.860   4.575  11.572 -0.1303 -0.9833 -3.0653
17931TIP3    H275285   1.969   4.507  11.491  4.8643  0.7325  1.6606
17932TIP3   OH275286   3.392   4.958  14.294  0.3515  0.1548 -0.0224
17932TIP3    H175287   3.434   5.043  14.307 -1.5299  1.0256  0.7776
17932TIP3    H275288   3.349   4.940  14.378  0.9219 -1.7385 -0.0890
17933TIP3   OH275289   2.986   1.436   5.376  0.4456  0.5384 -0.7371
17933TIP3    H175290   2.934   1.510   5.408  1.4271  0.9104  0.0486
17933TIP3    H275291   3.049   1.476   5.315  2.3913  0.7376  1.2839
17934TIP3   OH275292   5.830   2.720  14.128 -0.3124 -0.0687 -0.5249
17934TIP3    H175293   5.738   2.703  14.150 -0.2434  0.2001 -0.0281
17934TIP3    H275294   5.870   2.633  14.128 -0.6196 -0.2169 -1.0077
17935TIP3   OH275295   4.979   3.031  11.639 -0.2615  0.0807 -0.1224
17935TIP3    H175296   4.957   3.039  11.731 -1.5356  2.2369 -0.5330
17935TIP3    H275297   5.054   3.090  11.627 -0.6487  0.4895 -0.5960
17936TIP3   OH275298   6.767   0.431   3.197  0.0091 -0.2115  0.1002
17936TIP3    H175299   6.744   0.428   3.290 -2.1433  0.7852 -0.3424
17936TIP3    H275300   6.827   0.505   3.189 -1.8360  1.3710  0.3538
17937TIP3   OH275301   6.797   4.476  14.413 -0.5830 -0.3916 -0.1693
17937TIP3    H175302   6.734   4.423  14.365 -0.6665  0.4674 -1.0342
17937TIP3    H275303   6.834   4.535  14.348 -1.0880  1.1910  0.9159
17938TIP3   OH275304   3.874   6.277  15.485 -0.0634  0.2837 -0.1280
17938TIP3    H175305   3.784   6.308  15.473  0.9095  3.6379  0.2383
17938TIP3    H275306   3.923   6.317  15.413  1.5152  0.4912  1.0050
17939TIP3   OH275307   0.126   3.165   2.855  0.2222  0.2972 -0.1931
17939TIP3    H175308   0.197   3.183   2.917  2.0088 -0.4372 -1.9359
17939TIP3    H275309   0.169   3.122   2.781 -2.4241 -2.8481 -0.1390
17940TIP3   OH275310   3.193   2.612   4.638 -0.0599  0.7615  0.0750
17940TIP3    H175311   3.124   2.549   4.617 -0.5118  2.1278 -3.2424
17940TIP3    H275312   3.151   2.675   4.696 -2.7315  2.9289 -3.7029
17941TIP3   OH275313   1.980   0.685  11.652  0.3147 -0.0284 -0.0830
17941TIP3    H175314   2.045   0.700  11.584 -2.0714  1.0944 -2.2735
17941TIP3    H275315   1.995   0.756  11.714  1.4405 -0.0745 -0.2672
17942TIP3   OH275316   1.608   0.656   1.013  0.2173  0.5512  0.3036
17942TIP3    H175317   1.546   0.706   0.959  0.7553  2.0544  1.0011
17942TIP3    H275318   1.601   0.697   1.100 -0.6777 -1.8371  1.4350
17943TIP3   OH275319   6.598   0.524   1.067  0.7265  0.1998  0.6075
17943TIP3    H175320   6.679   0.501   1.023  1.3674  0.1970  1.7572
17943TIP3    H275321   6.550   0.442   1.074  0.9783  0.0561  0.6441
17944TIP3   OH275322   5.547   5.447   4.040  0.1257  0.0231 -0.5450
17944TIP3    H175323   5.485   5.374   4.036 -0.0841  0.2120 -0.7634
17944TIP3    H275324   5.506   5.510   4.099 -0.0656  0.3088 -0.9762
17945TIP3   OH275325   5.041   6.522  14.598 -0.4298  0.1532 -0.2139
17945TIP3    H175326   5.087   6.480  14.526  1.4759  1.9157 -0.1237
17945TIP3    H275327   5.106   6.580  14.638 -2.3389  1.7202  0.8495
17946TIP3   OH275328   4.977   6.313   3.638 -0.1808 -0.1211  0.0069
17946TIP3    H175329   4.936   6.245   3.690  0.6184 -1.3068 -0.8701
17946TIP3    H275330   4.948   6.395   3.678  1.2811 -0.9390  3.0286
17947TIP3   OH275331   4.690   4.790   4.942 -0.4601  0.1492 -0.2323
17947TIP3    H175332   4.627   4.723   4.969 -1.3050  0.8041 -0.5403
17947TIP3    H275333   4.772   4.742   4.931 -0.8526 -0.6901  0.3407
17948TIP3   OH275334   0.380   1.882  13.473 -0.0296  0.2902 -0.9986
17948TIP3    H175335   0.294   1.893  13.433 -0.6014 -1.6852 -0.4395
17948TIP3    H275336   0.415   1.803  13.432 -0.0760 -1.0341  1.3215
17949TIP3   OH275337   6.396   3.086  15.592 -0.0093 -0.0542 -0.1567
17949TIP3    H175338   6.376   2.995  15.613 -3.9315  0.5595 -0.5094
17949TIP3    H275339   6.437   3.121  15.671  0.4607 -1.8192  0.4080
17950TIP3   OH275340   2.404   4.424  12.584 -0.7905 -0.1890  0.2880
17950TIP3    H175341   2.409   4.346  12.639 -0.0508 -0.5875 -0.3232
17950TIP3    H275342   2.343   4.400  12.514  0.5686 -0.7939 -0.7460
17951TIP3   OH275343   3.001   5.908  15.869  0.1750 -0.6614  0.0528
17951TIP3    H175344   2.914   5.942  15.894  0.5636  0.5294 -0.1240
17951TIP3    H275345   2.994   5.814  15.881 -0.4229 -0.4030  2.3280
17952TIP3   OH275346   5.605   5.370   4.785  0.3748  0.0805 -0.5873
17952TIP3    H175347   5.518   5.396   4.755 -0.5702  1.6787  3.0853
17952TIP3    H275348   5.661   5.444   4.765 -0.3714  1.3808  1.8301
17953TIP3   OH275349   3.080   3.432   3.013  0.5661  0.0025 -0.2048
17953TIP3    H175350   2.997   3.453   2.970  1.6826 -0.0852 -2.5623
17953TIP3    H275351   3.092   3.503   3.077 -0.0448  1.5881 -1.7480
17954TIP3   OH275352   2.849   1.978  12.867 -0.2866  0.4486  0.2672
17954TIP3    H175353   2.911   1.928  12.921 -0.4920 -0.8848 -0.6765
17954TIP3    H275354   2.770   1.983  12.920  0.5773  2.2232  1.5194
17955TIP3   OH275355   5.101   3.982  15.218 -0.0882 -0.0436 -0.2165
17955TIP3    H175356   5.026   4.021  15.263  0.3210 -1.2943  1.6876
17955TIP3    H275357   5.149   4.056  15.182 -0.4608  1.0664  1.4499
17956TIP3   OH275358   5.259   1.559  12.071 -0.1974  0.6952 -0.2719
17956TIP3    H175359   5.332   1.539  12.012 -0.7500 -0.7997 -0.4943
17956TIP3    H275360   5.189   1.500  12.043 -1.0219  1.1067  0.8514
17957TIP3   OH275361   2.630   2.410  11.353 -0.3844  0.6100  0.1124
17957TIP3    H175362   2.562   2.470  11.383 -0.1373  1.4111 -0.8444
17957TIP3    H275363   2.703   2.467  11.329  0.1703 -0.1431 -0.0339
17958TIP3   OH275364   1.072   0.022  15.696 -0.2345  0.2017  0.0212
17958TIP3    H175365   1.037   0.073  15.623  0.8773  1.8118  0.5490
17958TIP3    H275366   1.005   0.028  15.763 -0.5607  0.0947 -0.2929
17959TIP3   OH275367   1.942   6.553   6.027 -0.5168 -0.2193 -0.2719
17959TIP3    H175368   1.980   6.622   6.083 -1.8606 -1.7133  2.7469
17959TIP3    H275369   1.847   6.563   6.038 -0.7972 -1.1475 -1.6202
17960TIP3   OH275370   2.138   5.518  16.605  0.0008 -0.3155 -0.1480
17960TIP3    H175371   2.135   5.605  16.564 -1.1055 -0.1983  0.1539
17960TIP3    H275372   2.214   5.521  16.663 -1.9069  1.7070  2.5053
17961TIP3   OH275373   0.853   5.872   1.179  0.7501 -0.0943  0.6181
17961TIP3    H175374   0.914   5.889   1.107  1.8514 -0.3354  1.4616
17961TIP3    H275375   0.820   5.959   1.203  0.5228  0.0049 -0.0507
17962TIP3   OH275376   4.212   1.841   3.407  0.0519  0.1552  0.5009
17962TIP3    H175377   4.203   1.922   3.358  0.0491 -0.5369 -0.6798
17962TIP3    H275378   4.157   1.854   3.485 -0.3463  1.0908  0.0817
17963TIP3   OH275379   6.485   1.578   6.232  0.3044  0.2088 -0.0208
17963TIP3    H175380   6.478   1.535   6.147  0.7222 -0.4305  0.2631
17963TIP3    H275381   6.533   1.516   6.287  1.1791  1.1565  0.3162
17964TIP3   OH275382   1.850   6.695  15.627  0.0056  0.1839 -0.0765
17964TIP3    H175383   1.820   6.776  15.668  0.7248  0.6074 -0.3674
17964TIP3    H275384   1.939   6.714  15.598 -0.6263  0.0760 -2.2822
17965TIP3   OH275385   0.273   5.064  10.669 -0.2965  0.2561  0.0939
17965TIP3    H175386   0.360   5.067  10.629 -0.8884 -1.1341 -1.3677
17965TIP3    H275387   0.212   5.064  10.596 -1.4074 -2.9672  0.8657
17966TIP3   OH275388   4.480   2.434   0.860  0.3408  0.0733 -0.4174
17966TIP3    H175389   4.485   2.343   0.830 -0.0233 -0.4377  0.9823
17966TIP3    H275390   4.514   2.431   0.950  2.6940  1.7731 -1.1836
17967TIP3   OH275391   3.298   4.528   3.282 -0.2258  0.0504 -0.1956
17967TIP3    H175392   3.309   4.463   3.213  0.3589  0.4859 -0.5204
17967TIP3    H275393   3.279   4.477   3.361 -0.3105 -0.4799 -0.5581
17968TIP3   OH275394   3.237   2.582  12.683 -0.1424 -0.1485  0.9708
17968TIP3    H175395   3.259   2.569  12.776 -2.7528 -1.3701  1.5019
17968TIP3    H275396   3.191   2.501  12.658  1.6150 -0.4081 -1.8029
17969TIP3   OH275397   4.963   4.952  11.583  0.2864  0.0438 -0.7077
17969TIP3    H175398   4.966   4.982  11.492  0.8671 -0.3520 -0.8264
17969TIP3    H275399   5.036   4.999  11.625  0.1947  0.0132 -0.5140
17970TIP3   OH275400   0.985   4.747   3.150 -0.1669  0.4432 -0.2735
17970TIP3    H175401   1.044   4.791   3.211 -0.1312 -0.8177  0.6263
17970TIP3    H275402   1.034   4.741   3.068  0.9618 -0.5707  0.4548
17971TIP3   OH275403   0.838   0.133   1.210  0.0367  0.4810 -0.2502
17971TIP3    H175404   0.883   0.212   1.239  0.9645 -0.3266  0.5821
17971TIP3    H275405   0.803   0.156   1.124  0.5939  1.6706 -0.1864
17972TIP3   OH275406   6.398   5.176  12.570 -0.2328 -0.3008  0.1550
17972TIP3    H175407   6.306   5.194  12.549  0.3235  0.7077 -1.6382
17972TIP3    H275408   6.430   5.258  12.608  0.2311 -0.1961 -0.4384
17973TIP3   OH275409   2.708   0.095  14.510 -0.5865 -0.3124  0.1082
17973TIP3    H175410   2.636   0.123  14.566 -1.7117 -0.3030 -1.2977
17973TIP3    H275411   2.714   0.000  14.524 -0.4858 -0.2297  0.6508
17974TIP3   OH275412   1.721   6.379  12.878 -0.7346  0.1247 -0.3045
17974TIP3    H175413   1.677   6.447  12.827 -1.4195  0.3833  0.5889
17974TIP3    H275414   1.792   6.425  12.922 -0.7574  0.1158 -0.2573
17975TIP3   OH275415   3.275   3.411   5.426  0.1085  0.3021  0.3246
17975TIP3    H175416   3.199   3.432   5.480 -1.4841 -1.8526 -0.9538
17975TIP3    H275417   3.336   3.368   5.485 -0.7993 -0.3088  0.8281
17976TIP3   OH275418   3.607   4.351   4.083  0.2850 -0.4848  0.6350
17976TIP3    H175419   3.614   4.386   3.994 -0.6189  0.1407  0.7887
17976TIP3    H275420   3.603   4.256   4.072 -0.6533 -0.3791 -0.0684
17977TIP3   OH275421   3.068   4.801   2.408  0.0174  0.5948  0.4082
17977TIP3    H175422   3.002   4.733   2.395 -0.5765  1.2726 -0.1896
17977TIP3    H275423   3.086   4.835   2.321 -1.1091  2.5031  0.8564
17978TIP3   OH275424   2.034   5.975  14.192  0.5055 -0.1863  0.2953
17978TIP3    H175425   2.048   6.035  14.119 -0.0242 -1.3451 -0.7883
17978TIP3    H275426   2.088   5.899  14.173  1.1446 -0.1026  1.6382
17979TIP3   OH275427   4.075   1.616  16.167 -0.3158 -0.4288 -0.2438
17979TIP3    H175428   4.053   1.523  16.160  0.6442 -0.6879  0.0955
17979TIP3    H275429   3.996   1.656  16.204 -0.2873 -1.3212  0.8390
17980TIP3   OH275430   1.770   2.972   3.221  0.2439  0.5150  0.1155
17980TIP3    H175431   1.778   2.877   3.228 -1.2479  0.3337 -0.2021
17980TIP3    H275432   1.750   3.001   3.310 -1.5547  0.2423 -0.1694
17981TIP3   OH275433   5.262   5.727  13.487  0.4060  0.0567  0.3171
17981TIP3    H175434   5.301   5.675  13.417  0.0127  1.4729 -1.0209
17981TIP3    H275435   5.187   5.771  13.446 -0.7919 -0.2693  2.0453
17982TIP3   OH275436   3.490   5.196  12.673 -0.1593  0.2499 -0.3169
17982TIP3    H175437   3.486   5.261  12.744  4.6467 -1.6946  2.1728
17982TIP3    H275438   3.438   5.122  12.706 -0.6926  0.5718 -0.4194
17983TIP3   OH275439   4.965   5.049   2.529  0.1097  0.0957  0.4288
17983TIP3    H175440   5.015   5.128   2.508  0.6663  0.1320  1.7542
17983TIP3    H275441   5.029   4.979   2.523 -0.8284 -0.6636 -2.8846
17984TIP3   OH275442   5.521   3.808  17.200  0.1417 -0.3937 -0.3873
17984TIP3    H175443   5.478   3.877  17.251 -0.3300 -1.2607  0.4194
17984TIP3    H275444   5.518   3.840  17.110  1.1502  1.2584  0.1210
17985TIP3   OH275445   0.671   1.870  13.315 -0.2824  0.0469 -0.2695
17985TIP3    H175446   0.633   1.917  13.240 -0.5525  0.5823  0.2001
17985TIP3    H275447   0.625   1.905  13.391 -1.0618 -1.5432  0.0334
17986TIP3   OH275448   5.250   0.808   1.395  0.1933  0.0556  0.3297
17986TIP3    H175449   5.329   0.787   1.444 -0.4561 -0.3180  1.2596
17986TIP3    H275450   5.252   0.904   1.387  0.5982  0.0731  0.6029
17987TIP3   OH275451   3.819   6.801   5.451 -0.1990 -0.1728  0.4274
17987TIP3    H175452   3.897   6.749   5.470  0.3174  0.2420 -0.4917
17987TIP3    H275453   3.746   6.740   5.462  0.3931 -1.1150 -0.6802
17988TIP3   OH275454   1.131   5.344   3.467  0.2203 -0.1222 -0.3487
17988TIP3    H175455   1.080   5.355   3.548  0.3649 -1.0329 -0.1157
17988TIP3    H275456   1.125   5.429   3.423  0.4135  0.4974  0.7714
17989TIP3   OH275457   1.187   2.242  16.100 -0.2381 -0.1331 -0.1107
17989TIP3    H175458   1.197   2.164  16.044 -1.9214 -0.6565  0.2683
17989TIP3    H275459   1.221   2.215  16.185 -0.7452 -0.4503 -0.0017
17990TIP3   OH275460   2.592   3.913   1.273 -1.1396 -0.3958 -0.1540
17990TIP3    H175461   2.680   3.903   1.239 -1.0742 -0.8393  0.1286
17990TIP3    H275462   2.604   3.925   1.367 -1.2286  2.3207 -0.4377
17991TIP3   OH275463   6.388   5.247   2.238  0.3847  0.0680  0.3880
17991TIP3    H175464   6.405   5.198   2.318  1.5249  1.0876  0.7926
17991TIP3    H275465   6.315   5.200   2.196 -1.0899  0.2318  2.6190
17992TIP3   OH275466   1.429   3.941   0.622  1.0971 -0.4249  0.2601
17992TIP3    H175467   1.359   4.006   0.632  2.0137  0.6396 -0.0261
17992TIP3    H275468   1.505   3.992   0.592  2.0563 -1.5178  0.7560
17993TIP3   OH275469   2.406   2.985  11.593 -0.6353  0.5778  0.7378
17993TIP3    H175470   2.411   3.059  11.532 -0.3675  1.4192  1.7476
17993TIP3    H275471   2.342   3.013  11.658 -0.7610 -0.2219  0.9624
17994TIP3   OH275472   6.543   5.528  15.315  0.2026  0.6855  0.1684
17994TIP3    H175473   6.635   5.551  15.330  0.6997 -1.1092  0.1404
17994TIP3    H275474   6.493   5.595  15.362  1.5674  0.5874  1.8272
17995TIP3   OH275475   5.638   1.797   5.413 -0.3184 -0.0430 -0.3935
17995TIP3    H175476   5.652   1.707   5.444  0.8672 -0.8628 -2.9869
17995TIP3    H275477   5.568   1.831   5.469 -0.8451 -2.6015  0.6553
17996TIP3   OH275478   2.491   6.576  11.283 -0.0331  0.2047  0.3677
17996TIP3    H175479   2.526   6.665  11.274 -0.4270  0.4470  1.1757
17996TIP3    H275480   2.407   6.587  11.326  0.4963 -0.6511  1.6836
17997TIP3   OH275481   3.902   2.758  11.658 -0.3876  0.4064  0.4607
17997TIP3    H175482   3.933   2.705  11.584 -0.2528  0.4860  0.4601
17997TIP3    H275483   3.811   2.778  11.637 -0.5789 -0.2133  0.6764
17998TIP3   OH275484   0.098   0.436  12.064  0.2923  0.0904  0.4816
17998TIP3    H175485   0.097   0.380  11.986  2.0204 -0.9499  1.1583
17998TIP3    H275486   0.010   0.474  12.067  0.3537  0.6504 -2.3045
17999TIP3   OH275487   2.728   2.050   5.572  0.2075  0.3238 -0.3770
17999TIP3    H175488   2.771   2.072   5.489  0.8905 -0.7654 -0.3382
17999TIP3    H275489   2.660   1.988   5.547  1.6311 -1.4943  0.0377
18000TIP3   OH275490   4.452   0.336   2.691  0.3233  0.5194  0.7738
18000TIP3    H175491   4.413   0.422   2.704  0.1578  0.5670 -0.0229
18000TIP3    H275492   4.378   0.275   2.694  0.4558  0.3840  1.4756
18001TIP3   OH275493   1.477   5.958  13.659  0.3646 -0.3713 -0.6703
18001TIP3    H175494   1.478   6.039  13.710 -1.0711 -0.2506 -0.8092
18001TIP3    H275495   1.507   5.985  13.572 -1.1520  0.2695 -1.0335
18002TIP3   OH275496   1.129   1.784  13.817 -0.4352  0.0453 -0.6669
18002TIP3    H175497   1.101   1.770  13.727 -3.2560 -0.5012  0.1864
18002TIP3    H275498   1.056   1.752  13.870 -0.0467  2.7504  1.7836
18003TIP3   OH275499   5.844   5.898   4.860  0.0721 -0.6624  0.6046
18003TIP3    H175500   5.837   5.982   4.815  1.2001  0.0312  1.6390
18003TIP3    H275501   5.758   5.857   4.850  0.2676 -0.5824 -2.1792
18004TIP3   OH275502   4.289   4.771  11.435  0.1068 -0.0531 -0.3868
18004TIP3    H175503   4.336   4.688  11.422 -0.1172 -0.0882 -1.0398
18004TIP3    H275504   4.217   4.748  11.493  1.6366  0.2816  1.7464
18005TIP3   OH275505   3.498   3.628   5.707  0.3246  0.4589  0.1536
18005TIP3    H175506   3.464   3.556   5.759 -1.2702  1.0731  0.0341
18005TIP3    H275507   3.434   3.699   5.719  0.9366  1.2652 -1.0857
18006TIP3   OH275508   1.038   3.623  12.083  0.1379 -0.2413 -0.5469
18006TIP3    H175509   1.058   3.583  12.167 -0.6851 -1.0142 -0.7075
18006TIP3    H275510   1.124   3.646  12.046  0.4848  0.9869  0.8931
18007TIP3   OH275511   2.345   5.161   1.056 -0.0345 -0.2053 -0.1006
18007TIP3    H175512   2.406   5.173   0.984 -0.4802  0.1298 -0.4308
18007TIP3    H275513   2.384   5.207   1.130  0.6945 -1.0226  0.0319
18008TIP3   OH275514   5.734   3.292   5.866 -0.4141  0.0432  1.0800
18008TIP3    H175515   5.768   3.231   5.801 -2.5083  0.0752 -0.1099
18008TIP3    H275516   5.803   3.359   5.873  1.0345 -1.3707  0.9484
18009TIP3   OH275517   2.244   1.351   4.548 -0.1356 -0.0464  0.1040
18009TIP3    H175518   2.333   1.378   4.525  0.1817  1.7050  3.0041
18009TIP3    H275519   2.254   1.304   4.631 -2.0335  1.4183  1.2233
18010TIP3   OH275520   6.513   4.706  16.420 -0.4418 -0.0261 -0.4726
18010TIP3    H175521   6.593   4.757  16.429 -0.0495 -0.3934 -1.7447
18010TIP3    H275522   6.460   4.731  16.496  0.0714  1.6579 -0.6356
18011TIP3   OH275523   5.059   0.054   0.446  0.1500 -0.4590  0.5871
18011TIP3    H175524   5.019   0.132   0.483 -3.2779 -1.9436  0.3840
18011TIP3    H275525   5.069  -0.005   0.521 -2.6984 -1.8227  0.0577
18012TIP3   OH275526   2.098   6.460   3.483 -0.2509  0.0290 -0.1808
18012TIP3    H175527   2.146   6.482   3.404  0.0264  1.0527  0.2515
18012TIP3    H275528   2.083   6.544   3.526  2.8303 -0.6939  2.7289
18013TIP3   OH275529   0.599   2.829   2.846  0.3920 -0.1513  0.3206
18013TIP3    H175530   0.659   2.760   2.875  1.4756  0.3880 -0.5302
18013TIP3    H275531   0.602   2.895   2.915  0.5042 -0.2922  0.4505
18014TIP3   OH275532   4.084   0.621  15.501 -0.7134  0.0212  0.1722
18014TIP3    H175533   4.012   0.681  15.520 -0.1966  0.2048  1.7502
18014TIP3    H275534   4.059   0.539  15.544 -1.0803 -0.6937 -1.3487
18015TIP3   OH275535   6.473   5.245  16.808  0.6422 -0.3023 -0.3644
18015TIP3    H175536   6.553   5.239  16.756 -0.6323  0.4538 -2.5398
18015TIP3    H275537   6.470   5.336  16.837 -0.3526  0.2002 -1.9413
18016TIP3   OH275538   5.803   3.429   5.181  0.4063 -0.1193  0.2135
18016TIP3    H175539   5.817   3.356   5.121 -1.7543 -0.9031  0.5910
18016TIP3    H275540   5.709   3.448   5.175  0.6440  1.6853  1.2147
18017TIP3   OH275541   5.647   1.728  14.923 -0.0337 -0.3388 -0.0616
18017TIP3    H175542   5.565   1.722  14.973 -1.3021 -1.1530 -2.1074
18017TIP3    H275543   5.627   1.788  14.851  1.7392  0.7900  0.3334
18018TIP3   OH275544   6.615   6.299  13.047  0.2130  0.0131 -0.0752
18018TIP3    H175545   6.550   6.362  13.077  0.9985  0.5599  0.5433
18018TIP3    H275546   6.672   6.285  13.123  1.3482  0.2574 -0.8560
18019TIP3   OH275547   6.211   3.629   2.934 -0.0521 -0.4257 -0.0113
18019TIP3    H175548   6.137   3.571   2.917  0.3009 -1.0067  0.3911
18019TIP3    H275549   6.196   3.661   3.023 -0.7989  0.9530 -0.6049
18020TIP3   OH275550   6.633   1.007   5.749  0.1002  0.5805  0.0240
18020TIP3    H175551   6.591   1.092   5.737  1.3885  1.0187 -1.6657
18020TIP3    H275552   6.725   1.028   5.767 -0.2681 -0.3456  3.8176
18021TIP3   OH275553   3.518   6.766   4.963 -0.4462  0.3032  0.1106
18021TIP3    H175554   3.534   6.704   5.033 -0.5375 -0.8121 -0.8211
18021TIP3    H275555   3.447   6.727   4.912 -0.6871  1.3052 -0.3487
18022TIP3   OH275556   4.197   1.551  15.736 -0.5304  0.2088  0.6145
18022TIP3    H175557   4.195   1.470  15.685 -1.1362  0.5495  0.0712
18022TIP3    H275558   4.105   1.577  15.742 -0.2439  1.4908 -0.2613
18023TIP3   OH275559   4.348   2.380   6.193 -0.1452 -0.1482  0.2271
18023TIP3    H175560   4.439   2.363   6.171 -0.3139  1.2788 -1.8948
18023TIP3    H275561   4.350   2.465   6.238 -0.2341 -1.1964  2.3023
18024TIP3   OH275562   4.852   0.092  16.080  0.0542 -0.6865 -0.0225
18024TIP3    H175563   4.902   0.129  16.152  0.4285 -1.5115  0.1515
18024TIP3    H275564   4.834   0.166  16.022  0.5845 -0.1978  0.4337
18025TIP3   OH275565   5.322   0.604  10.620 -0.6906  0.0104  0.1015
18025TIP3    H175566   5.331   0.587  10.526 -0.5220 -0.7480  0.2489
18025TIP3    H275567   5.298   0.697  10.625  0.0076  0.2443 -0.6511
18026TIP3   OH275568   4.488   3.275  16.088  0.6446  0.4560 -0.1113
18026TIP3    H175569   4.565   3.316  16.127  0.6409  0.0170  0.3628
18026TIP3    H275570   4.457   3.214  16.154  0.1634  0.2873 -0.4867
18027TIP3   OH275571   0.620   5.254  11.455  0.1512 -0.0808  0.2121
18027TIP3    H175572   0.603   5.191  11.386  0.3077  0.5562 -0.4117
18027TIP3    H275573   0.660   5.329  11.411 -1.5998  1.1747  0.6694
18028TIP3   OH275574   4.620   3.986  12.363  0.2025 -0.1237 -0.0066
18028TIP3    H175575   4.675   3.911  12.382  0.7137  0.0527 -0.7088
18028TIP3    H275576   4.531   3.951  12.355  0.5523 -0.8070 -1.1595
18029TIP3   OH275577   5.440   1.339   3.224  0.2438  0.0378 -0.4010
18029TIP3    H175578   5.361   1.368   3.271 -0.0465  1.0960 -1.4742
18029TIP3    H275579   5.509   1.396   3.257  0.6332 -1.0296  0.6934
18030TIP3   OH275580   0.171   2.893   4.520 -0.1391 -0.3426 -0.2116
18030TIP3    H175581   0.158   2.971   4.574 -1.7092 -0.4886 -0.3253
18030TIP3    H275582   0.228   2.922   4.449 -2.7775  1.5311 -1.7677
18031TIP3   OH275583   1.336   4.855  13.068  0.0911  0.0231  0.1676
18031TIP3    H175584   1.399   4.837  12.998  0.1613  1.0418 -0.0418
18031TIP3    H275585   1.284   4.775  13.073  1.4046 -0.8696  0.3701
18032TIP3   OH275586   2.267   5.834  15.022 -0.2071  0.2366 -0.2180
18032TIP3    H175587   2.234   5.753  14.984 -2.0772  0.8145  0.0168
18032TIP3    H275588   2.195   5.897  15.011  0.3124  1.2413  1.5581
18033TIP3   OH275589   5.899   5.502   0.600 -0.5845 -0.4027  0.0924
18033TIP3    H175590   5.937   5.414   0.611  1.2167  0.2229 -0.7935
18033TIP3    H275591   5.871   5.527   0.688 -0.6536 -1.6328  0.4468
18034TIP3   OH275592   4.350   6.655   2.101 -0.1251 -0.2205 -0.2670
18034TIP3    H175593   4.422   6.618   2.051  0.4519  2.4614 -1.5858
18034TIP3    H275594   4.295   6.698   2.036 -1.0338  0.7492  1.0817
18035TIP3   OH275595   1.597   0.284  12.776 -0.1129 -0.7572  0.4937
18035TIP3    H175596   1.670   0.232  12.808  1.5963  0.2709 -1.5058
18035TIP3    H275597   1.622   0.375  12.794 -1.6648 -0.4403  1.2267
18036TIP3   OH275598   4.745   3.153  13.573 -0.0336  0.2038  0.4848
18036TIP3    H175599   4.658   3.139  13.611 -0.7459 -0.2785 -1.2423
18036TIP3    H275600   4.788   3.068  13.578 -0.5553 -0.1511 -0.7753
18037TIP3   OH275601   2.567   5.700   3.709 -0.7151 -0.2831 -0.5760
18037TIP3    H175602   2.497   5.636   3.695 -0.3079 -0.7479 -0.5494
18037TIP3    H275603   2.553   5.766   3.642  0.3406 -1.7268 -2.3056
18038TIP3   OH275604   2.163   6.396  10.933 -0.3572 -0.1497 -0.1576
18038TIP3    H175605   2.155   6.391  11.028 -1.1392 -0.2913 -0.2188
18038TIP3    H275606   2.186   6.488  10.916  0.4248 -0.2719  0.1970
18039TIP3   OH275607   3.163   2.291   3.858  0.0648  0.0608  0.0374
18039TIP3    H175608   3.155   2.287   3.953  0.6737  2.3086  0.2259
18039TIP3    H275609   3.257   2.282   3.841 -0.1524 -1.6883 -0.4977
18040TIP3   OH275610   5.221   2.839  13.097 -0.5127  0.1298  0.9529
18040TIP3    H175611   5.148   2.884  13.056  0.0296 -1.1585 -1.5908
18040TIP3    H275612   5.263   2.907  13.151 -2.8575  1.1779  1.5928
18041TIP3   OH275613   1.652   0.800   3.534  0.0002  0.1205  0.2423
18041TIP3    H175614   1.685   0.712   3.519 -0.8027  0.0313 -1.2159
18041TIP3    H275615   1.667   0.817   3.627  0.4774 -1.4138  0.4559
18042TIP3   OH275616   3.851   5.588  16.174 -0.2595  0.0183 -0.3087
18042TIP3    H175617   3.763   5.555  16.157 -0.5689 -0.0268  1.2104
18042TIP3    H275618   3.859   5.664  16.117  0.2459 -2.2068 -3.4496
18043TIP3   OH275619   0.130   6.002  16.251  0.1224  0.2455  0.2863
18043TIP3    H175620   0.113   5.978  16.342 -0.4647  0.8762  0.3496
18043TIP3    H275621   0.075   6.078  16.235  0.1357  0.0786 -0.6338
18044TIP3   OH275622   3.624   1.295   0.841  0.2083  0.0424 -0.0571
18044TIP3    H175623   3.549   1.354   0.851  0.7808  0.7851  0.0177
18044TIP3    H275624   3.660   1.286   0.930 -0.0166 -0.6236 -0.0286
18045TIP3   OH275625   3.934   1.115  16.420  0.7705 -0.3887  0.4040
18045TIP3    H175626   3.999   1.046  16.431  0.7911 -0.8098 -1.8319
18045TIP3    H275627   3.977   1.181  16.366 -0.7181 -0.8717 -1.4991
18046TIP3   OH275628   1.472   5.801  16.642  0.0966 -0.4525 -1.1974
18046TIP3    H175629   1.535   5.859  16.599 -0.5722  1.9755  0.7962
18046TIP3    H275630   1.420   5.860  16.698  0.1054 -3.1233  1.9458
18047TIP3   OH275631   1.553   3.001   6.329 -0.3593  0.3376  0.2239
18047TIP3    H175632   1.579   3.080   6.377 -0.6645  0.5554  0.0288
18047TIP3    H275633   1.499   3.032   6.257 -0.2207 -0.0239 -0.0436
18048TIP3   OH275634   3.062   3.389  14.615  0.5363  0.5629 -0.3778
18048TIP3    H175635   3.105   3.304  14.612  0.7086  0.6577 -0.7370
18048TIP3    H275636   3.128   3.449  14.648  0.0072  0.3297  1.1730
18049TIP3   OH275637   1.312   6.549   3.660  0.2019 -0.0609 -0.4915
18049TIP3    H175638   1.240   6.610   3.651  0.2539  0.2308  0.8603
18049TIP3    H275639   1.390   6.604   3.665  0.2971 -0.2434  0.2296
18050TIP3   OH275640   4.055   4.718  13.124  0.2495 -0.6146 -0.2576
18050TIP3    H175641   3.976   4.666  13.110  0.3603 -0.5180 -1.3321
18050TIP3    H275642   4.030   4.782  13.191 -1.1845  0.5949 -1.8499
18051TIP3   OH275643   2.854   3.202   1.430  0.1818 -0.0417  0.7392
18051TIP3    H175644   2.776   3.188   1.376  0.0634 -0.0292  0.9012
18051TIP3    H275645   2.927   3.177   1.375  0.0226 -0.6463  0.7904
18052TIP3   OH275646   4.281   2.642  12.268  0.1083  0.1382 -0.5965
18052TIP3    H175647   4.375   2.659  12.257 -0.0311  0.5701 -1.1135
18052TIP3    H275648   4.240   2.680  12.191 -0.7108  1.8148  0.5901
18053TIP3   OH275649   3.836   4.818  11.877 -0.4833 -0.4229 -0.3574
18053TIP3    H175650   3.784   4.768  11.814  0.1317 -0.1900 -1.0623
18053TIP3    H275651   3.926   4.812  11.844  0.0642 -1.3426  1.1758
18054TIP3   OH275652   1.668   5.006   4.392  0.0414  0.2575 -0.4308
18054TIP3    H175653   1.688   5.061   4.468  1.2200  0.1685 -0.6559
18054TIP3    H275654   1.673   5.066   4.317  1.3853 -0.1357 -0.6835
18055TIP3   OH275655   5.347   4.255  14.549 -0.0092 -0.0524  0.5260
18055TIP3    H175656   5.355   4.172  14.502 -0.3385  1.7436 -2.9810
18055TIP3    H275657   5.263   4.248  14.595 -0.7023 -1.1658 -0.8161
18056TIP3   OH275658   1.834   3.780   0.979 -0.0652  0.1040  0.0118
18056TIP3    H175659   1.837   3.852   0.916  0.6523  0.4984  0.4862
18056TIP3    H275660   1.919   3.782   1.021 -0.1319 -0.8722  0.2089
18057TIP3   OH275661   0.804   3.536  11.919 -0.5973 -0.2690 -0.6837
18057TIP3    H175662   0.785   3.451  11.880  0.8660 -1.6181  1.3754
18057TIP3    H275663   0.898   3.536  11.934 -0.5785  1.6760 -0.4787
18058TIP3   OH275664   5.720   4.788  15.219 -0.1572 -0.4505 -0.6701
18058TIP3    H175665   5.751   4.738  15.144  0.7884  0.6360 -1.0358
18058TIP3    H275666   5.753   4.877  15.204 -0.6528 -0.0207  0.6175
18059TIP3   OH275667   6.117   6.790  13.078 -0.2419  0.1533  0.0702
18059TIP3    H175668   6.145   6.768  13.167  1.8547  2.3966  0.0628
18059TIP3    H275669   6.176   6.741  13.021 -0.1820  0.3744 -0.0583
18060TIP3   OH275670   3.531   1.852  11.872  0.1908  0.2210  0.1497
18060TIP3    H175671   3.594   1.857  11.800 -1.5369 -2.6905 -1.7741
18060TIP3    H275672   3.466   1.918  11.851  0.6505  0.6727  0.1141
18061TIP3   OH275673   0.757   2.873   1.992  0.1457  0.2759 -0.1250
18061TIP3    H175674   0.753   2.780   1.968  2.1843 -0.1726  1.0477
18061TIP3    H275675   0.801   2.915   1.919  0.0202  0.1795 -0.2580
18062TIP3   OH275676   4.830   3.229   2.326  0.3328 -0.1238 -0.3519
18062TIP3    H175677   4.838   3.134   2.336 -0.5056 -0.2812 -1.1311
18062TIP3    H275678   4.814   3.261   2.414 -2.1823 -1.0021 -0.4200
18063TIP3   OH275679   6.269   0.147  15.395 -0.2044  0.1256 -0.2227
18063TIP3    H175680   6.282   0.082  15.327 -0.9904 -1.7008  1.2723
18063TIP3    H275681   6.192   0.116  15.443  0.5976  1.0469  1.7885
18064TIP3   OH275682   1.564   1.853   5.800  0.1281  0.3651 -0.0772
18064TIP3    H175683   1.493   1.873   5.739  0.4983 -0.8058 -0.9105
18064TIP3    H275684   1.607   1.938   5.814 -0.7668  0.8891 -0.3898
18065TIP3   OH275685   5.247   3.213  14.223 -0.3618  0.9755 -0.3046
18065TIP3    H175686   5.257   3.308  14.215 -1.0265  1.1696  0.9399
18065TIP3    H275687   5.170   3.201  14.278 -0.4026 -0.2981 -0.6014
18066TIP3   OH275688   5.795   0.515   2.052 -0.3933 -0.1626  0.2191
18066TIP3    H175689   5.859   0.491   1.985  0.5446 -1.3289  1.5037
18066TIP3    H275690   5.716   0.537   2.002  0.3857 -0.6311 -1.2813
18067TIP3   OH275691   6.594   1.931   5.312 -0.0090 -0.5691 -0.2624
18067TIP3    H175692   6.533   1.954   5.242 -0.3888  0.9853  0.5477
18067TIP3    H275693   6.539   1.921   5.390  0.5798 -0.8916  0.1237
18068TIP3   OH275694   5.781   2.726   3.473  0.2082 -0.0115  0.1718
18068TIP3    H175695   5.847   2.659   3.491  0.3137  0.4331  1.5756
18068TIP3    H275696   5.724   2.724   3.550 -2.2914 -1.3195 -1.5507
18069TIP3   OH275697   1.122   4.787  11.299  0.3073  0.7884 -0.6625
18069TIP3    H175698   1.110   4.868  11.349 -1.0290  0.5484 -0.5413
18069TIP3    H275699   1.214   4.788  11.273  0.9053  1.2485  1.2465
18070TIP3   OH275700   4.043   4.021   2.120 -0.0067  0.6901 -0.2234
18070TIP3    H175701   4.077   4.058   2.202  1.0666 -0.2999 -0.1995
18070TIP3    H275702   4.037   4.095   2.061 -0.6914  1.4042  0.7093
18071TIP3   OH275703   4.052   5.239   4.692  0.1909  0.1349 -0.0795
18071TIP3    H175704   3.994   5.165   4.675  1.0121 -0.5891  0.2172
18071TIP3    H275705   4.128   5.201   4.735  1.3251  0.9259 -1.3055
18072TIP3   OH275706   5.128   0.743   4.749  0.9803  0.3810 -0.4308
18072TIP3    H175707   5.059   0.680   4.727  0.8962  0.5140 -0.5550
18072TIP3    H275708   5.116   0.814   4.685  1.3248  0.3365 -0.5447
18073TIP3   OH275709   4.607   5.552  13.649 -0.3268  0.5908 -0.6657
18073TIP3    H175710   4.618   5.647  13.649 -1.0453  0.6845  0.6288
18073TIP3    H275711   4.513   5.538  13.642 -0.2453 -0.0334 -0.5942
18074TIP3   OH275712   5.764   5.911   2.997  0.0042  0.4566  0.5336
18074TIP3    H175713   5.795   5.936   3.085 -0.9381 -1.1198  1.3561
18074TIP3    H275714   5.764   5.816   2.998 -0.6929  0.4193 -0.9546
18075TIP3   OH275715   6.507   3.750   0.942  0.1241 -0.3273  0.1500
18075TIP3    H175716   6.416   3.731   0.965  0.2100 -0.6173  0.2521
18075TIP3    H275717   6.550   3.771   1.025  0.1441 -0.1635  0.0986
18076TIP3   OH275718   0.678   4.815  12.178 -0.3157  0.0006  0.0081
18076TIP3    H175719   0.698   4.772  12.261 -0.2281  1.0162  0.5318
18076TIP3    H275720   0.760   4.813  12.130 -0.3038 -0.3838  0.0427
18077TIP3   OH275721   6.394   0.127   2.498 -0.1091  0.3361 -0.5190
18077TIP3    H175722   6.334   0.201   2.510 -0.1732  0.4182 -1.2856
18077TIP3    H275723   6.424   0.136   2.407  0.8612  0.1497 -0.2195
18078TIP3   OH275724   2.854   4.354  11.493 -0.0618 -0.2127 -0.2067
18078TIP3    H175725   2.921   4.291  11.522  1.8052  1.6817 -0.1649
18078TIP3    H275726   2.836   4.407  11.571 -0.0290  0.6382 -0.7668
18079TIP3   OH275727   0.433   5.647   4.637 -0.6335  1.2209 -0.1894
18079TIP3    H175728   0.497   5.582   4.664 -0.7254  1.2062 -0.0063
18079TIP3    H275729   0.473   5.731   4.661 -0.0004  1.3152 -1.4632
18080TIP3   OH275730   3.337   2.247   4.721  0.1076  0.1233  0.1116
18080TIP3    H175731   3.260   2.212   4.676 -0.4063  0.7868  0.4531
18080TIP3    H275732   3.325   2.222   4.812  1.2918 -1.4703 -0.1336
18081TIP3   OH275733   1.304   4.188   3.932 -0.1931 -0.8029 -0.1731
18081TIP3    H175734   1.389   4.152   3.909 -0.1009 -0.6243 -0.1141
18081TIP3    H275735   1.257   4.192   3.848  1.1172  2.4525 -0.9098
18082TIP3   OH275736   4.261   2.113  14.456 -0.3219  0.0124  0.2272
18082TIP3    H175737   4.292   2.036  14.409 -0.1745 -0.4048  0.9883
18082TIP3    H275738   4.340   2.147  14.500 -0.2414  0.9885 -0.6259
18083TIP3   OH275739   2.723   0.723   0.907  0.6837 -0.5446 -0.3149
18083TIP3    H175740   2.777   0.784   0.858  0.4683  1.1501  1.4651
18083TIP3    H275741   2.767   0.713   0.991  1.1441 -3.5291 -0.7880
18084TIP3   OH275742   3.820   1.586  12.625  0.2352  0.3549  0.1657
18084TIP3    H175743   3.857   1.512  12.672 -2.0177 -0.2185  1.2027
18084TIP3    H275744   3.868   1.662  12.658  1.6143 -0.4941  0.1514
18085TIP3   OH275745   5.301   4.443   5.574  0.0897 -0.5181  0.2108
18085TIP3    H175746   5.353   4.363   5.563  0.9323 -0.0448  0.6851
18085TIP3    H275747   5.288   4.475   5.485  1.3425 -0.1930  0.1278
18086TIP3   OH275748   0.195   2.812   2.352  0.2567  0.1628  0.0801
18086TIP3    H175749   0.227   2.727   2.323  0.5827  0.4004 -0.2718
18086TIP3    H275750   0.133   2.839   2.284  0.1169  0.1844  0.2147
18087TIP3   OH275751   1.317   1.232   6.166  0.1167 -0.1819  0.9347
18087TIP3    H175752   1.286   1.157   6.217  1.5445 -0.0847  2.0252
18087TIP3    H275753   1.337   1.197   6.080  0.0585 -0.9068  1.2091
18088TIP3   OH275754   0.868   5.142  12.353  0.0628  0.1932  0.6098
18088TIP3    H175755   0.877   5.073  12.287 -0.0494  0.6329  0.1268
18088TIP3    H275756   0.785   5.185  12.330  0.5464  1.0285  0.3874
18089TIP3   OH275757   3.058   4.685   1.308 -0.0638 -0.1344  0.0169
18089TIP3    H175758   3.097   4.702   1.394 -0.2215 -1.8475  0.4564
18089TIP3    H275759   3.111   4.616   1.270 -0.6544 -0.1533 -0.8015
18090TIP3   OH275760   1.486   3.100  15.057 -0.0250  0.3790 -0.0147
18090TIP3    H175761   1.485   3.183  15.010  2.5922 -0.2655 -1.3830
18090TIP3    H275762   1.471   3.124  15.149  1.5752  2.5161 -0.2415
18091TIP3   OH275763   4.410   4.916   5.015 -0.2403 -0.0122 -0.0228
18091TIP3    H175764   4.446   4.834   4.982  0.8514  0.3205  0.2836
18091TIP3    H275765   4.315   4.901   5.020 -0.1044 -1.0795 -0.4188
18092TIP3   OH275766   2.717   1.127  16.826  0.1728  0.1538  0.4477
18092TIP3    H175767   2.778   1.177  16.772  0.4859 -0.0064  0.6513
18092TIP3    H275768   2.730   1.036  16.799 -0.3671  0.1725  0.1042
18093TIP3   OH275769   0.386   3.728  14.107 -0.1251  0.0556 -0.1065
18093TIP3    H175770   0.481   3.739  14.107 -0.1481  0.5231  1.5578
18093TIP3    H275771   0.372   3.638  14.076  0.8672 -0.1215 -0.0712
18094TIP3   OH275772   0.701   6.210   2.700  0.7261 -0.1057 -0.7433
18094TIP3    H175773   0.734   6.216   2.611  1.6632  0.4187 -0.3690
18094TIP3    H275774   0.756   6.269   2.751 -0.8884  0.9187 -0.1164
18095TIP3   OH275775   0.520   5.895   0.440  0.0095  0.4147  0.2327
18095TIP3    H175776   0.606   5.924   0.470  0.3808  0.2238 -0.5984
18095TIP3    H275777   0.485   5.970   0.391  0.6085 -0.1966 -1.1950
18096TIP3   OH275778   3.748   1.285   1.071 -0.2671  0.0072 -0.0365
18096TIP3    H175779   3.747   1.201   1.117 -0.5287  0.2611  0.4312
18096TIP3    H275780   3.840   1.299   1.050 -0.2910 -0.6544 -0.6057
18097TIP3   OH275781   3.309   6.337   6.031  0.5288 -0.8546  0.3927
18097TIP3    H175782   3.219   6.370   6.025  2.1554  4.1673 -1.3871
18097TIP3    H275783   3.333   6.353   6.123  0.4646  0.8646  0.1556
18098TIP3   OH275784   3.777   1.084   5.651 -0.3761 -0.3350  0.3884
18098TIP3    H175785   3.734   1.087   5.565  0.4543 -0.4528 -0.0442
18098TIP3    H275786   3.841   1.156   5.648  0.3274 -0.9382  0.5319
18099TIP3   OH275787   5.224   3.362   1.165 -0.0740 -0.6930 -0.5453
18099TIP3    H175788   5.144   3.413   1.180 -0.9949 -1.9089 -1.1071
18099TIP3    H275789   5.291   3.407   1.216 -0.8897  0.9237 -0.8294
18100TIP3   OH275790   6.666   6.739   3.375  0.3727  0.1177 -0.3963
18100TIP3    H175791   6.580   6.701   3.360  1.1459 -1.4065 -1.1815
18100TIP3    H275792   6.676   6.804   3.306  0.1580 -0.2448 -0.7711
18101TIP3   OH275793   1.467   6.214  14.964  0.2482 -0.4807 -0.0647
18101TIP3    H175794   1.418   6.290  14.993  1.3376 -0.6920  2.6138
18101TIP3    H275795   1.432   6.141  15.015  1.2410 -1.2117 -0.3839
18102TIP3   OH275796   1.517   1.519   0.312 -0.3773 -0.7073 -0.8670
18102TIP3    H175797   1.603   1.480   0.297  0.1163  0.0201  0.0556
18102TIP3    H275798   1.491   1.488   0.399 -1.4076 -1.5501 -1.4424
18103TIP3   OH275799   1.524   3.020   5.570  0.1583 -0.5298 -0.7410
18103TIP3    H175800   1.488   2.974   5.646  0.8914  1.8979  1.1732
18103TIP3    H275801   1.616   2.993   5.566 -0.2561 -1.9385 -1.8706
18104TIP3   OH275802   6.355   0.563  11.152  0.2608 -0.3653  0.4607
18104TIP3    H175803   6.334   0.639  11.097  0.7846  0.5319  1.4672
18104TIP3    H275804   6.393   0.601  11.231 -2.4435 -1.4939  2.4216
18105TIP3   OH275805   2.527   0.541  13.820  0.3704 -0.1352 -0.2993
18105TIP3    H175806   2.504   0.600  13.891  0.0726 -0.7917  0.1629
18105TIP3    H275807   2.601   0.583  13.776  2.6937 -1.1637  2.3465
18106TIP3   OH275808   5.268   5.917   0.630  0.0431 -0.2936 -0.1791
18106TIP3    H175809   5.334   5.935   0.697 -0.5457  0.0205  0.3250
18106TIP3    H275810   5.257   6.000   0.584  0.2235 -0.4306 -0.4802
18107TIP3   OH275811   5.723   4.051   4.934  0.2811 -0.0422  0.2359
18107TIP3    H175812   5.666   4.062   4.858 -1.9740  1.0741  1.9383
18107TIP3    H275813   5.726   3.957   4.948 -0.9363 -0.1590 -0.1037
18108TIP3   OH275814   5.468   1.449   0.004 -0.2116  0.0441  0.2952
18108TIP3    H175815   5.511   1.485   0.082 -0.7244  0.4831  0.3806
18108TIP3    H275816   5.448   1.359   0.028  2.6132 -0.9121 -0.5185
18109TIP3   OH275817   4.420   1.548   0.231  0.3296 -0.3703 -0.3956
18109TIP3    H175818   4.382   1.474   0.277  1.5504 -1.6522 -1.3787
18109TIP3    H275819   4.362   1.563   0.156  0.2282 -0.5155 -0.3452
18110TIP3   OH275820   4.325   5.458  10.473 -0.4866 -0.0210 -0.3885
18110TIP3    H175821   4.272   5.531  10.439 -1.1092  1.1134  2.7300
18110TIP3    H275822   4.404   5.500  10.507  0.0015 -1.0566 -0.2199
18111TIP3   OH275823   4.283   0.977  14.675  0.0953 -0.4425 -0.3383
18111TIP3    H175824   4.286   0.883  14.659 -1.8109 -0.6634  0.4223
18111TIP3    H275825   4.375   1.004  14.677  0.6511 -2.0850 -1.6022
18112TIP3   OH275826   3.076   6.036   3.927  0.0240  0.1312  0.2981
18112TIP3    H175827   3.075   6.092   3.849  0.3213  2.1692  1.6684
18112TIP3    H275828   3.167   6.041   3.958 -0.3820  0.4810  1.4976
18113TIP3   OH275829   0.353   2.854  16.862 -0.6944 -0.1107 -0.3458
18113TIP3    H175830   0.357   2.817  16.774 -0.7101 -3.3085  0.8412
18113TIP3    H275831   0.439   2.834  16.900 -1.1544 -0.0412  0.7767
18114TIP3   OH275832   5.662   6.673   1.741  0.5853 -0.5790  0.1553
18114TIP3    H175833   5.683   6.638   1.654  0.0274  0.7120 -0.5169
18114TIP3    H275834   5.674   6.767   1.732 -0.2158 -0.3606  1.2807
18115TIP3   OH275835   3.656   0.495  17.290 -0.3992  0.0789 -0.1592
18115TIP3    H175836   3.748   0.467  17.295 -0.3808  0.2620  0.5704
18115TIP3    H275837   3.657   0.566  17.225  0.3153  1.3568  1.1744
18116TIP3   OH275838   1.523   4.563  12.602 -0.0668  0.2431  0.4219
18116TIP3    H175839   1.573   4.620  12.660 -1.3993  0.1728  1.6985
18116TIP3    H275840   1.444   4.542  12.651 -0.1745 -1.7273 -0.4891
18117TIP3   OH275841   4.676   2.258  15.011 -0.1239 -0.2258 -0.0822
18117TIP3    H175842   4.684   2.324  14.942  2.9475 -0.7275 -0.3772
18117TIP3    H275843   4.588   2.222  15.000 -0.8133  1.7701 -1.7829
18118TIP3   OH275844   1.416   0.617  15.058  0.4099 -0.1228 -0.0953
18118TIP3    H175845   1.443   0.617  15.150  2.3332 -1.4637 -0.5955
18118TIP3    H275846   1.368   0.699  15.048  0.6682  0.3548  1.9527
18119TIP3   OH275847   6.762   2.840  16.655  0.0813 -0.3542  0.1173
18119TIP3    H175848   6.768   2.783  16.579  0.8733  1.0767 -0.9461
18119TIP3    H275849   6.678   2.817  16.696 -1.2450  0.0189 -2.2054
18120TIP3   OH275850   4.834   4.204  14.496 -0.1569  0.0894  0.1542
18120TIP3    H175851   4.842   4.119  14.539 -0.6148  2.1769  5.0646
18120TIP3    H275852   4.745   4.203  14.459 -1.0003 -0.8861  2.0496
18121TIP3   OH275853   0.021   4.420  13.738 -0.4501 -0.1618 -0.3711
18121TIP3    H175854  -0.051   4.357  13.740 -0.4170 -0.3739 -2.8035
18121TIP3    H275855  -0.005   4.488  13.801  0.2180 -3.1743  3.5351
18122TIP3   OH275856   0.754   6.077  13.008 -0.3910 -0.3245 -0.3079
18122TIP3    H175857   0.702   6.154  13.034 -1.7249 -1.3524  0.2163
18122TIP3    H275858   0.699   6.032  12.944 -0.2835 -1.5973  0.4653
18123TIP3   OH275859   5.459   3.691   1.058  0.2215  0.0850 -0.1339
18123TIP3    H175860   5.441   3.635   0.983  3.0246  0.4932 -1.2336
18123TIP3    H275861   5.554   3.684   1.071  0.0680  1.3882  2.2879
18124TIP3   OH275862   5.082   6.546  16.476  0.0345 -0.2471 -0.0035
18124TIP3    H175863   5.011   6.579  16.421  0.1781 -0.8998 -0.5929
18124TIP3    H275864   5.160   6.591  16.443  0.1530 -0.7912 -0.4822
18125TIP3   OH275865   4.835   5.880  14.462 -0.1982 -0.3976  0.0535
18125TIP3    H175866   4.759   5.826  14.439  1.3505 -2.0341 -1.6524
18125TIP3    H275867   4.884   5.827  14.524  0.5928 -0.3041 -0.4797
18126TIP3   OH275868   4.674   5.613  15.270 -0.0203  0.3052  0.3120
18126TIP3    H175869   4.693   5.520  15.268 -1.7676 -0.0891  0.2125
18126TIP3    H275870   4.727   5.650  15.199 -1.1576 -1.0244 -1.3188
18127TIP3   OH275871   4.848   2.778   5.809  0.1926 -0.7313  0.0724
18127TIP3    H175872   4.868   2.690   5.839  0.2101 -0.1983  1.7051
18127TIP3    H275873   4.767   2.802   5.855  0.7089  0.4496  0.4022
18128TIP3   OH275874   3.588   1.034   4.469  0.5516 -0.2001 -0.5796
18128TIP3    H175875   3.575   1.070   4.556  1.7823  1.1858 -0.9285
18128TIP3    H275876   3.513   0.975   4.455 -0.3152  0.5156  0.9027
18129TIP3   OH275877   5.838   6.175   5.208  0.0679 -0.4950 -0.5939
18129TIP3    H175878   5.852   6.235   5.281 -0.8790 -0.3736 -0.5109
18129TIP3    H275879   5.749   6.191   5.179 -0.0223 -1.4884 -0.9158
18130TIP3   OH275880   2.777   0.064  13.166 -0.1333  0.3755  0.6458
18130TIP3    H175881   2.757   0.152  13.197 -0.7958  0.5447 -0.2083
18130TIP3    H275882   2.695   0.034  13.127  1.1146  0.9839 -2.7628
18131TIP3   OH275883   3.826   0.248  13.922 -0.1547  0.1667  0.4872
18131TIP3    H175884   3.770   0.322  13.948 -0.5051 -0.1203  0.5616
18131TIP3    H275885   3.874   0.226  14.001  0.0905  0.4370  0.4145
18132TIP3   OH275886   5.764   5.847  16.107  0.7148  0.3307 -0.1860
18132TIP3    H175887   5.699   5.911  16.079  0.3045  1.0853  2.3380
18132TIP3    H275888   5.734   5.765  16.069 -0.3398  1.0897 -1.0757
18133TIP3   OH275889   0.342   2.772  10.961 -0.4725 -0.3053 -0.5613
18133TIP3    H175890   0.313   2.735  10.878  2.2577  0.2686 -1.8918
18133TIP3    H275891   0.400   2.844  10.937 -0.1483  0.3394  1.8691
18134TIP3   OH275892   4.573   3.681  12.249  0.3052  0.3130 -0.0834
18134TIP3    H175893   4.579   3.669  12.344  0.6355 -0.2108 -0.1665
18134TIP3    H275894   4.497   3.630  12.223  1.5513 -1.5071 -0.4006
18135TIP3   OH275895   0.431   3.727   4.650 -0.0148 -0.1311  0.3462
18135TIP3    H175896   0.354   3.784   4.663  1.0440  1.4044  0.1394
18135TIP3    H275897   0.503   3.776   4.690  0.6788 -2.1076  1.6596
18136TIP3   OH275898   0.267   4.640  11.970 -0.2982 -0.0370  0.0451
18136TIP3    H175899   0.172   4.655  11.971 -0.8446 -2.9032 -0.3839
18136TIP3    H275900   0.299   4.691  12.045 -2.3819 -0.0678  1.0518
18137TIP3   OH275901   1.260   0.122   4.102 -0.0728 -0.1687  0.4110
18137TIP3    H175902   1.331   0.115   4.167 -0.7530 -0.8306  1.1072
18137TIP3    H275903   1.268   0.211   4.068 -0.7945  0.8532  2.7106
18138TIP3   OH275904   5.245   4.754   3.786  0.1946 -0.0859 -0.5268
18138TIP3    H175905   5.267   4.839   3.750 -0.3071  1.0165  1.6379
18138TIP3    H275906   5.328   4.716   3.814  0.5190 -0.7127 -2.2378
18139TIP3   OH275907   3.463   3.065   3.624  0.2154  0.2210  0.1517
18139TIP3    H175908   3.402   3.026   3.687  1.2186  0.8827  1.6020
18139TIP3    H275909   3.484   3.151   3.662  0.0224  1.1045 -1.6638
18140TIP3   OH275910   1.645   6.697  17.268 -0.0367 -0.3138 -1.1744
18140TIP3    H175911   1.723   6.644  17.257 -0.6682 -1.5564  0.0116
18140TIP3    H275912   1.576   6.634  17.288 -0.7304  0.9615  0.6979
18141TIP3   OH275913   4.907   0.258  16.925  0.0606  0.1440  0.0422
18141TIP3    H175914   4.902   0.337  16.979  2.4478 -0.3468  1.1307
18141TIP3    H275915   4.846   0.197  16.967 -1.3220  1.1651 -0.4266
18142TIP3   OH275916   3.223   1.589   3.770  0.6629  0.4706 -0.3433
18142TIP3    H175917   3.193   1.549   3.688 -1.9906  0.9643  0.2820
18142TIP3    H275918   3.243   1.680   3.746 -0.5609  0.7414 -0.3926
18143TIP3   OH275919   2.592   3.686  17.140  0.2480  0.3034  0.2486
18143TIP3    H175920   2.554   3.599  17.128  0.6876  0.2587 -0.8908
18143TIP3    H275921   2.607   3.719  17.052  0.5050  1.3609  0.6668
18144TIP3   OH275922   6.516   2.973   3.084  0.1975  0.2325 -0.2830
18144TIP3    H175923   6.530   2.962   2.990 -0.8002 -0.5016 -0.3594
18144TIP3    H275924   6.477   3.060   3.092  0.1178  0.2243 -0.5701
18145TIP3   OH275925   2.674   4.128   4.822 -0.4073  0.4958  0.2077
18145TIP3    H175926   2.612   4.153   4.890  0.7802  2.3782  0.6584
18145TIP3    H275927   2.686   4.033   4.833 -3.3583 -0.0055 -0.0891
18146TIP3   OH275928   6.346   3.804  13.362 -0.4742  0.2117  0.2076
18146TIP3    H175929   6.380   3.871  13.421  0.4664  3.4403 -3.5790
18146TIP3    H275930   6.253   3.797  13.385 -0.4101  2.2148  1.2893
18147TIP3   OH275931   0.825   2.441   4.965  0.6640 -0.3460  0.4540
18147TIP3    H175932   0.790   2.489   4.890 -0.0222  1.1711  1.6726
18147TIP3    H275933   0.918   2.430   4.946  0.2036 -1.5357 -1.3613
18148TIP3   OH275934   5.835   3.920   1.265  0.0820  0.4437  0.5023
18148TIP3    H175935   5.818   3.982   1.336  1.1463  0.9830  0.2978
18148TIP3    H275936   5.928   3.901   1.272  0.1952  0.4799 -0.7365
18149TIP3   OH275937   5.942   5.005  12.742  0.2587  0.0665 -0.3860
18149TIP3    H175938   5.889   4.939  12.697 -0.8028  0.1100  0.7491
18149TIP3    H275939   5.996   4.954  12.804 -0.0856  0.2026  0.0286
18150TIP3   OH275940   5.585   2.216   6.879  0.1279 -0.2775  0.4981
18150TIP3    H175941   5.659   2.273   6.857 -0.6005 -0.1107 -1.7056
18150TIP3    H275942   5.524   2.227   6.807 -2.0012 -0.5734  2.1692
18151TIP3   OH275943   3.486   3.731   4.942  0.5242  0.1701  0.3154
18151TIP3    H175944   3.538   3.784   5.003  1.2425 -0.7975  0.5744
18151TIP3    H275945   3.551   3.681   4.893 -0.1317 -0.2783 -0.1073
18152TIP3   OH275946   5.991   1.936   2.323  0.4874  0.0174  0.8016
18152TIP3    H175947   5.973   1.976   2.408  2.5712  0.8791  0.8917
18152TIP3    H275948   5.986   2.008   2.261 -1.7201 -0.7168 -0.0084
18153TIP3   OH275949   1.114   5.453  15.207  0.5371  0.0938 -0.4898
18153TIP3    H175950   1.108   5.543  15.175  1.1723  0.7732  1.1626
18153TIP3    H275951   1.073   5.456  15.294  1.0287 -1.0914 -0.1995
18154TIP3   OH275952   1.905   2.224  11.824 -0.2086 -0.0513  0.0866
18154TIP3    H175953   1.944   2.226  11.737  0.3167 -0.2598  0.3092
18154TIP3    H275954   1.929   2.308  11.863 -1.8387  0.7529 -0.5453
18155TIP3   OH275955   5.891   2.265  12.010  0.5957  0.4602  0.1601
18155TIP3    H175956   5.901   2.323  12.085  0.5977 -0.3601  0.8062
18155TIP3    H275957   5.980   2.239  11.986  0.5292 -0.5153  0.8820
18156TIP3   OH275958   0.914   6.044   5.643  0.2820 -0.1169 -0.1093
18156TIP3    H175959   0.835   6.050   5.698  0.1378  1.2811 -0.4180
18156TIP3    H275960   0.973   5.987   5.692  0.6950  2.1402  2.2208
18157TIP3   OH275961   1.640   5.560  14.684 -0.2487  0.2049  0.0942
18157TIP3    H175962   1.550   5.590  14.678 -0.5565 -0.1758  2.1079
18157TIP3    H275963   1.643   5.482  14.629 -0.8742  0.7539 -0.7395
18158TIP3   OH275964   4.721   1.361   1.212 -1.1480  0.3409 -0.4452
18158TIP3    H175965   4.691   1.399   1.295  2.7176 -0.6128  1.6116
18158TIP3    H275966   4.733   1.268   1.231 -0.9256 -0.0573 -2.3497
18159TIP3   OH275967   3.868   0.743  11.231  0.4666  0.0872 -0.0222
18159TIP3    H175968   3.941   0.781  11.282 -0.5654  2.3317 -0.0934
18159TIP3    H275969   3.813   0.700  11.297 -0.0677  1.6524  0.5941
18160TIP3   OH275970   0.258   2.534   4.244 -0.0600  0.2476 -0.1540
18160TIP3    H175971   0.303   2.617   4.261  1.8569 -0.6065 -0.6831
18160TIP3    H275972   0.263   2.524   4.149  1.0873 -1.1356  0.0099
18161TIP3   OH275973   6.615   3.040   0.659 -0.0063 -0.4914  0.5991
18161TIP3    H175974   6.662   2.979   0.716  0.2667 -0.2747  0.6106
18161TIP3    H275975   6.627   3.125   0.700  0.0755 -0.3526  0.2939
18162TIP3   OH275976   4.311   1.036  11.951 -0.0114 -0.4272  0.1185
18162TIP3    H175977   4.347   1.046  12.039 -0.5156  1.1512  0.1728
18162TIP3    H275978   4.221   1.069  11.958 -0.3613 -1.1349 -0.7914
18163TIP3   OH275979   5.322   0.892  15.281 -0.2481  0.4009  0.1806
18163TIP3    H175980   5.405   0.901  15.233 -0.8356  0.3917 -0.8578
18163TIP3    H275981   5.292   0.981  15.294  1.0231  0.5484  2.5820
18164TIP3   OH275982   6.094   2.075  15.648 -0.8532  0.1323 -0.1739
18164TIP3    H175983   6.000   2.092  15.640 -0.7837  0.1444 -1.0398
18164TIP3    H275984   6.135   2.160  15.631 -0.6468 -0.1020 -0.8633
18165TIP3   OH275985   3.813   6.195  17.108  0.0332 -0.0121 -0.6860
18165TIP3    H175986   3.749   6.130  17.138  0.2188  0.1361  0.0446
18165TIP3    H275987   3.865   6.215  17.186 -0.0653  1.0717 -0.8915
18166TIP3   OH275988   6.761   5.642   3.636  0.1285 -0.3227  0.5782
18166TIP3    H175989   6.788   5.653   3.727 -1.6956  0.2093  1.1027
18166TIP3    H275990   6.701   5.714   3.620  1.9747  0.8211 -1.7513
18167TIP3   OH275991   4.528   2.772  15.216 -0.2399 -0.0406  0.2486
18167TIP3    H175992   4.483   2.730  15.288  0.7236 -1.0395  0.2947
18167TIP3    H275993   4.606   2.811  15.255  0.2650 -0.5480 -0.2304
18168TIP3   OH275994   6.578   0.217  15.785 -0.3465  0.4461 -0.2721
18168TIP3    H175995   6.576   0.181  15.696  1.5349 -0.0269 -0.1577
18168TIP3    H275996   6.526   0.297  15.779 -0.3990  0.3366 -1.7556
18169TIP3   OH275997   6.318   4.832   3.064  0.2896  0.2670 -0.4875
18169TIP3    H175998   6.397   4.782   3.086  0.1948 -0.2058 -1.2199
18169TIP3    H275999   6.270   4.837   3.147  1.0349  0.4725 -0.0580
18170TIP3   OH276000   4.200   5.877  16.122 -0.9527 -0.2573  0.4416
18170TIP3    H176001   4.161   5.939  16.060  1.2508  1.3672  0.5537
18170TIP3    H276002   4.202   5.924  16.205  2.2102  0.2959  0.1928
18171TIP3   OH276003   4.332   3.863   1.262  0.5099 -0.6240 -0.6715
18171TIP3    H176004   4.403   3.799   1.260  3.0939  2.0411 -1.7137
18171TIP3    H276005   4.377   3.948   1.270 -2.7501  1.0362  2.7533
18172TIP3   OH276006   4.782   4.642   2.431 -0.4427  0.5903  0.2683
18172TIP3    H176007   4.737   4.701   2.492  0.0726  1.2527  0.0204
18172TIP3    H276008   4.868   4.681   2.419 -0.7166  0.7975 -1.3121
18173TIP3   OH276009   1.361   3.389   1.401  0.5999 -0.2619  0.2593
18173TIP3    H176010   1.318   3.420   1.321 -0.1933 -0.7998  0.4699
18173TIP3    H276011   1.390   3.301   1.380  0.7555 -0.2527  0.4350
18174TIP3   OH276012   1.045   1.971  15.962  0.0313 -0.0638 -0.0369
18174TIP3    H176013   1.117   1.917  15.996  0.7019  0.4181 -0.6727
18174TIP3    H276014   1.083   2.016  15.887 -0.8070  0.5647 -0.0862
18175TIP3   OH276015   6.499   5.129  16.388  0.3344 -0.2849  0.1886
18175TIP3    H176016   6.545   5.100  16.466  0.5925  0.4787  0.3232
18175TIP3    H276017   6.567   5.139  16.322  0.1849 -0.4149  0.0122
18176TIP3   OH276018   2.705   3.926  15.310  0.2730  0.2260  0.2775
18176TIP3    H176019   2.747   3.889  15.387 -0.7208 -1.3134  0.1315
18176TIP3    H276020   2.680   4.014  15.336  1.2747  0.2514  1.2060
18177TIP3   OH276021   6.602   2.263  13.648  0.2094 -0.0512  0.4067
18177TIP3    H176022   6.645   2.207  13.712  0.0346  1.2632  1.7243
18177TIP3    H276023   6.631   2.230  13.563  2.1267 -0.5113  1.2045
18178TIP3   OH276024   3.882   3.201  16.148  0.5876 -0.1277 -0.4170
18178TIP3    H176025   3.881   3.291  16.116  1.8405 -0.4531 -1.4686
18178TIP3    H276026   3.973   3.173  16.138  0.4625 -1.1425  0.9880
18179TIP3   OH276027   6.418   6.000   1.858 -0.4648 -0.4732  0.1607
18179TIP3    H176028   6.469   6.081   1.864 -0.8560 -0.3144  1.5685
18179TIP3    H276029   6.480   5.934   1.828  0.0498  0.1750 -0.2084
18180TIP3   OH276030   3.422   2.195  12.947  0.7346 -0.6401  0.1101
18180TIP3    H176031   3.457   2.106  12.948  0.4434 -0.7745  1.5689
18180TIP3    H276032   3.475   2.242  13.011 -1.0694 -0.6051  1.6518
18181TIP3   OH276033   2.276   2.381  14.305 -0.4825 -0.3901  0.1496
18181TIP3    H176034   2.207   2.331  14.349  0.4235 -1.9472 -0.1515
18181TIP3    H276035   2.353   2.372  14.362 -0.2498  0.5279  0.0006
18182TIP3   OH276036   0.911   6.753   3.875 -0.1629  0.5578 -0.4208
18182TIP3    H176037   0.817   6.747   3.889 -0.1643  0.2059 -0.5782
18182TIP3    H276038   0.949   6.743   3.962 -0.2035 -0.8752 -0.5507
18183TIP3   OH276039   1.658   6.825  12.004  0.3974 -0.4988 -0.1109
18183TIP3    H176040   1.582   6.797  12.055 -0.7985  0.0971 -1.4872
18183TIP3    H276041   1.680   6.912  12.039 -1.1203  0.4008 -1.2875
18184TIP3   OH276042   4.182   6.027   5.287  0.2621 -0.7183  0.3596
18184TIP3    H176043   4.248   6.025   5.356  1.2477 -0.5358 -0.5485
18184TIP3    H276044   4.115   6.086   5.320  0.9466 -0.2560  0.9720
18185TIP3   OH276045   0.829   3.327  14.799 -0.5401 -0.5609 -0.2636
18185TIP3    H176046   0.775   3.247  14.799  0.6971 -1.4185  0.7155
18185TIP3    H276047   0.828   3.356  14.890 -1.1336  0.6739 -0.6515
18186TIP3   OH276048   5.764   0.149  16.501  0.1156  0.2454 -0.0343
18186TIP3    H176049   5.846   0.129  16.548 -0.6589 -0.8771  0.9194
18186TIP3    H276050   5.791   0.203  16.428  1.5922  0.7497  0.8343
18187TIP3   OH276051   4.759   0.382   0.095  0.1008  0.2569 -1.3053
18187TIP3    H176052   4.820   0.354   0.026  1.0511 -1.1248  0.0283
18187TIP3    H276053   4.702   0.307   0.109 -0.0010  0.4727 -0.5000
18188TIP3   OH276054   0.716   4.731  15.256 -0.6151  0.1252 -0.0991
18188TIP3    H176055   0.687   4.781  15.180 -0.8749 -3.7220 -2.8899
18188TIP3    H276056   0.643   4.672  15.275  0.3108 -0.5259  1.7009
18189TIP3   OH276057   2.302   2.229  11.755  0.3027 -0.0756 -0.2396
18189TIP3    H176058   2.281   2.158  11.815  0.2259 -1.6739 -2.0602
18189TIP3    H276059   2.359   2.190  11.689  1.2092  1.8478 -0.6850
18190TIP3   OH276060   2.202   6.485  15.487  0.6727 -0.2543  0.1537
18190TIP3    H176061   2.122   6.432  15.492 -1.1390  2.3779  0.9377
18190TIP3    H276062   2.221   6.490  15.393 -0.5167 -0.3152 -0.1058
18191TIP3   OH276063   4.957   1.415   2.227  0.1143  0.0197 -0.1575
18191TIP3    H176064   5.029   1.472   2.255  0.8906 -0.5390 -0.9451
18191TIP3    H276065   4.904   1.469   2.169 -0.9658  0.8896  1.5430
18192TIP3   OH276066   1.884   1.219  13.147  0.2117 -0.2453 -0.3139
18192TIP3    H176067   1.950   1.232  13.079  1.5970 -1.4782  0.7153
18192TIP3    H276068   1.809   1.273  13.120  2.0519  2.1667 -0.9250
18193TIP3   OH276069   6.368   4.500  10.407  0.3037  0.1142  0.0318
18193TIP3    H176070   6.382   4.427  10.468 -1.5250  0.0158  0.3829
18193TIP3    H276071   6.344   4.574  10.462 -1.2783  0.0538 -0.5285
18194TIP3   OH276072   5.142   6.260  17.320 -0.7088 -0.3792  0.3660
18194TIP3    H176073   5.084   6.268  17.395  0.4071  0.9376  1.1414
18194TIP3    H276074   5.229   6.277  17.356 -0.1728  0.5193 -1.2712
18195TIP3   OH276075   5.546   2.323   2.996  0.5284  0.3784 -0.3008
18195TIP3    H176076   5.559   2.406   2.950  0.7210  0.2859 -0.4142
18195TIP3    H276077   5.614   2.322   3.063  0.4760  0.3476 -0.2474
18196TIP3   OH276078   2.203   6.602  13.100 -0.3769  0.2260 -0.3559
18196TIP3    H176079   2.283   6.583  13.149 -0.5169 -0.2064 -0.2899
18196TIP3    H276080   2.141   6.535  13.128 -0.0419 -0.9006 -2.1284
18197TIP3   OH276081   5.933   2.005  15.912  0.0239  0.1614  0.2411
18197TIP3    H176082   5.906   1.924  15.954  0.0096 -0.1178 -0.2924
18197TIP3    H276083   5.853   2.059  15.909 -0.8781 -1.1278 -2.4090
18198TIP3   OH276084   1.811   3.927  15.307  0.4933 -0.1666 -0.0759
18198TIP3    H176085   1.720   3.916  15.280  1.0953 -1.5640 -1.7151
18198TIP3    H276086   1.817   4.019  15.333 -1.1172  0.2342 -0.9713
18199TIP3   OH276087   2.236   4.401   5.031 -0.2086  0.2237 -0.2489
18199TIP3    H176088   2.196   4.484   5.056 -0.4599  0.1664 -0.4524
18199TIP3    H276089   2.330   4.417   5.035 -0.1926  1.2960 -2.7363
18200TIP3   OH276090   1.234   0.337   1.512  0.4643 -0.3756  0.1180
18200TIP3    H176091   1.327   0.328   1.495  0.3265 -1.8320  0.0079
18200TIP3    H276092   1.192   0.275   1.453 -0.4703 -0.7358  1.1118
18201TIP3   OH276093   2.808   1.737  13.830  0.3316  0.0272 -0.5006
18201TIP3    H176094   2.740   1.802  13.849 -0.5361 -0.3394 -2.1626
18201TIP3    H276095   2.781   1.660  13.880 -0.6300 -0.1930 -1.3315
18202TIP3   OH276096   1.585   5.434  12.265  0.2912 -0.6579  0.7204
18202TIP3    H176097   1.614   5.484  12.341  0.1964  0.3589  0.1128
18202TIP3    H276098   1.492   5.419  12.281 -0.0534  0.7424  0.2043
18203TIP3   OH276099   4.608   4.099  11.612 -0.1765  0.3030 -0.1402
18203TIP3    H176100   4.703   4.105  11.627 -0.1322  0.6089 -0.5419
18203TIP3    H276101   4.580   4.027  11.669  0.1737  0.7011  0.5425
18204TIP3   OH276102   3.234   5.791   0.543  0.0685  0.3837 -0.1077
18204TIP3    H176103   3.145   5.819   0.564  0.2331 -0.5241  2.0496
18204TIP3    H276104   3.237   5.699   0.572  1.7605  0.4662  0.0194
18205TIP3   OH276105   6.652   1.561   4.061 -0.4462  0.2203 -0.5094
18205TIP3    H176106   6.607   1.628   4.008 -1.3241 -0.6586 -0.9187
18205TIP3    H276107   6.611   1.567   4.147  0.4960  1.1793 -0.1108
18206TIP3   OH276108   1.853   5.643  14.052  0.5901  0.0282 -0.0720
18206TIP3    H176109   1.940   5.635  14.011  1.0422 -1.0572  1.0350
18206TIP3    H276110   1.860   5.723  14.104  0.2125  1.0807 -1.5690
18207TIP3   OH276111   4.660   4.624   2.185 -0.0499 -0.9265 -0.2595
18207TIP3    H176112   4.697   4.616   2.273  0.3642 -0.5544 -0.3978
18207TIP3    H276113   4.680   4.713   2.158 -0.5001 -0.9226 -0.5882
18208TIP3   OH276114   3.199   0.204   2.026 -0.3915 -0.3318  0.4950
18208TIP3    H176115   3.103   0.201   2.028 -0.4949  1.5246  0.0507
18208TIP3    H276116   3.223   0.146   1.953 -1.0350 -2.2418  1.7294
18209TIP3   OH276117   2.781   5.285   3.535  0.1918 -0.2951  0.2137
18209TIP3    H176118   2.732   5.207   3.508 -2.0071  1.4387 -1.1092
18209TIP3    H276119   2.862   5.281   3.483 -0.2774 -1.2681 -0.4850
18210TIP3   OH276120   3.373   2.220   0.716  0.0692  0.5217 -0.6216
18210TIP3    H176121   3.305   2.187   0.775 -0.4190  0.2039 -1.3464
18210TIP3    H276122   3.442   2.252   0.774 -1.0804  1.7111  0.1488
18211TIP3   OH276123   5.011   1.403  13.770  0.5664 -1.1990 -0.3717
18211TIP3    H176124   4.998   1.460  13.845  0.5496 -1.2345 -0.3477
18211TIP3    H276125   5.106   1.389  13.768  0.5091 -1.6645 -0.0130
18212TIP3   OH276126   2.361   1.201  16.559  0.4531  0.4369  0.0437
18212TIP3    H176127   2.278   1.244  16.541  0.8976  0.8597 -1.0831
18212TIP3    H276128   2.424   1.272  16.570  0.2656  0.2475  3.4269
18213TIP3   OH276129   2.697   4.498   4.215 -0.0893 -0.2569 -0.5951
18213TIP3    H176130   2.714   4.586   4.181 -0.8026 -0.1455 -0.6882
18213TIP3    H276131   2.718   4.440   4.142 -1.5939 -0.0185 -1.2669
18214TIP3   OH276132   6.746   0.243   2.939  0.2215  0.1541  0.2980
18214TIP3    H176133   6.713   0.251   2.850  1.2214  1.0475 -0.0228
18214TIP3    H276134   6.821   0.303   2.942 -0.0937  0.5248  1.8878
18215TIP3   OH276135   0.691   1.743   2.565  0.2779 -0.1795 -0.4082
18215TIP3    H176136   0.714   1.662   2.520  1.0382  0.4684 -1.2515
18215TIP3    H276137   0.727   1.733   2.653 -0.0060 -0.9223 -0.3762
18216TIP3   OH276138   1.594   6.226  14.712  0.0083 -0.0196  0.0302
18216TIP3    H176139   1.579   6.235  14.806 -2.8194  1.9270 -0.4894
18216TIP3    H276140   1.650   6.300  14.689 -0.5169  0.3803  0.0020
18217TIP3   OH276141   6.489   6.154   1.580 -0.4096 -0.0261 -0.1100
18217TIP3    H176142   6.394   6.160   1.589 -0.3287 -0.1079  0.8654
18217TIP3    H276143   6.522   6.152   1.669  0.5057 -0.1662 -0.4374
18218TIP3   OH276144   1.765   2.651  12.869 -0.0511  0.1741  0.0558
18218TIP3    H176145   1.850   2.693  12.858  0.7064 -1.0792  0.9128
18218TIP3    H276146   1.718   2.709  12.929 -0.0786  1.2135 -0.9298
18219TIP3   OH276147   2.401   6.544  13.273  0.0625  0.0347  0.1854
18219TIP3    H176148   2.407   6.452  13.301 -1.2063 -1.0987 -2.7980
18219TIP3    H276149   2.440   6.545  13.186  0.9946  2.6056  0.5556
18220TIP3   OH276150   2.886   2.007  16.665  0.3406  0.4409  0.6794
18220TIP3    H176151   2.953   1.940  16.672 -0.4155 -0.5203 -0.6384
18220TIP3    H276152   2.806   1.966  16.698 -0.4720  0.0762 -1.5053
18221TIP3   OH276153   4.709   2.086   2.955 -0.3737  0.0432 -0.3374
18221TIP3    H176154   4.640   2.051   2.899 -0.3451  0.4223 -0.6158
18221TIP3    H276155   4.706   2.181   2.939  1.3030 -0.0820 -1.6249
18222TIP3   OH276156   5.419   1.763  15.566  0.4437 -0.1896  0.5157
18222TIP3    H176157   5.390   1.761  15.658 -1.2008 -1.9772  0.0417
18222TIP3    H276158   5.346   1.803  15.520  1.1060  0.3570 -0.0591
18223TIP3   OH276159   5.086   6.506   4.542  0.1496 -0.6224 -0.6172
18223TIP3    H176160   5.077   6.456   4.461  0.0210  0.0579 -1.0318
18223TIP3    H276161   5.027   6.463   4.604  0.0421 -0.9809 -0.9680
18224TIP3   OH276162   3.005   4.153  13.279  0.0054  0.1884 -0.1454
18224TIP3    H176163   3.009   4.218  13.210  0.1305 -0.1628 -0.4750
18224TIP3    H276164   3.001   4.069  13.233  0.5732 -0.0760  0.2634
18225TIP3   OH276165   0.941   6.541  17.092  0.4969 -0.0953 -0.8713
18225TIP3    H176166   0.927   6.610  17.157 -0.0334  0.2017 -1.2929
18225TIP3    H276167   0.978   6.469  17.142  0.6029  0.3227 -0.3336
18226TIP3   OH276168   6.024   2.753  13.545 -0.4601 -0.1818  0.0854
18226TIP3    H176169   5.983   2.840  13.546 -0.5124 -0.1956 -0.8783
18226TIP3    H276170   5.952   2.692  13.540 -0.4412 -0.3149  1.0863
18227TIP3   OH276171   3.721   4.037   3.035 -0.1207 -0.0140  0.5478
18227TIP3    H176172   3.717   4.124   3.075 -1.0784  0.9948 -1.6062
18227TIP3    H276173   3.679   4.047   2.950 -0.2889 -2.6185  0.2355
18228TIP3   OH276174   2.116   1.832  15.893 -0.2672  0.0181  0.2072
18228TIP3    H176175   2.115   1.926  15.874  2.9191 -0.3273 -2.5900
18228TIP3    H276176   2.186   1.821  15.957 -1.1283 -0.4370  1.0988
18229TIP3   OH276177   0.046   1.046  10.814  0.1418  0.4663 -0.0789
18229TIP3    H176178   0.086   1.090  10.739 -0.4957  0.4416 -0.4379
18229TIP3    H276179  -0.016   1.109  10.849 -1.0748 -0.2731 -0.8439
18230TIP3   OH276180   3.653   1.995  13.770 -0.0210 -0.3504 -0.5573
18230TIP3    H176181   3.605   2.064  13.815 -0.1219  0.0341 -1.2425
18230TIP3    H276182   3.666   1.927  13.836 -1.4533 -0.4312 -0.3403
18231TIP3   OH276183   6.431   5.403   5.131  0.3416  0.2348 -0.4563
18231TIP3    H176184   6.346   5.407   5.175  0.5912  3.6633 -0.0258
18231TIP3    H276185   6.486   5.351   5.189 -0.7957  0.0503  0.4845
18232TIP3   OH276186   3.752   5.954   0.344 -0.5142  0.0169  0.1696
18232TIP3    H176187   3.665   5.924   0.371  0.2085 -1.1578  1.2436
18232TIP3    H276188   3.813   5.892   0.383  0.9870  2.1272  1.4012
18233TIP3   OH276189   4.004   4.335  11.841 -0.1006  0.1385  0.5261
18233TIP3    H176190   3.963   4.275  11.779 -0.9773 -0.2767  1.4730
18233TIP3    H276191   3.970   4.421  11.817  1.4423  0.3480 -1.0653
18234TIP3   OH276192   5.219   3.089   2.034  0.0338  0.3330  0.5128
18234TIP3    H176193   5.136   3.043   2.046 -1.0285  1.5884 -1.3675
18234TIP3    H276194   5.278   3.024   1.997 -0.8927  0.0218 -0.4655
18235TIP3   OH276195   0.682   1.486  11.915  0.0251  0.2828 -0.1878
18235TIP3    H176196   0.602   1.433  11.919 -1.2118  2.0751  0.1430
18235TIP3    H276197   0.733   1.447  11.844 -1.5913 -0.3378 -1.0661
18236TIP3   OH276198   5.086   0.022  12.614  0.0296  0.4097 -0.0773
18236TIP3    H176199   5.108   0.075  12.538  1.4435  0.7531  0.5536
18236TIP3    H276200   5.169   0.006  12.658 -0.7511  0.2554  1.4274
18237TIP3   OH276201   1.920   5.553  14.816  0.0590 -0.2230 -0.1789
18237TIP3    H176202   1.908   5.601  14.734  2.2974  0.7592  0.0146
18237TIP3    H276203   1.853   5.484  14.813 -0.2313  0.0743 -2.5848
18238TIP3   OH276204   4.655   3.362  16.311 -0.4271 -0.1037 -0.3418
18238TIP3    H176205   4.722   3.346  16.377 -0.0866  1.1672 -0.3358
18238TIP3    H276206   4.583   3.405  16.359 -1.6003 -2.1170 -0.2041
18239TIP3   OH276207   3.283   0.416   0.971 -0.1844 -0.5881 -0.4073
18239TIP3    H176208   3.209   0.361   0.997 -0.3504  0.5017  1.5960
18239TIP3    H276209   3.248   0.505   0.971  0.8322 -0.1692 -0.6480
18240TIP3   OH276210   6.627   4.415   1.020  0.1917  0.3425  0.2587
18240TIP3    H176211   6.564   4.432   0.950  1.3203  0.8894 -0.6526
18240TIP3    H276212   6.656   4.502   1.048  3.2581  0.1979 -1.8990
18241TIP3   OH276213   5.177   2.926   4.364 -0.4511 -0.0355  0.1394
18241TIP3    H176214   5.214   3.012   4.344 -1.0681  0.0221 -0.7935
18241TIP3    H276215   5.145   2.935   4.454 -1.0943  0.9259 -0.1675
18242TIP3   OH276216   5.974   2.360  12.957  0.1493 -0.0016  0.0607
18242TIP3    H176217   6.010   2.379  12.871  1.2735 -0.7257  0.3572
18242TIP3    H276218   5.888   2.403  12.957  0.5828  0.9186 -1.0223
18243TIP3   OH276219   5.367   1.745  16.727 -0.2005  0.1138  0.0859
18243TIP3    H176220   5.296   1.699  16.682 -0.7621  0.3333  0.7317
18243TIP3    H276221   5.331   1.832  16.747 -0.3474 -0.3225  1.8748
18244TIP3   OH276222   1.837   1.983  11.342  0.3385  0.3440 -0.0322
18244TIP3    H176223   1.885   2.055  11.301  0.6497  0.8743  1.2002
18244TIP3    H276224   1.791   1.941  11.271  0.8341  1.2440 -0.9107
18245TIP3   OH276225   5.672   5.277  14.988  0.0840  0.3188  0.5533
18245TIP3    H176226   5.729   5.285  14.912 -0.9642  0.4435 -0.2562
18245TIP3    H276227   5.713   5.210  15.043 -0.9834 -2.5510 -1.9033
18246TIP3   OH276228   3.593   3.649   2.738 -0.2187  0.8133  0.8079
18246TIP3    H176229   3.502   3.675   2.719 -0.3977 -0.6387 -0.4645
18246TIP3    H276230   3.640   3.662   2.656  0.3980  0.1865  1.0507
18247TIP3   OH276231   3.043   6.575   1.197  0.4468 -0.2701  0.1644
18247TIP3    H176232   2.964   6.628   1.189  0.2638 -0.5516  0.1051
18247TIP3    H276233   3.076   6.595   1.285  0.3062 -0.1555  0.1908
18248TIP3   OH276234   3.701   3.104  12.132  0.1454 -0.0486 -0.1453
18248TIP3    H176235   3.705   3.120  12.038  0.2324 -0.7934 -0.2768
18248TIP3    H276236   3.787   3.067  12.154 -0.3568 -1.1928 -0.0437
18249TIP3   OH276237   1.825   6.358  14.304 -0.3473  0.1435 -0.1626
18249TIP3    H176238   1.870   6.280  14.337 -1.4074 -0.8998 -1.1088
18249TIP3    H276239   1.779   6.394  14.379  0.3087 -0.0231  0.3238
18250TIP3   OH276240   6.240   5.873  15.908  0.6393 -0.2213 -0.2656
18250TIP3    H176241   6.305   5.812  15.942 -1.8941 -3.3205 -0.4599
18250TIP3    H276242   6.156   5.836  15.935 -1.1712  1.9651 -2.3904
18251TIP3   OH276243   4.958   3.037   0.232 -0.1676 -0.1083 -0.3261
18251TIP3    H176244   4.959   2.949   0.271 -1.2980 -0.1051 -0.2660
18251TIP3    H276245   4.917   3.092   0.298 -0.4544  0.2561 -0.8048
18252TIP3   OH276246   3.478   1.243   1.774  0.1006 -0.1183 -0.1961
18252TIP3    H176247   3.560   1.193   1.778  0.2533  0.2422  1.6284
18252TIP3    H276248   3.425   1.208   1.846 -0.3352  1.3947  0.2428
18253TIP3   OH276249   5.749   5.747  12.950  0.0764 -0.2388  0.6394
18253TIP3    H176250   5.814   5.709  12.890  2.8652  0.9240  2.6987
18253TIP3    H276251   5.748   5.840  12.929 -2.9343 -0.5233 -1.0020
18254TIP3   OH276252   6.659   0.029  12.030 -0.1539  0.2535 -0.2261
18254TIP3    H176253   6.716   0.095  11.992  0.7771  0.3743  1.2964
18254TIP3    H276254   6.688  -0.054  11.991  0.2337  0.4652 -0.3862
18255TIP3   OH276255   4.822   2.916  12.577  0.1547 -0.3564 -0.1763
18255TIP3    H176256   4.819   2.930  12.671 -3.1829 -1.5382  0.0033
18255TIP3    H276257   4.822   3.005  12.539  4.2427  0.2463  0.7547
18256TIP3   OH276258   1.686   3.659   2.941  0.3008 -0.2006 -0.0482
18256TIP3    H176259   1.760   3.606   2.912  0.3697  0.4155 -1.0294
18256TIP3    H276260   1.710   3.748   2.915 -0.2675  0.1682  0.6738
18257TIP3   OH276261   5.893   0.894  11.902 -0.1207 -0.0148  0.2968
18257TIP3    H176262   5.913   0.892  11.996  0.3502  0.8035  0.2212
18257TIP3    H276263   5.979   0.893  11.860 -0.1898  2.5685 -0.0524
18258TIP3   OH276264   4.910   5.700  13.599 -0.0549  0.3026  0.3314
18258TIP3    H176265   4.918   5.731  13.689  1.0940  0.9075  0.0342
18258TIP3    H276266   4.921   5.605  13.605  2.0896  0.5203  0.6306
18259TIP3   OH276267   2.283   6.257  17.171 -0.1922  0.1186 -0.4307
18259TIP3    H176268   2.347   6.261  17.241 -1.3009 -1.0118  0.6823
18259TIP3    H276269   2.203   6.226  17.212 -1.0707  0.0705 -2.0712
18260TIP3   OH276270   1.296   4.068  15.119  0.3249  0.5426  0.1516
18260TIP3    H176271   1.340   4.148  15.088 -2.0162  2.0079  0.3684
18260TIP3    H276272   1.203   4.088  15.114 -0.3210 -1.2762  2.5928
18261TIP3   OH276273   0.937   3.742  14.620 -0.2612  0.0328 -0.7752
18261TIP3    H176274   0.893   3.706  14.697  1.7923  3.2097  2.2025
18261TIP3    H276275   0.870   3.743  14.552 -2.5245 -1.9786  1.2263
18262TIP3   OH276276   6.557   5.993  15.821 -0.0705  0.4757  0.2264
18262TIP3    H176277   6.573   5.915  15.767 -2.9557 -0.7995  0.9853
18262TIP3    H276278   6.478   6.032  15.783 -0.5132  1.1733  1.7959
18263TIP3   OH276279   6.010   0.502  14.682 -0.4951  0.2095  0.1439
18263TIP3    H176280   5.930   0.502  14.733 -0.5233  1.0350  0.1221
18263TIP3    H276281   6.059   0.578  14.714  0.1506 -0.1205 -0.0333
18264TIP3   OH276282   4.032   0.615  12.221  0.1285  0.4664  0.3329
18264TIP3    H176283   3.991   0.689  12.177 -1.3351 -0.1403  0.6076
18264TIP3    H276284   4.012   0.628  12.314  0.1997 -0.0633  0.4257
18265TIP3   OH276285   3.463   3.648  16.011  0.3095 -0.1212  0.3582
18265TIP3    H176286   3.422   3.732  15.991  1.8869  0.5208 -0.2995
18265TIP3    H276287   3.392   3.584  16.002 -0.5881  0.9693 -0.5309
18266TIP3   OH276288   2.105   4.830   1.944  0.1754 -0.2818 -0.2436
18266TIP3    H176289   2.075   4.754   1.894 -0.0331 -0.1124 -0.3761
18266TIP3    H276290   2.080   4.905   1.890  3.3311 -0.1746 -1.8300
18267TIP3   OH276291   4.628   1.654   0.401 -0.3842  0.4868 -0.0659
18267TIP3    H176292   4.600   1.702   0.478 -1.4922 -1.6673  0.9692
18267TIP3    H276293   4.547   1.619   0.364  0.3607 -0.5506 -0.7722
18268TIP3   OH276294   0.194   1.888   4.505 -0.2934 -0.0562 -0.1822
18268TIP3    H176295   0.250   1.885   4.428 -3.1234  1.3186 -2.4668
18268TIP3    H276296   0.190   1.980   4.530 -1.9975 -0.0082 -0.4995
18269TIP3   OH276297   0.358   2.312  15.182  0.5416 -0.0782  0.1618
18269TIP3    H176298   0.287   2.347  15.236  0.9792 -1.2134  1.5413
18269TIP3    H276299   0.373   2.379  15.115 -0.4706  1.0825  1.0511
18270TIP3   OH276300   2.604   4.756   2.458 -0.1516  0.0258 -0.3330
18270TIP3    H176301   2.685   4.715   2.427 -0.3935  0.8931 -2.3058
18270TIP3    H276302   2.584   4.712   2.540  2.1846 -0.3723  0.0823
18271TIP3   OH276303   2.757   4.076   2.520  0.3155 -0.9164 -0.3770
18271TIP3    H176304   2.764   3.981   2.516 -1.0695 -0.9972 -1.9368
18271TIP3    H276305   2.708   4.094   2.601 -0.1687 -1.5702 -0.5280
18272TIP3   OH276306   1.840   3.320   5.547 -0.3082  0.3415 -0.5454
18272TIP3    H176307   1.823   3.277   5.463  1.0458 -1.5148  0.0510
18272TIP3    H276308   1.866   3.409   5.524 -0.5510  0.0471 -2.0524
18273TIP3   OH276309   2.818   5.888  12.186  0.6498  0.0846 -0.1448
18273TIP3    H176310   2.785   5.916  12.271  0.3626 -2.5060  0.6687
18273TIP3    H276311   2.899   5.938  12.175  0.6354  0.5684  1.5962
18274TIP3   OH276312   6.064   2.088   3.477  0.0466 -0.0291  0.2863
18274TIP3    H176313   6.072   2.073   3.571  0.6025  1.2939  0.4653
18274TIP3    H276314   6.147   2.128   3.452 -0.4834  0.5595 -0.5757
18275TIP3   OH276315   4.178   0.378   4.525  0.0678  0.2189 -0.2481
18275TIP3    H176316   4.114   0.400   4.457  1.4044 -1.2461 -2.0915
18275TIP3    H276317   4.155   0.434   4.599 -1.1564  2.2682 -2.0741
18276TIP3   OH276318   1.825   3.859  13.189  0.2479  0.1383 -0.3354
18276TIP3    H176319   1.821   3.931  13.252  1.4420 -0.9746  1.0866
18276TIP3    H276320   1.733   3.838  13.171 -0.1294  2.3341 -1.2036
18277TIP3   OH276321   4.345   3.850   5.808  0.0987  0.1123  0.0330
18277TIP3    H176322   4.314   3.770   5.767  1.0345  0.5209 -1.5584
18277TIP3    H276323   4.340   3.917   5.739  0.5068  1.1389  0.9566
18278TIP3   OH276324   5.316   3.324   5.028 -0.1933 -0.0226 -0.2571
18278TIP3    H176325   5.409   3.336   5.013 -0.0829 -0.2806  0.1980
18278TIP3    H276326   5.274   3.393   4.976  0.2174 -0.2458 -0.8948
18279TIP3   OH276327   6.180   3.962  11.583  0.0176 -0.1102  0.1234
18279TIP3    H176328   6.162   4.009  11.502 -1.4842  1.6353  1.3896
18279TIP3    H276329   6.260   4.004  11.617  0.8046 -1.0267 -0.5532
18280TIP3   OH276330   6.105   1.793  15.820  0.4602 -0.3030  0.2134
18280TIP3    H176331   6.082   1.882  15.792  0.3975 -1.0442 -2.3589
18280TIP3    H276332   6.169   1.806  15.890  0.3849  1.7746 -0.0341
18281TIP3   OH276333   2.659   5.875  12.443 -0.0374  0.3281  0.2142
18281TIP3    H176334   2.643   5.805  12.506  0.6636  0.1479  0.1940
18281TIP3    H276335   2.588   5.938  12.459  0.4771  0.5852  1.6097
18282TIP3   OH276336   1.170   1.974  13.376 -0.1947 -0.2493 -0.2929
18282TIP3    H176337   1.191   2.061  13.344  1.0715 -0.1756  0.6874
18282TIP3    H276338   1.114   1.988  13.452 -1.1926 -0.3545 -0.9886
18283TIP3   OH276339   4.167   5.224   5.991 -0.3387  0.6257  0.7297
18283TIP3    H176340   4.138   5.133   5.987 -0.2972  0.6331 -2.8107
18283TIP3    H276341   4.089   5.275   5.971  0.4023  1.0842 -1.1931
18284TIP3   OH276342   3.807   2.795  15.113  0.3232  0.0521 -0.1961
18284TIP3    H176343   3.812   2.728  15.181 -0.5440  0.7445  0.5891
18284TIP3    H276344   3.838   2.751  15.034  0.3002 -1.1091  0.4087
18285TIP3   OH276345   1.320   6.187  13.538 -0.0360  0.0780 -0.0837
18285TIP3    H176346   1.373   6.218  13.465  0.4333 -0.5436 -0.0143
18285TIP3    H276347   1.303   6.095  13.519 -1.6613  0.4194 -0.4327
18286TIP3   OH276348   4.850   2.546   3.001 -0.0133 -0.3939 -0.1441
18286TIP3    H176349   4.878   2.454   2.997  0.3218 -0.3426  0.8314
18286TIP3    H276350   4.878   2.576   3.087  0.5920  0.8553 -0.7432
18287TIP3   OH276351   6.067   1.767   0.182  0.4661  0.1585 -0.1506
18287TIP3    H176352   6.089   1.778   0.090 -0.2428  1.0383 -0.2338
18287TIP3    H276353   6.148   1.788   0.228  0.6602  0.3002 -0.5499
18288TIP3   OH276354   3.426   6.696   2.537 -0.6090  0.0581  0.3454
18288TIP3    H176355   3.468   6.684   2.452 -1.4680  3.5618 -0.7229
18288TIP3    H276356   3.340   6.655   2.527 -0.1131 -0.9575  0.1130
18289TIP3   OH276357   1.628   4.549   1.185  0.1592 -0.0827  0.7811
18289TIP3    H176358   1.600   4.474   1.238 -0.5835  0.6827  1.4926
18289TIP3    H276359   1.704   4.584   1.232 -0.9375  1.0331  1.7647
18290TIP3   OH276360   0.202   2.509  10.777 -0.3612  0.1711  0.2510
18290TIP3    H176361   0.273   2.464  10.824  0.7653  1.2297 -0.3808
18290TIP3    H276362   0.134   2.522  10.843  0.3479 -0.1870  1.0667
18291TIP3   OH276363   6.111   5.375  15.881  0.1601 -1.2041  0.5781
18291TIP3    H176364   6.160   5.456  15.892 -0.6417 -0.9129  2.2484
18291TIP3    H276365   6.021   5.403  15.864 -0.1213 -1.7360  1.1421
18292TIP3   OH276366   2.986   1.851   7.030 -0.2528 -0.4564  0.8310
18292TIP3    H176367   3.048   1.807   7.088  1.5200  2.4923  1.4402
18292TIP3    H276368   2.917   1.883   7.088 -0.1806 -0.2520  0.8052
18293TIP3   OH276369   4.830   3.943   0.835  0.1731  0.8935  0.8224
18293TIP3    H176370   4.785   3.865   0.864  0.5174  1.5009  3.1984
18293TIP3    H276371   4.777   3.976   0.762  0.2233 -1.6748 -0.4877
18294TIP3   OH276372   4.120   1.031   1.018  0.0524 -0.2106 -0.4653
18294TIP3    H176373   4.170   1.020   1.098 -0.3233  0.6936 -0.0876
18294TIP3    H276374   4.121   0.945   0.976  1.5951 -0.2937 -0.2949
18295TIP3   OH276375   1.010   2.175   2.614  0.0019 -0.4465  0.5936
18295TIP3    H176376   0.957   2.102   2.584 -0.6354 -0.6887  2.2362
18295TIP3    H276377   0.981   2.192   2.703 -0.6674  2.5686 -0.0837
18296TIP3   OH276378   1.450   2.809   4.749  0.3560  0.8207 -0.6232
18296TIP3    H176379   1.410   2.736   4.701 -0.5834 -0.6469  2.1973
18296TIP3    H276380   1.544   2.788   4.750  0.0004 -0.9148  0.9346
18297TIP3   OH276381   5.546   3.015   4.100  0.6555 -0.6594 -0.9735
18297TIP3    H176382   5.514   3.009   4.010  0.1392  0.0825 -0.8456
18297TIP3    H276383   5.492   3.082   4.140  1.8545  0.0615 -0.5192
18298TIP3   OH276384   6.109   5.049  13.030 -0.5188  0.0595 -1.8247
18298TIP3    H176385   6.059   4.976  13.066 -0.7204  0.3107 -1.5955
18298TIP3    H276386   6.168   5.008  12.966 -1.5895 -0.1517 -2.7077
18299TIP3   OH276387   0.372   4.689  11.696  0.1523 -0.2181 -0.2059
18299TIP3    H176388   0.415   4.771  11.671 -2.4549  0.7459 -1.8997
18299TIP3    H276389   0.343   4.704  11.786 -0.3902  0.7848 -0.5321
18300TIP3   OH276390   0.229   2.604  11.529  0.2041  0.1829  0.3476
18300TIP3    H176391   0.195   2.580  11.442 -1.3753  3.1422  0.0245
18300TIP3    H276392   0.314   2.643  11.511 -0.6070  1.8522 -0.1039
18301TIP3   OH276393   2.774   6.156  16.192 -0.0188  0.6450  0.1463
18301TIP3    H176394   2.728   6.232  16.157  0.7763  0.7783 -0.6700
18301TIP3    H276395   2.797   6.104  16.115 -1.7084 -1.1325  0.7813
18302TIP3   OH276396   5.550   3.629  15.420 -0.5632  0.3861 -0.1351
18302TIP3    H176397   5.643   3.652  15.426 -1.0895  3.4481 -1.5478
18302TIP3    H276398   5.538   3.602  15.329 -1.0039 -0.4988  0.1725
18303TIP3   OH276399   2.070   3.504  15.791  0.3985 -0.6640  0.2614
18303TIP3    H176400   2.080   3.422  15.741 -0.9923 -2.5318  2.8023
18303TIP3    H276401   2.007   3.555  15.740  0.8090 -1.4107 -1.0749
18304TIP3   OH276402   0.770   3.622  14.801  0.1532  0.4790 -0.0244
18304TIP3    H176403   0.680   3.600  14.780  0.5961  0.1119 -1.6135
18304TIP3    H276404   0.785   3.582  14.887  0.0414 -3.0175 -1.4979
18305TIP3   OH276405   1.171   1.082   5.022 -0.3702  0.6083  0.2787
18305TIP3    H176406   1.244   1.066   4.962 -0.9897  0.9687 -0.6013
18305TIP3    H276407   1.097   1.037   4.980 -0.5105 -0.3267  1.4969
18306TIP3   OH276408   4.866   0.213  10.875 -0.0634 -0.0302  0.4185
18306TIP3    H176409   4.847   0.287  10.933 -0.6646  0.7578 -0.7357
18306TIP3    H276410   4.783   0.196  10.831  0.5985  0.0191 -0.8895
18307TIP3   OH276411   6.770   1.280   3.325  0.1486 -0.7130  0.1549
18307TIP3    H176412   6.789   1.213   3.391  1.6857 -0.5775 -0.1174
18307TIP3    H276413   6.784   1.363   3.370 -0.3680 -0.5845  0.0901
18308TIP3   OH276414   2.342   2.444   4.326 -0.0288  0.2035  0.1832
18308TIP3    H176415   2.311   2.447   4.417  2.8225  1.4881  1.2251
18308TIP3    H276416   2.380   2.356   4.317  0.7669  0.4915  0.6515
18309TIP3   OH276417   2.024   1.636  14.375 -0.2807  0.5304  0.0977
18309TIP3    H176418   2.055   1.578  14.306  0.0538  0.4574  0.3056
18309TIP3    H276419   1.957   1.586  14.421 -0.5452  0.6001 -0.2066
18310TIP3   OH276420   5.965   3.911  17.248 -0.2484  0.1375  0.0743
18310TIP3    H176421   5.916   3.886  17.326  0.4744 -1.0792  0.1610
18310TIP3    H276422   5.898   3.940  17.186 -0.9115  0.2279  0.8150
18311TIP3   OH276423   4.481   6.346   6.096 -0.1145  0.4237 -0.0272
18311TIP3    H176424   4.392   6.312   6.103  0.6052 -1.9523 -1.5038
18311TIP3    H276425   4.521   6.327   6.181 -0.6633  0.4422  0.2382
18312TIP3   OH276426   5.912   1.606  12.139 -0.0048  0.6438 -0.3568
18312TIP3    H176427   5.825   1.588  12.104 -1.1201  2.5609  1.2616
18312TIP3    H276428   5.924   1.701  12.127  0.7611  0.8678  1.7351
18313TIP3   OH276429   1.254   3.392  15.718 -0.1757  0.0930  0.3205
18313TIP3    H176430   1.168   3.356  15.697 -0.6584  1.0639  0.5514
18313TIP3    H276431   1.315   3.341  15.665 -0.7043 -1.6927  1.3366
18314TIP3   OH276432   3.058   2.341   2.698  0.4659 -0.1419  0.2582
18314TIP3    H176433   3.089   2.273   2.758  0.7425  0.5963  0.9707
18314TIP3    H276434   2.983   2.380   2.742 -0.4983 -0.8225 -0.7254
18315TIP3   OH276435   4.838   1.824  14.541 -0.4876 -0.2606  0.3805
18315TIP3    H176436   4.868   1.748  14.490 -0.9285 -0.7997  0.9064
18315TIP3    H276437   4.807   1.886  14.476  0.7450 -0.1398 -0.1197
18316TIP3   OH276438   1.187   3.122   2.767  0.2827 -0.4246 -0.6977
18316TIP3    H176439   1.271   3.168   2.769 -0.3337  0.7186 -0.4465
18316TIP3    H276440   1.144   3.154   2.688 -0.3401 -0.2255 -0.2837
18317TIP3   OH276441   5.828   2.387  11.411 -0.4572 -0.5863 -0.7399
18317TIP3    H176442   5.735   2.411  11.420 -0.9471 -2.9452  2.3089
18317TIP3    H276443   5.827   2.313  11.351 -1.1791 -2.8086  1.8045
18318TIP3   OH276444   3.144   5.071   1.514 -0.0799  0.0789 -0.5443
18318TIP3    H176445   3.199   5.148   1.501  0.4784 -0.4714 -1.5113
18318TIP3    H276446   3.180   5.030   1.592  1.3228 -0.6227 -1.5237
18319TIP3   OH276447   1.535   0.094  16.670 -0.5872 -0.1307  0.0660
18319TIP3    H176448   1.544   0.031  16.742 -1.8880 -1.2902 -0.7427
18319TIP3    H276449   1.625   0.115  16.645 -0.1157  0.0685  1.8205
18320TIP3   OH276450   4.326   1.788   5.590 -0.3852  0.2987  0.0114
18320TIP3    H176451   4.295   1.801   5.680  0.8738 -1.7445  0.8175
18320TIP3    H276452   4.326   1.876   5.551 -1.5229  1.1428  1.8050
18321TIP3   OH276453   2.759   3.250  13.630 -0.1955 -0.2147  0.5130
18321TIP3    H176454   2.830   3.288  13.578 -0.1747 -0.1517  0.5885
18321TIP3    H276455   2.803   3.209  13.704  0.0838 -2.8817 -0.9964
18322TIP3   OH276456   3.980   5.833  17.129  0.0329  0.2797 -0.0435
18322TIP3    H176457   3.972   5.798  17.217  0.5057  0.6029  0.1313
18322TIP3    H276458   3.902   5.802  17.083 -0.5061  0.5857  0.6479
18323TIP3   OH276459   5.669   1.189   3.364 -0.3311 -0.1021 -0.1176
18323TIP3    H176460   5.757   1.150   3.364 -0.2266  0.1264  0.0464
18323TIP3    H276461   5.617   1.132   3.307 -0.5784 -1.3625  1.3001
18324TIP3   OH276462   5.524   6.363   5.649 -0.5100  0.0751  0.1200
18324TIP3    H176463   5.606   6.384   5.694 -0.2958  0.1023 -0.2791
18324TIP3    H276464   5.534   6.272   5.622 -0.9103 -0.1467  0.7075
18325TIP3   OH276465   1.665   3.260  11.789 -0.6281  0.0870  0.5427
18325TIP3    H176466   1.640   3.349  11.813 -0.1885  0.6692 -1.0572
18325TIP3    H276467   1.582   3.214  11.774 -0.8339  0.5107  0.3851
18326TIP3   OH276468   6.750   3.701  10.771  0.2272 -0.5611 -0.2262
18326TIP3    H176469   6.822   3.657  10.726  1.0263 -0.3361  0.7865
18326TIP3    H276470   6.743   3.786  10.729  0.3682 -0.6914 -0.5155
18327TIP3   OH276471   2.179   4.265  17.245 -0.0509  0.4067  0.4012
18327TIP3    H176472   2.097   4.252  17.198 -0.2295  0.2399  0.7500
18327TIP3    H276473   2.212   4.176  17.260 -1.1162  0.2959  2.5184
18328TIP3   OH276474   0.122   6.822   1.434  0.1989  0.5864  0.0998
18328TIP3    H176475   0.202   6.769   1.430  0.2148  0.2962  2.4958
18328TIP3    H276476   0.131   6.885   1.363  1.0490 -1.4341 -1.6858
18329TIP3   OH276477   1.883   5.638   6.059 -0.3314 -0.1212  0.0909
18329TIP3    H176478   1.967   5.611   6.096 -0.6313  0.3885  1.1966
18329TIP3    H276479   1.894   5.731   6.039 -0.5926 -0.0855  0.1073
18330TIP3   OH276480   5.100   6.693   0.626  0.7067 -1.0531 -0.1843
18330TIP3    H176481   5.057   6.664   0.707  0.1620 -0.3252 -0.2041
18330TIP3    H276482   5.150   6.771   0.652  2.2819 -2.0410 -0.0970
18331TIP3   OH276483   2.703   4.230   4.091  0.2539 -0.6041 -0.4717
18331TIP3    H176484   2.711   4.190   4.177  1.1223 -1.3601 -0.8872
18331TIP3    H276485   2.790   4.222   4.052 -0.6025 -2.1792 -2.2312
18332TIP3   OH276486   2.579   1.476  13.680  0.1076  0.2552  0.0459
18332TIP3    H176487   2.568   1.515  13.766  0.3281  1.5314 -0.4769
18332TIP3    H276488   2.674   1.467  13.670  0.1331  0.8230 -0.3380
18333TIP3   OH276489   2.529   4.675   0.189 -0.1359 -0.4054 -0.4410
18333TIP3    H176490   2.515   4.759   0.233 -1.1090 -1.0853  0.5966
18333TIP3    H276491   2.612   4.686   0.143 -0.0907  1.0168 -0.0646
18334TIP3   OH276492   3.829   4.053  16.339 -0.4054 -0.2430  0.1033
18334TIP3    H176493   3.827   4.087  16.249  0.5717 -1.3919 -0.3781
18334TIP3    H276494   3.914   4.082  16.373 -0.9688  0.5782  0.8238
18335TIP3   OH276495   0.436   6.172   6.382 -0.4241  0.0381 -0.3838
18335TIP3    H176496   0.401   6.132   6.303  0.1732  0.6064 -0.9484
18335TIP3    H276497   0.366   6.229   6.414 -0.5324  0.0911 -0.7124
18336TIP3   OH276498   5.021   1.471   0.749  0.2143  0.5898  0.2136
18336TIP3    H176499   5.022   1.544   0.810  1.6197  0.0532  0.8807
18336TIP3    H276500   4.940   1.424   0.768 -0.4538  1.6680  0.1149
18337TIP3   OH276501   5.137   4.636  12.231 -0.1724  0.1505 -0.1747
18337TIP3    H176502   5.105   4.554  12.195 -0.4569 -0.2174  0.8664
18337TIP3    H276503   5.072   4.701  12.204 -0.6609 -0.2122  0.0967
18338TIP3   OH276504   4.080   1.937  14.033 -0.3652  0.2425 -0.4635
18338TIP3    H176505   4.000   1.889  14.014  1.2177 -3.1879  0.7346
18338TIP3    H276506   4.054   2.002  14.099 -2.0844 -1.1462  0.3034
18339TIP3   OH276507   2.558   3.230   0.332 -0.4360 -0.2666  0.0758
18339TIP3    H176508   2.630   3.293   0.335  1.4908 -2.3379  2.5198
18339TIP3    H276509   2.542   3.216   0.239  1.8916  0.7825 -0.5583
18340TIP3   OH276510   2.857   4.547  15.460 -0.1366 -0.7282  0.0968
18340TIP3    H176511   2.874   4.561  15.554 -1.4616  4.4151 -0.1179
18340TIP3    H276512   2.763   4.530  15.456 -0.1857 -0.3542 -0.3259
18341TIP3   OH276513   3.074   5.104  13.856  0.3759  0.4679 -0.4717
18341TIP3    H176514   3.098   5.197  13.862  2.3621 -0.0670  0.3596
18341TIP3    H276515   3.142   5.065  13.801 -0.7257 -0.4415 -1.2491
18342TIP3   OH276516   3.628   4.541  15.766  0.7328 -0.0293 -0.2291
18342TIP3    H176517   3.560   4.600  15.733  1.0705 -0.1086 -1.1062
18342TIP3    H276518   3.580   4.472  15.812  0.3053  0.6036  0.2920
18343TIP3   OH276519   6.495   4.209  10.901  0.2957 -0.4679 -0.2984
18343TIP3    H176520   6.424   4.273  10.902  0.5249 -0.0947 -2.4317
18343TIP3    H276521   6.527   4.210  10.811  0.9258 -2.9327 -0.1886
18344TIP3   OH276522   5.560   3.540  13.631  0.1004  0.6365 -0.3847
18344TIP3    H176523   5.557   3.619  13.685  0.4247  1.2283 -1.2223
18344TIP3    H276524   5.564   3.572  13.541  0.5025 -0.3365 -0.7245
18345TIP3   OH276525   1.114   5.972  14.010 -0.2835  0.1324  0.2961
18345TIP3    H176526   1.039   6.024  14.038 -0.0302  0.3376  0.6020
18345TIP3    H276527   1.135   6.006  13.923 -0.2295  0.4276  0.4208
18346TIP3   OH276528   5.926   3.254  15.445 -0.8216 -0.1231  0.2426
18346TIP3    H176529   5.835   3.245  15.419 -0.7116  0.1760 -0.2729
18346TIP3    H276530   5.975   3.205  15.379 -0.5437  0.5314 -0.0504
18347TIP3   OH276531   5.749   2.007   5.309  0.3259 -0.1823 -0.0916
18347TIP3    H176532   5.774   1.980   5.221  0.1624 -0.0644 -0.1730
18347TIP3    H276533   5.723   1.926   5.353 -0.9396 -0.0541 -0.5813
18348TIP3   OH276534   4.900   2.839   5.309  0.1488 -0.8106 -0.0873
18348TIP3    H176535   4.921   2.790   5.229 -0.0181 -0.1565 -0.5466
18348TIP3    H276536   4.948   2.922   5.298 -0.0412 -0.6385  0.3984
18349TIP3   OH276537   4.392   1.142   1.437  0.3285  0.4393 -0.5184
18349TIP3    H176538   4.408   1.171   1.348 -0.6020 -1.9790 -1.5567
18349TIP3    H276539   4.400   1.047   1.434  1.1509  0.3314  2.1917
18350TIP3   OH276540   0.324   2.136  15.680  0.0500 -0.6829  0.1800
18350TIP3    H176541   0.252   2.196  15.663 -0.6675 -1.4205  0.5620
18350TIP3    H276542   0.308   2.061  15.622  0.7886 -0.6356 -0.0998
18351TIP3   OH276543   5.102   1.108   3.297  0.4394  0.6692 -0.4770
18351TIP3    H176544   5.184   1.058   3.293  0.1129  0.2311 -2.7761
18351TIP3    H276545   5.128   1.199   3.284  0.7386  0.8191  0.9539
18352TIP3   OH276546   6.023   3.976   5.800  0.1317 -0.2490  0.0112
18352TIP3    H176547   6.056   4.059   5.766  0.5032 -1.3879 -2.6089
18352TIP3    H276548   5.927   3.985   5.797  0.1710  0.2822  0.2981
18353TIP3   OH276549   1.067   3.824  11.780 -0.3465  0.0671  0.0406
18353TIP3    H176550   0.972   3.815  11.776 -0.3351  0.6016 -1.9183
18353TIP3    H276551   1.083   3.867  11.864 -1.9764  1.6025 -0.3741
18354TIP3   OH276552   5.410   4.736   0.244 -0.9310 -0.4806  0.4876
18354TIP3    H176553   5.476   4.672   0.273  1.7728  1.1363 -1.5935
18354TIP3    H276554   5.373   4.698   0.164 -1.1476 -0.5241  0.6070
18355TIP3   OH276555   1.791   5.071  11.630  0.4180  0.0294 -0.2436
18355TIP3    H176556   1.700   5.058  11.601  0.8823 -1.0567 -1.3234
18355TIP3    H276557   1.806   5.001  11.693  0.6301 -0.0646 -0.3966
18356TIP3   OH276558   3.879   2.128  13.959  0.2192 -0.5591  0.5248
18356TIP3    H176559   3.815   2.185  13.916  0.5993 -0.1479  0.4910
18356TIP3    H276560   3.912   2.180  14.032  0.2113 -0.9251  0.7916
18357TIP3   OH276561   5.888   4.072  13.022  0.3589 -0.1568 -0.0051
18357TIP3    H176562   5.966   4.109  12.982  1.6051 -1.2775  1.2818
18357TIP3    H276563   5.920   4.028  13.101 -1.7885  0.8430  1.5324
18358TIP3   OH276564   0.790   0.344  14.607 -0.3317 -0.0686 -0.0002
18358TIP3    H176565   0.783   0.396  14.688 -2.4722  1.3920 -1.0358
18358TIP3    H276566   0.704   0.303  14.598  0.9473 -3.0310  0.1807
18359TIP3   OH276567   6.777   6.185   3.104 -0.0123  0.2733 -0.2001
18359TIP3    H176568   6.816   6.183   3.191 -0.7517  0.3546  0.1487
18359TIP3    H276569   6.748   6.276   3.093 -0.4970  0.1143 -0.2609
18360TIP3   OH276570   6.584   5.750   2.102  0.1710 -0.6479 -0.1042
18360TIP3    H176571   6.489   5.758   2.100  0.3231  1.7181 -2.1743
18360TIP3    H276572   6.600   5.661   2.133 -2.6857 -1.0904  0.3621
18361TIP3   OH276573   5.424   5.518  16.783 -0.2256  0.3065  0.4062
18361TIP3    H176574   5.438   5.502  16.876 -1.2765  0.6611  0.6381
18361TIP3    H276575   5.329   5.522  16.773 -0.1396 -0.2349 -0.7764
18362TIP3   OH276576   3.781   2.004  15.358 -0.0375  0.0534 -0.0516
18362TIP3    H176577   3.760   1.966  15.443 -0.2164  1.9366  0.7965
18362TIP3    H276578   3.788   1.929  15.299 -1.7855 -1.1646  1.2029
18363TIP3   OH276579   2.704   4.872  16.189  0.2929 -0.0286  0.3907
18363TIP3    H176580   2.653   4.925  16.250  1.2357  0.7086  0.5613
18363TIP3    H276581   2.673   4.899  16.102 -2.2821 -2.2996  0.4743
18364TIP3   OH276582   0.296   6.741  16.193  0.0606 -0.4575  0.2909
18364TIP3    H176583   0.383   6.775  16.173 -1.3858  1.6655 -3.4469
18364TIP3    H276584   0.303   6.647  16.178  1.8149 -0.4040  0.5782
18365TIP3   OH276585   0.588   3.398  15.417 -0.1511  0.6561  0.2705
18365TIP3    H176586   0.642   3.375  15.342  0.3191  3.5849 -0.4152
18365TIP3    H276587   0.641   3.463  15.465 -1.7125  1.1525  1.4015
18366TIP3   OH276588   4.620   0.176  10.750 -0.3872 -0.2596 -0.3506
18366TIP3    H176589   4.593   0.187  10.841  1.4633 -0.2199  0.2414
18366TIP3    H276590   4.609   0.082  10.733 -0.9479 -0.2322 -0.1711
18367TIP3   OH276591   2.675   1.022  14.974  0.3248  0.2905 -0.9703
18367TIP3    H176592   2.717   1.098  15.015  2.9056 -0.3991 -2.1335
18367TIP3    H276593   2.683   0.953  15.039 -1.2484  0.7264 -0.2568
18368TIP3   OH276594   4.602   5.427   4.945  0.5306 -0.5919  0.4546
18368TIP3    H176595   4.513   5.458   4.962  1.0576  0.8174  0.7874
18368TIP3    H276596   4.604   5.409   4.850 -0.2104 -1.0413  0.5174
18369TIP3   OH276597   1.915   3.131   0.373  0.2916  0.3392 -0.0976
18369TIP3    H176598   1.876   3.209   0.412 -0.2849 -0.9546  2.0243
18369TIP3    H276599   1.994   3.163   0.330  1.1547  1.8511  2.4184
18370TIP3   OH276600   0.098   3.677   0.938  0.0458 -0.2323 -0.3164
18370TIP3    H176601   0.170   3.739   0.929 -0.0854  0.0745  0.6254
18370TIP3    H276602   0.085   3.668   1.033  0.1305 -1.7792 -0.4193
18371TIP3   OH276603   3.052   0.865   0.083  0.2163  0.1248  0.2358
18371TIP3    H176604   2.980   0.860   0.021  2.0355  2.6546 -2.3080
18371TIP3    H276605   3.039   0.949   0.128  0.9436  0.0614  0.5808
18372TIP3   OH276606   4.472   2.032   4.423 -0.4681  0.8484  0.4504
18372TIP3    H176607   4.514   1.949   4.444  0.2214  1.2354  0.6669
18372TIP3    H276608   4.525   2.068   4.352  0.3052  1.8876  1.5142
18373TIP3   OH276609   4.925   4.081  12.750  0.9394 -0.7545  0.0890
18373TIP3    H176610   4.933   4.051  12.660  1.9863 -1.3315  0.3560
18373TIP3    H276611   5.005   4.050  12.793  0.9382  0.3847  0.9676
18374TIP3   OH276612   2.368   6.650   1.801 -0.0650  0.4206  0.1769
18374TIP3    H176613   2.328   6.702   1.871 -0.6116 -0.0227  0.2055
18374TIP3    H276614   2.339   6.560   1.818  0.9476  0.0865  0.1808
18375TIP3   OH276615   2.945   4.058   4.673  0.3545  0.5818  0.2091
18375TIP3    H176616   2.869   4.091   4.719 -0.6872 -1.4411  0.0587
18375TIP3    H276617   3.020   4.083   4.727 -0.3151  3.0444  0.0939
18376TIP3   OH276618   0.495   2.043   0.655  0.0786 -0.1090 -0.3263
18376TIP3    H176619   0.514   1.990   0.577 -0.5757 -0.9070  0.0455
18376TIP3    H276620   0.407   2.077   0.640  0.6700  1.3180 -0.7865
18377TIP3   OH276621   5.575   3.054   4.417 -0.0631 -0.2783  0.1649
18377TIP3    H176622   5.555   3.071   4.509  0.8635  4.3038 -0.2298
18377TIP3    H276623   5.490   3.049   4.374 -0.4830 -1.7735  1.1046
18378TIP3   OH276624   0.936   2.589   1.505 -0.6717  0.0850  0.3897
18378TIP3    H176625   0.931   2.508   1.555  0.1122 -0.6307 -0.6560
18378TIP3    H276626   0.853   2.594   1.458 -0.0144 -1.0630 -0.9373
18379TIP3   OH276627   3.955   6.183   5.121 -0.3924  0.2587  0.3256
18379TIP3    H176628   4.042   6.216   5.099  0.8618 -2.0559  1.4837
18379TIP3    H276629   3.924   6.139   5.042  0.2157 -0.3167  0.4036
18380TIP3   OH276630   1.457   6.156  11.175 -0.0556 -0.2420 -0.5413
18380TIP3    H176631   1.384   6.154  11.237 -0.3455 -1.2255 -0.9068
18380TIP3    H276632   1.416   6.161  11.089  0.2707 -1.6075 -0.7939
18381TIP3   OH276633   5.121   6.275  16.505 -0.2131  0.2963 -0.4860
18381TIP3    H176634   5.112   6.370  16.502  1.2257  0.5915  1.6613
18381TIP3    H276635   5.211   6.259  16.474 -1.0148 -0.5861 -2.5233
18382TIP3   OH276636   1.475   0.086   4.571 -0.1302 -0.3649  0.0661
18382TIP3    H176637   1.398   0.029   4.562 -1.3900  1.3185 -0.4086
18382TIP3    H276638   1.488   0.094   4.665 -1.1141  0.0383  0.1786
18383TIP3   OH276639   3.821   2.762  11.250  0.2069  0.3532  0.8754
18383TIP3    H176640   3.799   2.689  11.309  2.5805  0.7868  2.4288
18383TIP3    H276641   3.860   2.720  11.173 -0.7420 -0.1143  0.6377
18384TIP3   OH276642   5.932   0.092  17.159 -0.4202  0.1296  0.1108
18384TIP3    H176643   5.958   0.159  17.096  1.4989  0.2675  0.9849
18384TIP3    H276644   5.929   0.011  17.108  0.6379  0.3150 -0.2766
18385TIP3   OH276645   1.885   5.231   0.108  0.3993 -0.5370 -0.5133
18385TIP3    H176646   1.802   5.184   0.113 -1.2186  1.6442 -3.6295
18385TIP3    H276647   1.867   5.316   0.150  1.3685 -0.3747 -0.3891
18386TIP3   OH276648   5.773   6.348  11.624 -0.3559 -0.1805 -0.2676
18386TIP3    H176649   5.840   6.317  11.685 -0.3672 -0.8750 -0.6035
18386TIP3    H276650   5.691   6.313  11.658 -0.3759 -0.4747 -0.6157
18387TIP3   OH276651   5.404   0.264  12.591 -0.3171  0.2611 -0.3691
18387TIP3    H176652   5.366   0.203  12.527 -0.9298 -1.0437  1.1850
18387TIP3    H276653   5.496   0.269  12.567 -0.2650 -1.2335 -0.5838
18388TIP3   OH276654   0.207   6.217   5.444  0.4117 -0.2882 -0.0142
18388TIP3    H176655   0.152   6.276   5.496 -0.8287 -1.7719  0.4329
18388TIP3    H276656   0.276   6.273   5.409 -0.5102  1.3479  0.6786
18389TIP3   OH276657   2.515   4.399  13.596 -1.0805  0.8530  0.5650
18389TIP3    H176658   2.518   4.481  13.645  1.0836  2.1211 -1.4648
18389TIP3    H276659   2.578   4.343  13.640  1.8960  2.4682 -1.3586
18390TIP3   OH276660   0.247   3.399  14.748 -0.5748 -0.3631  0.4305
18390TIP3    H176661   0.158   3.434  14.750 -0.6826 -0.6272  0.3138
18390TIP3    H276662   0.241   3.321  14.694  0.1450  0.7464 -1.3564
18391TIP3   OH276663   3.953   6.166   4.601  0.0486 -0.1616 -0.2268
18391TIP3    H176664   4.034   6.213   4.624 -0.5125  1.1173 -0.7861
18391TIP3    H276665   3.887   6.202   4.660 -1.0233  1.8969 -2.5129
18392TIP3   OH276666   0.239   3.061   4.297 -0.6371  0.2134 -0.7127
18392TIP3    H176667   0.249   3.139   4.352 -1.7333 -0.3057  0.2514
18392TIP3    H276668   0.162   3.080   4.244 -0.1648  0.2937 -1.3884
18393TIP3   OH276669   5.049   3.787   3.517  0.3266 -0.2972  0.5274
18393TIP3    H176670   4.997   3.711   3.541 -0.7234 -0.2984 -1.5321
18393TIP3    H276671   5.049   3.788   3.422  3.8209 -0.0439  0.3774
18394TIP3   OH276672   2.441   5.419   2.550 -0.0594  0.1408 -0.0466
18394TIP3    H176673   2.375   5.416   2.619 -1.0978  0.7583 -0.9806
18394TIP3    H276674   2.393   5.396   2.470  0.7486  1.0491 -0.8174
18395TIP3   OH276675   3.512   0.497  17.019 -0.1633 -0.0371 -0.1037
18395TIP3    H176676   3.502   0.520  16.927 -1.2333  1.6412  0.3735
18395TIP3    H276677   3.424   0.510  17.056  0.6639  1.2900  1.5338
18396TIP3   OH276678   0.101   1.202  11.930  0.3854 -0.6020  0.4153
18396TIP3    H176679   0.008   1.221  11.944  0.8590  2.2812  0.2226
18396TIP3    H276680   0.146   1.256  11.995  1.9924  0.2948 -1.3534
18397TIP3   OH276681   6.417   2.051  16.235  0.3892  0.0369  0.0034
18397TIP3    H176682   6.502   2.019  16.263  0.5219  0.4353  0.0601
18397TIP3    H276683   6.373   2.078  16.316 -0.2432 -1.2343  0.1014
18398TIP3   OH276684   1.404   3.829   5.136 -0.0834 -0.1056  0.0360
18398TIP3    H176685   1.447   3.911   5.111 -0.3361 -0.0013 -0.0622
18398TIP3    H276686   1.311   3.851   5.140 -0.0420 -0.0804  1.2210
18399TIP3   OH276687   2.693   0.102  14.095 -0.1940 -0.0054 -0.3843
18399TIP3    H176688   2.687   0.186  14.050 -0.6404  1.7732  2.6794
18399TIP3    H276689   2.786   0.081  14.093  0.1481  1.3490  0.0136
18400TIP3   OH276690   5.395   2.015  16.323  0.0708 -0.1215 -0.2563
18400TIP3    H176691   5.408   2.076  16.395  0.5839 -0.1717 -0.3042
18400TIP3    H276692   5.311   1.972  16.342 -0.0475  0.2356  0.0348
18401TIP3   OH276693   3.276   3.868  15.955  0.0802 -0.0214 -0.2754
18401TIP3    H176694   3.194   3.914  15.933  0.9848  1.5105 -0.5887
18401TIP3    H276695   3.334   3.887  15.882  0.8168 -0.8480  0.0859
18402TIP3   OH276696   0.397   4.869  15.007  0.2524  0.6210  0.2706
18402TIP3    H176697   0.343   4.925  14.951 -0.5002  0.8166  1.1710
18402TIP3    H276698   0.428   4.800  14.949 -0.9978  0.4852 -0.2705
18403TIP3   OH276699   1.108   6.347   1.255 -0.0319  0.4791  0.2916
18403TIP3    H176700   1.149   6.268   1.219  0.1337  0.0610  1.3687
18403TIP3    H276701   1.093   6.327   1.347  1.2810  2.1790  0.9482
18404TIP3   OH276702   4.968   1.178  12.169  0.3485  0.3139  0.0101
18404TIP3    H176703   5.015   1.139  12.243 -0.5597 -1.0528 -0.0988
18404TIP3    H276704   4.958   1.106  12.106  0.6454  1.3178 -1.2303
18405TIP3   OH276705   4.985   3.128  17.310  0.1455 -0.6692 -0.3657
18405TIP3    H176706   4.985   3.090  17.398 -0.2446  0.1083 -0.0205
18405TIP3    H276707   4.893   3.135  17.286  0.1023  1.1948  0.1129
18406TIP3   OH276708   2.605   0.994   1.023 -0.2633 -0.3891 -0.1489
18406TIP3    H176709   2.684   0.941   1.033  0.3944  0.3303 -1.2792
18406TIP3    H276710   2.635   1.075   0.982 -1.3812  0.5105  0.7361
18407TIP3   OH276711   4.788   0.779  16.343 -0.0755  0.5404  0.0109
18407TIP3    H176712   4.856   0.846  16.337 -0.3442  0.7742 -0.5688
18407TIP3    H276713   4.765   0.775  16.436  0.5707  0.6113  0.1772
18408TIP3   OH276714   4.945   0.257   2.839 -0.2468  0.1925 -0.1756
18408TIP3    H176715   4.996   0.310   2.778  1.0855 -0.1970  0.5572
18408TIP3    H276716   4.934   0.313   2.916 -1.9708  0.7052 -0.7462
18409TIP3   OH276717   0.587   0.096   2.006  0.1530  0.1323 -0.7484
18409TIP3    H176718   0.628   0.135   2.083  0.3662  1.5816 -1.5616
18409TIP3    H276719   0.657   0.092   1.941 -0.7200  1.8029 -1.8552
18410TIP3   OH276720   6.541   3.408   4.482  0.1759 -0.1446  0.8804
18410TIP3    H176721   6.463   3.362   4.453  1.2091 -1.9650  0.8508
18410TIP3    H276722   6.614   3.355   4.449  1.5369  2.7787 -1.3208
18411TIP3   OH276723   4.392   6.146  16.412 -0.0727  0.7638  0.3605
18411TIP3    H176724   4.481   6.124  16.385  0.1461  1.2318  0.6872
18411TIP3    H276725   4.403   6.205  16.486 -0.6654 -0.3960  1.4169
18412TIP3   OH276726   6.045   6.408   6.358 -0.1752  0.0756  0.2854
18412TIP3    H176727   6.017   6.451   6.278  1.2764 -0.9080 -0.8029
18412TIP3    H276728   5.972   6.351   6.382 -0.4133 -0.0009 -0.6083
18413TIP3   OH276729   1.093   1.954  14.874  0.0185  0.7557 -0.2945
18413TIP3    H176730   1.096   2.050  14.877 -0.4145  0.7619  0.6857
18413TIP3    H276731   1.145   1.926  14.949  0.5843  0.1989 -0.8807
18414TIP3   OH276732   5.365   2.353  15.172  0.5067 -0.5014  0.0565
18414TIP3    H176733   5.412   2.270  15.161 -0.2633 -1.0027  0.4440
18414TIP3    H276734   5.425   2.408  15.223  2.0819  0.1127 -2.2502
18415TIP3   OH276735   4.080   3.133   4.087 -0.1705  0.1041 -0.3574
18415TIP3    H176736   4.087   3.228   4.082 -1.2268  0.1539 -1.2101
18415TIP3    H276737   3.994   3.113   4.051 -1.2522 -0.9556  2.5750
18416TIP3   OH276738   5.369   6.463  11.310  0.4489 -0.0051 -0.1311
18416TIP3    H176739   5.311   6.532  11.277 -0.7606 -0.3501  1.1960
18416TIP3    H276740   5.446   6.511  11.344  1.6381  0.3714 -3.0775
18417TIP3   OH276741   0.946   3.467  16.585  0.0039 -0.1930 -0.0922
18417TIP3    H176742   0.916   3.394  16.640  1.7029 -0.1894  0.9072
18417TIP3    H276743   1.006   3.516  16.641 -0.5651  1.6086 -0.9813
18418TIP3   OH276744   0.357   4.481   5.410  0.3481 -0.1715  0.0468
18418TIP3    H176745   0.354   4.538   5.487  1.6665  0.1182 -0.0830
18418TIP3    H276746   0.311   4.402   5.437  1.7415 -0.5310  1.5728
18419TIP3   OH276747   4.694   2.346   2.856 -0.0834  0.5326 -0.1641
18419TIP3    H176748   4.696   2.435   2.892 -1.4958  1.5654 -2.4319
18419TIP3    H276749   4.606   2.336   2.820 -0.4394 -2.3372  1.1879
18420TIP3   OH276750   3.299   4.849  16.080 -0.1828 -0.0906  0.3648
18420TIP3    H176751   3.380   4.798  16.075 -0.8751 -1.1481 -0.9352
18420TIP3    H276752   3.240   4.806  16.018 -1.8538  0.4689  1.4833
18421TIP3   OH276753   1.648   3.361   0.830 -0.3531  0.1522 -0.2289
18421TIP3    H176754   1.695   3.443   0.812 -2.4428  1.3529 -0.6871
18421TIP3    H276755   1.555   3.387   0.827 -1.0374 -1.8429  1.6546
18422TIP3   OH276756   4.846   4.522  11.909  0.1720 -0.2549 -0.0472
18422TIP3    H176757   4.839   4.476  11.825 -0.2820 -1.7405  0.7712
18422TIP3    H276758   4.897   4.462  11.964 -0.0657  0.4240  0.9186
18423TIP3   OH276759   5.502   3.937  12.381 -0.1536  0.3928  0.1016
18423TIP3    H176760   5.551   3.892  12.449 -0.5046 -1.7257 -0.9744
18423TIP3    H276761   5.551   4.018  12.366  0.1110  0.7478  2.5834
18424TIP3   OH276762   6.047   4.609  14.025  0.2433 -0.8606  0.3905
18424TIP3    H176763   5.984   4.595  13.955  0.7801 -0.1361 -0.2562
18424TIP3    H276764   6.062   4.703  14.025 -0.9659 -0.6037  2.5713
18425TIP3   OH276765   4.661   1.801  16.865  0.3381 -0.3399  0.2334
18425TIP3    H176766   4.665   1.829  16.774  1.7825 -1.3240 -0.0491
18425TIP3    H276767   4.697   1.874  16.915  0.6559 -0.2454 -0.1262
18426TIP3   OH276768   4.024   6.164   0.522 -0.0492  0.3820  0.1955
18426TIP3    H176769   4.105   6.153   0.471 -0.1493  1.8609 -0.3154
18426TIP3    H276770   4.024   6.256   0.548 -1.0466  0.1364  1.1066
18427TIP3   OH276771   4.993   1.341   1.679 -0.6787  0.8765 -0.1168
18427TIP3    H176772   4.908   1.301   1.697 -0.4139  0.1657 -0.4014
18427TIP3    H276773   4.986   1.373   1.589 -1.0795  1.9864  0.2990
18428TIP3   OH276774   5.767   3.673   2.708  0.2046 -0.1202 -0.7842
18428TIP3    H176775   5.859   3.692   2.692  0.3054 -1.0256 -1.3437
18428TIP3    H276776   5.760   3.577   2.701 -0.8147 -0.0476 -0.9926
18429TIP3   OH276777   4.040   4.892   1.726 -0.2325 -0.6528 -0.0970
18429TIP3    H176778   4.110   4.832   1.752  0.3959  0.2331  0.3327
18429TIP3    H276779   4.056   4.971   1.778  0.4469  0.8197 -2.4079
18430TIP3   OH276780   3.834   1.856   4.511  0.2246  0.1975 -0.6976
18430TIP3    H176781   3.764   1.809   4.556 -0.0192  0.7945 -0.4294
18430TIP3    H276782   3.792   1.893   4.433  0.0367  1.1627 -0.1655
18431TIP3   OH276783   4.943   3.961   6.239  0.2651 -0.1455 -0.0079
18431TIP3    H176784   4.934   4.024   6.168  0.3734  1.2346  1.1572
18431TIP3    H276785   4.867   3.977   6.296 -0.3239 -1.8594 -0.2716
18432TIP3   OH276786   4.369   0.429  16.085 -0.1582 -0.3675  0.3111
18432TIP3    H176787   4.278   0.409  16.061  0.0270 -0.6204 -0.2017
18432TIP3    H276788   4.393   0.359  16.146 -0.0955 -0.6940 -0.0787
18433TIP3   OH276789   2.602   5.397   4.723  0.2130 -0.2987  0.1814
18433TIP3    H176790   2.617   5.492   4.717 -1.0665 -0.1008 -0.1612
18433TIP3    H276791   2.625   5.364   4.637  0.6557 -0.3020  0.2991
18434TIP3   OH276792   2.303   3.554   6.405  0.1245 -0.4585 -0.2519
18434TIP3    H176793   2.290   3.461   6.420 -1.4090 -0.3260 -0.6119
18434TIP3    H276794   2.395   3.569   6.427  0.0515 -1.7858  1.1595
18435TIP3   OH276795   6.765   2.965  14.785 -0.4481  0.5132 -0.0125
18435TIP3    H176796   6.762   3.057  14.759  0.0255  0.9025  1.2530
18435TIP3    H276797   6.716   2.919  14.717  0.0264  1.5890 -1.1169
18436TIP3   OH276798   4.565   4.900   0.420 -0.0321 -0.5484  0.3862
18436TIP3    H176799   4.567   4.974   0.482  0.1463  0.7456 -1.1046
18436TIP3    H276800   4.487   4.915   0.367  1.0797 -0.2859 -1.2447
18437TIP3   OH276801   3.394   0.172   5.089  0.0837 -0.3155  0.1651
18437TIP3    H176802   3.439   0.095   5.055  3.0310  0.4861  1.9036
18437TIP3    H276803   3.310   0.139   5.119  1.5113 -3.0893  1.5342
18438TIP3   OH276804   2.190   0.460  17.287  0.0313 -0.0844 -0.7271
18438TIP3    H176805   2.122   0.517  17.251  0.7172 -0.3209 -2.4634
18438TIP3    H276806   2.144   0.379  17.308 -0.8339  0.8242  1.2099
18439TIP3   OH276807   6.768   2.047  17.265 -0.1874  0.3747 -0.1019
18439TIP3    H176808   6.770   2.058  17.360  2.5807 -0.5962  0.0233
18439TIP3    H276809   6.730   1.960  17.253 -0.1436  0.3193  0.1423
18440TIP3   OH276810   2.003   6.034   4.600 -0.1154 -0.1988  0.1028
18440TIP3    H176811   1.955   6.045   4.519  1.6134 -1.1925 -1.1189
18440TIP3    H276812   1.958   5.963   4.646 -0.6409 -0.1549 -0.3391
18441TIP3   OH276813   0.519   3.717  15.688  0.2035 -0.5718  0.2563
18441TIP3    H176814   0.592   3.777  15.705 -0.4429  0.8168 -1.5681
18441TIP3    H276815   0.457   3.733  15.760  0.9744 -0.6429  0.9559
18442TIP3   OH276816   5.574   0.845   0.761 -0.2198 -0.2154 -0.2273
18442TIP3    H176817   5.547   0.828   0.851 -2.1297 -0.4821 -0.8037
18442TIP3    H276818   5.669   0.842   0.763 -0.1801 -4.2992  1.0473
18443TIP3   OH276819   1.829   6.222   5.863 -0.0719 -1.0697 -1.3003
18443TIP3    H176820   1.877   6.236   5.945 -1.8300  0.7370 -0.4935
18443TIP3    H276821   1.790   6.135   5.873 -2.6420  0.1802  1.2045
18444TIP3   OH276822   0.092   0.983   4.826 -0.0310 -0.5481 -0.4489
18444TIP3    H176823   0.076   0.924   4.900 -0.6853 -0.6725 -0.6855
18444TIP3    H276824   0.158   1.045   4.859  0.9883 -1.6594 -0.3409
18445TIP3   OH276825   6.243   6.620   4.727  0.3312  0.3342 -0.0457
18445TIP3    H176826   6.253   6.572   4.810 -2.6867 -1.9048 -0.8138
18445TIP3    H276827   6.286   6.564   4.662 -1.4047 -0.3881 -0.6324
18446TIP3   OH276828   4.735   3.045  15.892  0.9237  0.4408  0.3118
18446TIP3    H176829   4.779   3.051  15.977 -0.7439  0.5598  1.1890
18446TIP3    H276830   4.765   2.960  15.857  1.2214  0.1449  1.2398
18447TIP3   OH276831   6.016   1.321   5.483 -0.2314 -0.2511  0.1452
18447TIP3    H176832   6.081   1.331   5.413 -0.2346  0.4187  0.2351
18447TIP3    H276833   6.012   1.226   5.497  1.4171 -0.2691  0.7719
18448TIP3   OH276834   5.073   6.398  12.324  0.2492 -0.3938 -0.5709
18448TIP3    H176835   5.101   6.483  12.358  0.2644 -0.4976 -0.3280
18448TIP3    H276836   5.010   6.420  12.256 -0.1941 -0.2064 -0.1023
18449TIP3   OH276837   0.057   1.418   0.469  0.4986  0.4808 -0.3399
18449TIP3    H176838   0.047   1.393   0.377  4.4057  0.0650 -0.8593
18449TIP3    H276839   0.071   1.335   0.515  1.5568  0.8502  0.0436
18450TIP3   OH276840   6.343   6.790   3.259 -0.1412 -0.5094  0.3158
18450TIP3    H176841   6.280   6.828   3.198 -0.6554 -0.4691  0.8745
18450TIP3    H276842   6.317   6.698   3.267 -0.5915 -0.3220  1.1211
18451TIP3   OH276843   5.581   5.434  12.886 -0.1510 -0.3361 -0.5292
18451TIP3    H176844   5.633   5.429  12.806 -1.5650 -2.6985 -1.4176
18451TIP3    H276845   5.503   5.483  12.860  0.1774  0.4415 -0.0768
18452TIP3   OH276846   2.546   0.520  15.791  0.3539  0.5042  0.4461
18452TIP3    H176847   2.466   0.517  15.843 -0.5264  0.6397 -0.8572
18452TIP3    H276848   2.520   0.490  15.704  2.1839 -1.5527  0.5140
18453TIP3   OH276849   2.833   0.155   1.255 -0.2960 -0.1604 -0.8934
18453TIP3    H176850   2.803   0.246   1.251  0.5472  0.1465 -0.3816
18453TIP3    H276851   2.901   0.154   1.322  1.4321 -0.6677 -2.5700
18454TIP3   OH276852   3.273   6.029   3.708  0.0787 -0.0599  0.0802
18454TIP3    H176853   3.255   6.109   3.659 -2.0523 -0.8178 -0.4686
18454TIP3    H276854   3.193   5.977   3.700  1.6279 -2.5896 -0.2191
18455TIP3   OH276855   1.950   3.797   4.346  0.2527  0.6453  0.0222
18455TIP3    H176856   1.991   3.860   4.288 -0.2378  0.9697  0.0160
18455TIP3    H276857   1.935   3.720   4.292 -0.9693  1.2413 -0.5400
18456TIP3   OH276858   0.703   3.577  10.665  0.5281 -0.0664  0.2218
18456TIP3    H176859   0.741   3.499  10.626  0.1376  0.1405 -0.5940
18456TIP3    H276860   0.772   3.644  10.658  0.4111  0.0074 -0.2482
18457TIP3   OH276861   5.314   3.080   5.174  0.7111  0.1747  0.2213
18457TIP3    H176862   5.402   3.088   5.210  0.3954  0.9694  0.8461
18457TIP3    H276863   5.310   3.146   5.105  0.2166  0.9858  1.0117
18458TIP3   OH276864   1.770   6.166   0.714  0.1269  0.0656  0.6089
18458TIP3    H176865   1.795   6.074   0.702  1.3798  0.4849 -0.2472
18458TIP3    H276866   1.675   6.167   0.699  0.3380 -0.8409 -1.0379
18459TIP3   OH276867   0.152   4.815  14.044 -0.0838  0.4179  0.2334
18459TIP3    H176868   0.241   4.839  14.017 -0.3969  0.4022 -0.8805
18459TIP3    H276869   0.101   4.896  14.035 -0.8188 -0.2153 -2.1121
18460TIP3   OH276870   5.629   3.253   1.832 -0.4157 -0.2103  0.4223
18460TIP3    H176871   5.663   3.183   1.776 -0.9672  1.5192 -2.2617
18460TIP3    H276872   5.536   3.256   1.812 -0.5074  0.8920  0.9536
18461TIP3   OH276873   0.130   2.743  11.916  0.1057 -0.6155  0.2704
18461TIP3    H176874   0.088   2.685  11.853  0.6316 -0.0471 -0.6066
18461TIP3    H276875   0.099   2.711  12.001 -0.9317 -1.1327 -0.2792
18462TIP3   OH276876   1.778   3.955  16.741 -0.0961 -0.8888  0.3451
18462TIP3    H176877   1.737   3.957  16.654 -0.4685 -2.4995  0.4662
18462TIP3    H276878   1.871   3.938  16.723 -0.0371 -0.4613  0.2322
18463TIP3   OH276879   2.261   2.843  13.494 -0.3412  0.1981  0.1812
18463TIP3    H176880   2.192   2.873  13.554 -0.0588  1.2578 -0.0032
18463TIP3    H276881   2.295   2.764  13.535 -1.9766 -0.6216  0.0372
18464TIP3   OH276882   4.242   1.798  16.806 -0.4775 -0.2175 -0.2783
18464TIP3    H176883   4.264   1.706  16.792 -0.8631 -0.3341 -0.1420
18464TIP3    H276884   4.152   1.805  16.775 -0.5982  0.0150  0.1240
18465TIP3   OH276885   1.895   2.400  12.886  0.2365  0.3271  0.2022
18465TIP3    H176886   1.848   2.483  12.885 -0.4816 -0.0625 -1.2673
18465TIP3    H276887   1.944   2.398  12.804 -0.8858 -1.2927 -0.4844
18466TIP3   OH276888   0.254   2.400  15.837 -0.2028 -0.6445  0.8263
18466TIP3    H176889   0.250   2.408  15.932  2.3766  0.5759  0.9379
18466TIP3    H276890   0.177   2.448  15.805 -0.7504 -0.5184  2.2901
18467TIP3   OH276891   1.729   2.035  11.686 -0.4840 -0.6868  0.0672
18467TIP3    H176892   1.816   1.996  11.677 -0.1874  0.0561 -0.3049
18467TIP3    H276893   1.737   2.096  11.759 -0.3750  0.2455 -0.7134
18468TIP3   OH276894   5.443   6.093   5.810 -0.3066 -0.1095 -0.9250
18468TIP3    H176895   5.430   6.115   5.902 -1.4078 -0.1194 -1.0653
18468TIP3    H276896   5.376   6.143   5.763  0.4034  0.0949 -1.7581
18469TIP3   OH276897   5.825   5.234   3.061  0.7612  0.7255  0.1750
18469TIP3    H176898   5.800   5.285   2.984  1.6305 -0.4661 -0.9347
18469TIP3    H276899   5.920   5.227   3.055  0.6480 -1.1439  0.2048
18470TIP3   OH276900   1.266   2.414  13.984  0.6773 -0.4025 -0.1750
18470TIP3    H176901   1.185   2.363  13.984  1.6114 -1.9251  0.6528
18470TIP3    H276902   1.322   2.371  14.048  1.9565  0.9638 -0.3290
18471TIP3   OH276903   5.915   5.937   4.274  0.1319 -0.0204 -0.5164
18471TIP3    H176904   5.938   6.021   4.234 -0.8356 -0.3455 -1.8195
18471TIP3    H276905   5.938   5.872   4.207 -2.1331 -0.5306 -0.8745
18472TIP3   OH276906   5.431   3.511  14.712 -0.2821  0.2251 -0.1546
18472TIP3    H176907   5.502   3.502  14.649 -1.6145  0.0341 -1.7133
18472TIP3    H276908   5.472   3.500  14.797  1.4621 -0.3433 -1.0266
18473TIP3   OH276909   1.459   0.388  16.938  0.4732 -0.8387  0.6267
18473TIP3    H176910   1.422   0.346  17.015 -1.6059 -1.3354 -0.5544
18473TIP3    H276911   1.390   0.447  16.907  2.3137  1.4694  0.6960
18474TIP3   OH276912   3.937   5.052  15.632 -0.0280 -0.0444  0.0343
18474TIP3    H176913   4.023   5.012  15.642  0.6072  1.2014 -0.2763
18474TIP3    H276914   3.881   5.004  15.694  0.4275 -2.0810 -1.0371
18475TIP3   OH276915   3.489   4.381  11.557 -0.0881 -0.0369 -0.3055
18475TIP3    H176916   3.499   4.425  11.473  0.9348  0.9238  0.2982
18475TIP3    H276917   3.557   4.419  11.613 -1.0089 -0.3441  1.0829
18476TIP3   OH276918   0.643   5.334  15.633  0.1270 -0.0645 -0.1128
18476TIP3    H176919   0.680   5.367  15.716 -1.2863  1.5163 -0.0557
18476TIP3    H276920   0.669   5.400  15.568  1.3370 -1.3582 -1.0075
18477TIP3   OH276921   1.257   0.356  14.677  0.1679 -0.4189 -0.0677
18477TIP3    H176922   1.332   0.333  14.624  0.8154  0.1717  0.5689
18477TIP3    H276923   1.288   0.428  14.733 -0.2335 -1.5311  1.6666
18478TIP3   OH276924   2.125   2.119   2.233 -0.7602 -0.0957  0.3102
18478TIP3    H176925   2.055   2.119   2.167  1.4684 -2.6463 -2.2928
18478TIP3    H276926   2.194   2.172   2.195 -0.7145  1.3254  2.2679
18479TIP3   OH276927   3.127   5.058  15.169 -0.6571  0.2654  0.0366
18479TIP3    H176928   3.126   5.131  15.108 -0.2747  1.1311  1.0314
18479TIP3    H276929   3.163   4.985  15.119  0.0767  1.0739 -0.6435
18480TIP3   OH276930   4.198   5.090   2.076  0.2676  0.3746 -0.0319
18480TIP3    H176931   4.283   5.074   2.117  0.3096 -0.6955 -0.5106
18480TIP3    H276932   4.141   5.022   2.113 -0.4132  1.1255  0.3439
18481TIP3   OH276933   0.538   6.128   4.258  0.1121 -0.1515 -0.4173
18481TIP3    H176934   0.560   6.150   4.167  1.3206  0.7855  0.0773
18481TIP3    H276935   0.465   6.185   4.279  0.0491 -0.1302 -0.6848
18482TIP3   OH276936   1.159   4.449   1.108 -0.6288 -0.7769  0.2668
18482TIP3    H176937   1.140   4.537   1.076 -0.3993 -1.3449 -1.4896
18482TIP3    H276938   1.074   4.412   1.129 -0.8856 -0.7791 -0.7468
18483TIP3   OH276939   1.702   2.581   4.268  0.0143 -0.4167  0.1597
18483TIP3    H176940   1.790   2.553   4.293 -0.1705  0.2691  1.6419
18483TIP3    H276941   1.709   2.676   4.256 -1.1273  0.1654  3.2832
18484TIP3   OH276942   0.812   0.812  14.637  0.1095  0.4862 -0.0630
18484TIP3    H176943   0.815   0.895  14.683  0.2011  0.0041  0.8230
18484TIP3    H276944   0.891   0.811  14.583 -0.7716  1.7207 -1.4522
18485TIP3   OH276945   3.332   3.132   3.158  0.8344 -0.2565 -0.2372
18485TIP3    H176946   3.396   3.198   3.185  1.3282 -0.1392 -1.6133
18485TIP3    H276947   3.323   3.074   3.234  0.5345  1.2519  0.9543
18486TIP3   OH276948   1.788   6.436   4.560 -0.3444  0.5988 -0.2643
18486TIP3    H176949   1.755   6.410   4.646 -1.6776  1.4535 -0.5020
18486TIP3    H276950   1.784   6.532   4.561  0.2293  0.6395 -1.0655
18487TIP3   OH276951   4.132   2.387  17.095 -0.1042 -0.6278  0.2681
18487TIP3    H176952   4.134   2.471  17.049 -0.6181 -0.6605  0.1793
18487TIP3    H276953   4.131   2.322  17.025  0.9687 -0.7309  0.3398
18488TIP3   OH276954   1.500   5.435   4.887  0.1422  0.1070 -0.3406
18488TIP3    H176955   1.451   5.367   4.934  0.6432  0.2889  0.4777
18488TIP3    H276956   1.487   5.415   4.795 -1.7246  0.3185 -0.1806
18489TIP3   OH276957   1.428   6.139   5.946  0.9397  0.0669  0.5952
18489TIP3    H176958   1.351   6.167   5.994 -0.5082 -0.6390 -1.2020
18489TIP3    H276959   1.470   6.075   6.003  0.4864  0.8231  1.8082
18490TIP3   OH276960   5.427   2.787  11.831  0.1203  0.5861  0.1309
18490TIP3    H176961   5.349   2.825  11.871  0.0957 -0.4423  1.1167
18490TIP3    H276962   5.398   2.762  11.743 -0.3910  1.0590  0.1555
18491TIP3   OH276963   0.521   5.913   3.448  0.1307  0.1210 -0.0551
18491TIP3    H176964   0.556   5.985   3.500 -1.0250  1.3757 -0.9390
18491TIP3    H276965   0.444   5.883   3.496 -0.2713  0.5168 -0.4345
18492TIP3   OH276966   5.701   1.862  12.750 -0.9160  0.1950 -0.0853
18492TIP3    H176967   5.655   1.911  12.683  0.9246  1.2108 -0.6916
18492TIP3    H276968   5.771   1.817  12.702 -0.3262 -0.0567  0.9843
18493TIP3   OH276969   1.924   1.979   7.113 -0.2138 -0.4897 -0.2395
18493TIP3    H176970   2.009   2.011   7.081 -0.4489 -1.4854 -1.9922
18493TIP3    H276971   1.928   1.885   7.098 -1.3361 -0.6478  0.4110
18494TIP3   OH276972   4.996   5.029  14.076 -0.0223 -0.3808  0.4576
18494TIP3    H176973   4.925   4.988  14.025  0.3812 -0.2614 -0.2124
18494TIP3    H276974   4.952   5.095  14.129 -0.1521  1.5112 -1.8547
18495TIP3   OH276975   5.562   2.870  14.941 -0.4189  0.0499  0.0350
18495TIP3    H176976   5.617   2.948  14.946 -0.3058 -0.0451  0.2700
18495TIP3    H276977   5.485   2.898  14.891  0.6271 -0.2747 -1.8485
18496TIP3   OH276978   2.455   0.086  16.278 -0.0793  0.0571 -0.5468
18496TIP3    H176979   2.463  -0.004  16.310  0.1934  0.4157  0.4503
18496TIP3    H276980   2.365   0.111  16.299  0.4518  0.7132  1.1870
18497TIP3   OH276981   1.108   4.289  14.045 -0.5638 -0.3947  0.3694
18497TIP3    H176982   1.080   4.287  13.954 -0.1514  2.6584  0.0543
18497TIP3    H276983   1.028   4.273  14.096 -1.4353  0.8226 -0.5526
18498TIP3   OH276984   1.011   3.294  12.281  0.2978  0.2685  0.3915
18498TIP3    H176985   1.036   3.215  12.329 -0.7498 -1.5907 -1.8883
18498TIP3    H276986   1.092   3.327  12.243  0.4439 -1.2602 -0.7178
18499TIP3   OH276987   1.791   1.034  14.307 -0.2096  0.1283 -0.1836
18499TIP3    H176988   1.775   0.941  14.320 -0.5747  0.0661 -1.0145
18499TIP3    H276989   1.876   1.038  14.264 -0.8341  0.0748 -1.4722
18500TIP3   OH276990   4.053   5.659   0.986  0.1178  0.8993  0.2992
18500TIP3    H176991   4.034   5.749   1.014  0.1356  1.2180 -0.6658
18500TIP3    H276992   4.028   5.605   1.061  0.1431  1.7064  0.9122
18501TIP3   OH276993   3.926   4.159   4.778  0.2849 -0.0479  0.2255
18501TIP3    H176994   3.908   4.201   4.693  0.6834  0.4782  0.3953
18501TIP3    H276995   4.003   4.106   4.763 -0.2771 -0.8115 -0.0146
18502TIP3   OH276996   3.539   2.155  13.957 -0.0040  0.3796 -0.1939
18502TIP3    H176997   3.499   2.217  13.896  0.5725 -0.0541 -1.0359
18502TIP3    H276998   3.565   2.209  14.032 -1.2247  0.8262 -0.0783
18503TIP3   OH276999   0.378   1.168  16.075  0.0390 -0.5839 -0.7927
18503TIP3    H177000   0.380   1.219  15.994  0.7345 -1.1111 -1.1196
18503TIP3    H277001   0.452   1.108  16.068 -0.7682 -1.6685 -0.4442
18504TIP3   OH277002   3.811   4.973  16.436  0.6298  0.0322  0.4434
18504TIP3    H177003   3.877   4.940  16.375 -0.2201  1.1245 -1.1237
18504TIP3    H277004   3.779   5.053  16.395 -0.6313  0.3051  1.8954
18505TIP3   OH277005   4.831   4.425   3.077  0.0563  0.1612 -0.2468
18505TIP3    H177006   4.893   4.382   3.136 -0.2579 -0.5478 -0.4275
18505TIP3    H277007   4.751   4.373   3.084  0.5064 -0.9668 -2.5331
18506TIP3   OH277008   4.041   6.758  15.521  0.0492 -1.1063 -0.0729
18506TIP3    H177009   4.075   6.759  15.431  1.2696 -0.1865  0.3787
18506TIP3    H277010   3.977   6.828  15.523 -0.7446 -1.7934 -0.4817
18507TIP3   OH277011   5.586   2.797  15.220 -0.1358  0.4142  0.2622
18507TIP3    H177012   5.668   2.748  15.234 -0.1333  0.6040  0.9886
18507TIP3    H277013   5.571   2.792  15.126  0.7731  0.4629  0.0967
18508TIP3   OH277014   2.399   2.969  14.024  0.1770  0.4372 -0.0434
18508TIP3    H177015   2.363   2.886  14.057 -0.4326  0.5157 -0.4904
18508TIP3    H277016   2.345   2.990  13.948  0.9251  0.7738 -0.4911
18509TIP3   OH277017   3.367   2.076  11.805 -0.2030  0.2141 -0.4228
18509TIP3    H177018   3.281   2.058  11.843 -0.6081  3.5918  0.6509
18509TIP3    H277019   3.349   2.098  11.714 -0.5079  0.7574 -0.2396
18510TIP3   OH277020   2.001   4.045   1.383 -0.4124 -0.6812 -0.4646
18510TIP3    H177021   1.958   3.966   1.351 -0.5786 -1.4552  1.5341
18510TIP3    H277022   2.077   4.013   1.432 -0.7570  0.3306  0.8002
18511TIP3   OH277023   3.909   3.468   4.530 -0.3956 -0.3929  0.3735
18511TIP3    H177024   3.911   3.521   4.610  0.4307  2.0485 -1.1345
18511TIP3    H277025   3.841   3.508   4.475 -0.0942 -1.2092 -0.6442
18512TIP3   OH277026   0.145   4.621  11.512 -0.0727  0.2733 -0.5286
18512TIP3    H177027   0.085   4.580  11.575  1.8132  0.2653  1.3903
18512TIP3    H277028   0.210   4.665  11.567  0.4804  2.0867 -2.5316
18513TIP3   OH277029   5.257   2.117  13.219 -0.0979 -0.9113  0.3080
18513TIP3    H177030   5.343   2.160  13.213 -0.2706 -0.2409  2.0658
18513TIP3    H277031   5.263   2.044  13.158  1.1196  0.1006 -0.8562
18514TIP3   OH277032   6.004   1.436  15.456 -0.4181  0.2145  0.1381
18514TIP3    H177033   5.961   1.471  15.378  0.9404  0.6564 -0.4513
18514TIP3    H277034   6.006   1.508  15.518  2.4730  1.3892 -1.1127
18515TIP3   OH277035   0.762   2.417   0.881 -0.4237 -0.4438  0.6102
18515TIP3    H177036   0.808   2.380   0.806 -0.2726  0.7168  0.1076
18515TIP3    H277037   0.818   2.399   0.956  1.1016  1.2572 -0.0352
18516TIP3   OH277038   2.741   0.923   5.001  0.1126 -0.5595  0.1147
18516TIP3    H177039   2.787   0.903   5.083 -0.1765 -0.4573  0.3042
18516TIP3    H277040   2.744   1.018   4.994 -1.5632 -0.3971  1.0263
18517TIP3   OH277041   5.548   2.102   4.661 -0.2997  0.4421 -0.3750
18517TIP3    H177042   5.542   2.130   4.752  0.2757  1.0374 -0.5144
18517TIP3    H277043   5.464   2.125   4.623 -0.2048  1.0367 -0.2268
18518TIP3   OH277044   4.892   3.706  11.833  0.1344  0.0030 -0.2314
18518TIP3    H177045   4.877   3.612  11.823 -2.4051  0.2185  0.7275
18518TIP3    H277046   4.938   3.715  11.917 -0.7782 -0.3355  0.3162
18519TIP3   OH277047   0.929   2.227   4.367 -0.2466  0.8645 -0.4731
18519TIP3    H177048   0.965   2.234   4.279  0.5126  0.0760 -0.2387
18519TIP3    H277049   1.005   2.213   4.423 -0.8966 -1.0673 -0.0002
18520TIP3   OH277050   2.130   0.938  11.208  0.1395  0.0512  0.0309
18520TIP3    H177051   2.171   0.941  11.294 -0.2851 -0.0871  0.2411
18520TIP3    H277052   2.202   0.948  11.146  0.5249 -0.4783  0.3880
18521TIP3   OH277053   0.096   0.905   5.594 -0.3234  0.3475 -0.4191
18521TIP3    H177054   0.077   0.947   5.678 -0.2064  0.1191 -0.2781
18521TIP3    H277055   0.033   0.833   5.589 -0.0913  0.1400 -0.3625
18522TIP3   OH277056   5.273   2.228   5.192 -0.6395  0.3823  0.2820
18522TIP3    H177057   5.234   2.140   5.192 -2.4016  1.1245  0.4922
18522TIP3    H277058   5.367   2.212   5.191 -0.8908 -1.5199 -1.4345
18523TIP3   OH277059   5.143   4.585  17.004  0.0524 -0.0170  0.8338
18523TIP3    H177060   5.197   4.663  16.992 -0.6000  0.3060 -0.1874
18523TIP3    H277061   5.167   4.551  17.090  2.5428 -0.4137  0.0658
18524TIP3   OH277062   4.483   2.104   3.466 -0.1557  0.2048 -0.2417
18524TIP3    H177063   4.548   2.076   3.531  0.0794 -1.4381 -1.1447
18524TIP3    H277064   4.526   2.176   3.419  1.3327 -1.2738 -1.2566
18525TIP3   OH277065   5.147   3.795  13.184  0.2361  0.0500 -0.4280
18525TIP3    H177066   5.177   3.767  13.098  0.4670  1.7916 -0.9528
18525TIP3    H277067   5.187   3.733  13.245 -0.1553 -1.3802 -1.5712
18526TIP3   OH277068   2.639   3.313  15.889 -0.1644  0.2793  0.2426
18526TIP3    H177069   2.627   3.228  15.847 -1.0308  1.3195 -1.7431
18526TIP3    H277070   2.618   3.297  15.981  0.3050 -1.7701  0.0348
18527TIP3   OH277071   6.187   0.940   3.567 -0.4498  0.2145  0.1447
18527TIP3    H177072   6.254   0.881   3.533 -0.0819  1.1000 -0.7094
18527TIP3    H277073   6.151   0.894   3.643  1.5085 -0.0413  0.9747
18528TIP3   OH277074   1.034   1.978   6.236  0.0559  0.1806  0.1823
18528TIP3    H177075   1.104   2.042   6.249  0.6193 -0.4236  0.2275
18528TIP3    H277076   1.026   1.970   6.141 -1.3727  1.7363  0.1284
18529TIP3   OH277077   0.287   3.708  15.247  0.2056  0.0536 -0.3714
18529TIP3    H177078   0.331   3.767  15.308 -3.0312  0.4123  1.8840
18529TIP3    H277079   0.311   3.620  15.276  1.5942  0.1882 -1.0143
18530TIP3   OH277080   1.922   3.443  17.001 -0.4725  0.3807  0.4939
18530TIP3    H177081   1.935   3.519  16.944 -0.2756  0.3384  0.4807
18530TIP3    H277082   1.940   3.368  16.945  1.9248  0.3856  1.1363
18531TIP3   OH277083   6.009   5.477  16.481  0.8465  0.1164 -0.0323
18531TIP3    H177084   5.958   5.424  16.543  1.7084  0.9900  1.4912
18531TIP3    H277085   6.002   5.430  16.398 -0.0081 -1.3399  0.8164
18532TIP3   OH277086   6.237   1.824   5.756 -0.4640  0.0283  0.3918
18532TIP3    H177087   6.315   1.803   5.808  0.1451  0.2949 -0.3942
18532TIP3    H277088   6.227   1.919   5.765  1.2606  0.5423 -2.1044
18533TIP3   OH277089   3.635   0.377   2.346 -1.0564  0.5949  0.1301
18533TIP3    H177090   3.630   0.291   2.304  0.5715  2.0259 -3.3892
18533TIP3    H277091   3.547   0.414   2.334 -0.9317  0.5315 -1.0977
18534TIP3   OH277092   5.449   4.690   1.204  0.6472  0.2766 -0.0940
18534TIP3    H177093   5.525   4.710   1.258  1.3757  3.1705 -1.9915
18534TIP3    H277094   5.483   4.684   1.115 -1.3767  2.6496 -1.1333
18535TIP3   OH277095   4.094   4.613   0.866 -0.3744  0.0662  0.3300
18535TIP3    H177096   4.018   4.572   0.908  0.1228 -0.6696  0.5144
18535TIP3    H277097   4.095   4.702   0.902 -0.3780 -0.3289  1.3388
18536TIP3   OH277098   4.878   2.406  16.194 -0.2000 -0.3040 -0.8167
18536TIP3    H177099   4.895   2.494  16.161 -0.0030 -0.0872 -0.1597
18536TIP3    H277100   4.787   2.388  16.169 -0.1945  0.0301 -1.0808
18537TIP3   OH277101   2.244   3.119   5.290 -0.3422  0.0521 -0.2830
18537TIP3    H177102   2.327   3.092   5.331 -0.3929 -0.7085 -0.6759
18537TIP3    H277103   2.187   3.043   5.301 -1.4831  1.0645  1.2778
18538TIP3   OH277104   0.247   6.066  16.636 -0.1094 -0.0332  0.0610
18538TIP3    H177105   0.326   6.098  16.592  0.4040  0.3151  1.2098
18538TIP3    H277106   0.278   6.030  16.718 -1.2098  0.5951  0.7742
18539TIP3   OH277107   3.448   1.777   1.843  0.5363  0.2345  0.9335
18539TIP3    H177108   3.423   1.685   1.835  0.7492  0.0825  1.8706
18539TIP3    H277109   3.366   1.825   1.832  0.3582 -0.0916  0.8274
18540TIP3   OH277110   2.489   1.434   1.440  0.8609  0.6678 -0.3712
18540TIP3    H177111   2.405   1.481   1.445 -0.2834 -1.3159  0.2853
18540TIP3    H277112   2.550   1.489   1.489 -0.1156  1.9956 -0.5640
18541TIP3   OH277113   1.927   1.822   2.611  0.1094  0.3350 -0.3096
18541TIP3    H177114   1.871   1.843   2.686 -1.2423  2.2862 -1.7776
18541TIP3    H277115   1.900   1.883   2.543  2.8246  0.1546 -1.6924
18542TIP3   OH277116   4.550   2.657   0.587 -0.0975  0.3926 -0.0894
18542TIP3    H177117   4.609   2.583   0.603 -0.6568  0.2433  1.3939
18542TIP3    H277118   4.556   2.710   0.666  0.9954  2.4842 -1.4712
18543TIP3   OH277119   1.382   0.378   1.094  0.2158 -0.5311 -0.3443
18543TIP3    H177120   1.386   0.284   1.114 -0.0792 -0.9914 -2.2325
18543TIP3    H277121   1.466   0.397   1.052 -1.1325 -0.9026 -3.4689
18544TIP3   OH277122   3.279   2.482  12.926  0.0848  0.7602  0.2454
18544TIP3    H177123   3.267   2.389  12.943  3.5086 -0.0950 -1.1147
18544TIP3    H277124   3.266   2.524  13.012  0.0700 -1.1630  1.2352
18545TIP3   OH277125   3.742   0.503   3.011 -0.8011 -0.6878 -0.5114
18545TIP3    H177126   3.781   0.590   3.010 -1.7316 -0.2025  1.3104
18545TIP3    H277127   3.813   0.445   3.040 -0.8256 -0.1333  0.7165
18546TIP3   OH277128   4.967   1.225  11.292 -0.0567  0.2856 -0.2902
18546TIP3    H177129   4.993   1.196  11.379 -2.0148 -1.4764 -0.2078
18546TIP3    H277130   5.036   1.194  11.233  1.4210  1.7320  0.6156
18547TIP3   OH277131   3.781   3.862   3.477 -0.3057  0.1204 -0.2235
18547TIP3    H177132   3.695   3.904   3.467  0.2421  1.2146 -0.4552
18547TIP3    H277133   3.823   3.872   3.392 -0.2815 -1.2159 -0.3852
18548TIP3   OH277134   0.133   5.678  15.542  0.2095 -0.2506 -0.7422
18548TIP3    H177135   0.078   5.701  15.617  0.2757  0.5111 -0.9233
18548TIP3    H277136   0.097   5.595  15.510 -0.7472  0.1658 -0.7695
18549TIP3   OH277137   4.030   2.524  16.707 -0.4233  0.1731 -0.2533
18549TIP3    H177138   3.956   2.487  16.757 -0.2956 -0.2765 -0.3936
18549TIP3    H277139   4.006   2.615  16.694  0.1122  0.6593  1.7486
18550TIP3   OH277140   6.209   3.681  11.610 -0.8222 -0.0106 -0.0413
18550TIP3    H177141   6.117   3.681  11.583 -0.6975 -0.0634 -0.4585
18550TIP3    H277142   6.230   3.774  11.623 -1.1252 -0.0355  0.7192
18551TIP3   OH277143   6.386   1.869  11.701  0.0431 -0.1012 -0.3434
18551TIP3    H177144   6.391   1.946  11.757  1.0186 -1.1326  1.0670
18551TIP3    H277145   6.468   1.823  11.715 -1.1879 -2.2924  0.2645
18552TIP3   OH277146   2.853   6.095   5.877  0.7223 -0.5796  0.3467
18552TIP3    H177147   2.852   6.107   5.782 -1.2337 -0.2424  0.3686
18552TIP3    H277148   2.760   6.095   5.903  1.1986 -0.7683  2.2436
18553TIP3   OH277149   3.927   3.722   1.924 -0.0135 -0.0660 -0.0411
18553TIP3    H177150   3.976   3.649   1.885  2.3604  1.2796  0.2264
18553TIP3    H277151   3.910   3.693   2.014 -0.3366 -0.8341 -0.3371
18554TIP3   OH277152   5.764   4.413   4.457  0.1739  0.3498 -0.1247
18554TIP3    H177153   5.850   4.383   4.429  0.1988  1.8514 -1.8510
18554TIP3    H277154   5.777   4.446   4.546  0.8508 -1.5150  0.4960
18555TIP3   OH277155   5.015   2.093  16.000 -0.2937 -0.3757 -0.1490
18555TIP3    H177156   4.997   2.067  16.090  0.1137 -1.5939 -0.4022
18555TIP3    H277157   5.037   2.186  16.005 -2.7386  0.2229  0.6719
18556TIP3   OH277158   2.805   6.033  15.022 -0.3992 -0.3763  0.6630
18556TIP3    H177159   2.844   5.989  15.098  1.8296 -1.2005 -0.8407
18556TIP3    H277160   2.802   5.965  14.954 -0.8374  0.7241 -0.4650
18557TIP3   OH277161   0.641   6.824  14.489  0.4213  0.3394 -0.5242
18557TIP3    H177162   0.555   6.811  14.448  0.2427  0.0228 -0.0429
18557TIP3    H277163   0.702   6.777  14.432  0.0939 -0.5956 -0.1087
18558TIP3   OH277164   4.775   3.165  12.463 -0.2943 -0.4387 -0.3075
18558TIP3    H177165   4.808   3.158  12.373 -1.3988 -1.2086 -0.6752
18558TIP3    H277166   4.780   3.258  12.484  0.9510 -0.3818 -0.7792
18559TIP3   OH277167   2.936   3.382   5.270  0.2188 -0.0544 -0.4374
18559TIP3    H177168   3.012   3.441   5.264  1.6868 -1.6111  1.5310
18559TIP3    H277169   2.871   3.432   5.319  0.4101  0.8766 -1.1088
18560TIP3   OH277170   0.703   2.531   2.622  0.0409 -0.4374 -0.2418
18560TIP3    H177171   0.632   2.524   2.558 -0.9985 -1.1596  0.9451
18560TIP3    H277172   0.696   2.451   2.675  1.7953 -0.5673 -0.1195
18561TIP3   OH277173   4.952   6.490   6.557 -0.1917  0.6461  0.5709
18561TIP3    H177174   5.002   6.555   6.508  0.1050 -0.3900 -0.5440
18561TIP3    H277175   5.017   6.444   6.610 -0.3029  0.8135  0.8539
18562TIP3   OH277176   4.997   1.874   6.858 -0.1795  0.1048  0.1275
18562TIP3    H177177   5.042   1.934   6.918 -0.5013  0.4685  0.0136
18562TIP3    H277178   5.066   1.843   6.799 -0.2464  1.4701 -0.7134
18563TIP3   OH277179   6.814   6.453  10.715  0.1701 -0.0789  0.3084
18563TIP3    H177180   6.764   6.412  10.785  0.9378  0.0714  0.9654
18563TIP3    H277181   6.880   6.505  10.761  0.9702 -0.3347 -0.5218
18564TIP3   OH277182   1.569   1.372   0.979 -0.3360 -0.0422 -0.1302
18564TIP3    H177183   1.527   1.304   0.927  1.0385 -0.0902 -1.2496
18564TIP3    H277184   1.653   1.334   1.005 -0.1427  0.7244  0.4001
18565TIP3   OH277185   4.145   5.953  11.375 -0.0718  0.2504  0.5580
18565TIP3    H177186   4.226   5.939  11.424 -0.7157  3.1104  2.7150
18565TIP3    H277187   4.174   5.988  11.291  0.9574  0.0545  0.8128
18566TIP3   OH277188   2.822   6.625   0.050 -0.3136 -0.5711 -0.2658
18566TIP3    H177189   2.845   6.560  -0.016  1.2690 -1.1223  0.7826
18566TIP3    H277190   2.873   6.703   0.027 -0.6539 -0.3732 -0.3586
18567TIP3   OH277191   0.987   5.524   2.829 -0.2784  0.3381 -0.0994
18567TIP3    H177192   1.048   5.561   2.893  0.2415 -0.7416  0.0503
18567TIP3    H277193   0.964   5.598   2.773 -0.6727  1.2868  1.2658
18568TIP3   OH277194   1.120   6.744  15.354 -0.1125 -0.2285 -0.1599
18568TIP3    H177195   1.098   6.822  15.303  1.0102  0.0406 -0.2549
18568TIP3    H277196   1.061   6.747  15.429  0.1105  0.8651 -0.0158
18569TIP3   OH277197   4.455   5.621   5.487  0.0738 -0.4825 -0.4462
18569TIP3    H177198   4.459   5.664   5.573  1.2285 -2.2018  0.4198
18569TIP3    H277199   4.394   5.547   5.500  2.3577 -2.4488 -0.2139
18570TIP3   OH277200   2.998   2.116   4.832  0.5429  0.1758  0.1960
18570TIP3    H177201   2.952   2.113   4.916  1.6837  0.1705  0.8289
18570TIP3    H277202   3.086   2.148   4.853  1.0047 -0.3134 -0.9149
18571TIP3   OH277203   0.779   5.177   0.386 -0.1341  0.0521 -0.0393
18571TIP3    H177204   0.807   5.266   0.407 -1.2208  0.3542  0.1619
18571TIP3    H277205   0.861   5.128   0.376  0.4578  0.6219  1.7555
18572TIP3   OH277206   4.102   1.829   4.546  0.5353  0.1162 -0.2686
18572TIP3    H177207   4.130   1.904   4.495  0.0199 -1.1322 -2.4975
18572TIP3    H277208   4.010   1.846   4.566  0.6118  0.3923 -0.1403
18573TIP3   OH277209   2.393   6.392  14.749  0.9671  0.5263 -0.1013
18573TIP3    H177210   2.444   6.449  14.691  1.4725 -0.5346 -0.7215
18573TIP3    H277211   2.443   6.311  14.754  0.7795  0.4596  1.5835
18574TIP3   OH277212   1.926   5.661   0.768  0.0694  0.1032  0.5212
18574TIP3    H177213   1.955   5.594   0.706  0.7871 -0.4726  1.4477
18574TIP3    H277214   1.974   5.641   0.849  1.3195  2.5209  0.4547
18575TIP3   OH277215   1.018   6.046   2.789 -0.0036 -0.0523 -0.3385
18575TIP3    H177216   1.043   6.128   2.833  1.5885 -1.6889  2.0442
18575TIP3    H277217   1.033   6.064   2.696  1.9925  1.8400  0.2517
18576TIP3   OH277218   2.466   4.425  11.693  0.2417  0.2909 -0.4743
18576TIP3    H177219   2.483   4.380  11.776  0.6868  0.3864 -0.5142
18576TIP3    H277220   2.494   4.362  11.626  0.1851  0.3407 -0.5450
18577TIP3   OH277221   2.734   4.285  13.823  0.3949  0.3472  0.0275
18577TIP3    H177222   2.829   4.292  13.836  0.4762 -1.4775  0.7619
18577TIP3    H277223   2.709   4.209  13.876 -1.1713 -0.3752 -1.6697
18578TIP3   OH277224   4.758   2.844   5.568 -0.4697  0.4075 -0.3770
18578TIP3    H177225   4.812   2.841   5.489 -1.1907 -0.9975 -0.8268
18578TIP3    H277226   4.822   2.847   5.639  0.2433 -1.1871 -0.9047
18579TIP3   OH277227   0.312   4.842   2.174 -0.0033 -0.5913  0.1357
18579TIP3    H177228   0.315   4.778   2.244 -0.5882  0.2988  0.9916
18579TIP3    H277229   0.219   4.866   2.166  0.0754 -0.5313 -0.8127
18580TIP3   OH277230   1.582   5.229  13.312 -0.0937  0.1164  0.6126
18580TIP3    H177231   1.659   5.188  13.350 -0.9832 -0.2814  2.0649
18580TIP3    H277232   1.555   5.171  13.241  0.2134 -0.3844  0.9070
18581TIP3   OH277233   2.599   1.088   2.994  0.0247  0.0627  0.2062
18581TIP3    H177234   2.692   1.096   2.971 -0.2980  0.6066 -0.9613
18581TIP3    H277235   2.572   1.178   3.013 -0.4388  0.0064 -0.1858
18582TIP3   OH277236   3.547   3.527   4.703  0.0555 -0.5771  0.1300
18582TIP3    H177237   3.628   3.577   4.691 -1.0581  1.4463  0.4247
18582TIP3    H277238   3.478   3.587   4.673 -1.2867 -2.5932 -1.0466
18583TIP3   OH277239   5.168   5.031   6.206  0.8239 -0.0748 -0.1983
18583TIP3    H177240   5.228   5.014   6.279  0.8977 -1.2451 -0.5086
18583TIP3    H277241   5.107   4.957   6.208 -0.8341  1.2431  0.2954
18584TIP3   OH277242   2.621   3.944   2.781 -0.5915  0.5998  0.6933
18584TIP3    H177243   2.584   3.858   2.759 -1.6585  0.9347  1.1170
18584TIP3    H277244   2.714   3.927   2.794 -0.7164 -0.4158  0.3478
18585TIP3   OH277245   6.706   0.247   5.393  0.1644 -0.3069  0.3039
18585TIP3    H177246   6.656   0.252   5.312  2.4664  1.8125 -1.1467
18585TIP3    H277247   6.766   0.174   5.380  1.1281  0.5619 -0.3695
18586TIP3   OH277248   1.726   4.726  16.164 -0.1125  0.2926 -0.1519
18586TIP3    H177249   1.747   4.791  16.232 -1.5250  3.2047 -2.2412
18586TIP3    H277250   1.664   4.667  16.206 -1.9321  2.7521  0.9017
18587TIP3   OH277251   0.314   2.354   4.692 -0.5896 -0.4938  0.1454
18587TIP3    H177252   0.308   2.361   4.597 -0.9602 -0.2920  0.1833
18587TIP3    H277253   0.264   2.428   4.725  0.3958  0.0403  0.4946
18588TIP3   OH277254   3.834   1.854   5.532 -0.4931  0.2596  0.0940
18588TIP3    H177255   3.902   1.814   5.586 -0.9543  1.0039  1.2610
18588TIP3    H277256   3.868   1.847   5.443 -0.4859 -2.5642  0.2227
18589TIP3   OH277257   2.921   5.267   0.508  0.2512  0.2544  0.0433
18589TIP3    H177258   2.876   5.341   0.468 -0.4381  0.2512  0.7839
18589TIP3    H277259   3.011   5.274   0.477  0.0625  1.0654 -0.3496
18590TIP3   OH277260   0.713   0.621   1.278  0.4281 -0.3762  0.2280
18590TIP3    H177261   0.651   0.620   1.206 -1.6623 -1.4675  1.9260
18590TIP3    H277262   0.779   0.556   1.254  1.1892  1.0611 -1.7733
18591TIP3   OH277263   3.621   2.469  17.026 -0.0390 -0.9307  0.1342
18591TIP3    H177264   3.683   2.445  17.094 -1.5176 -1.5215  1.3441
18591TIP3    H277265   3.544   2.502  17.073 -0.1767  1.0709 -1.3352
18592TIP3   OH277266   3.717   1.609  15.333 -0.0750  0.2408 -0.3358
18592TIP3    H177267   3.781   1.660  15.382 -0.9908 -0.0748  1.2465
18592TIP3    H277268   3.769   1.543  15.287  0.8160  0.5058  0.2689
18593TIP3   OH277269   6.465   1.259  14.757  0.7809 -0.0943  0.2638
18593TIP3    H177270   6.390   1.269  14.815 -1.1204 -1.2419 -1.8114
18593TIP3    H277271   6.464   1.339  14.703  1.3734  0.1129  0.5518
18594TIP3   OH277272   0.461   2.267  12.921  0.3665  0.4788 -0.2293
18594TIP3    H177273   0.425   2.325  12.854 -1.3599 -0.0234  0.2017
18594TIP3    H277274   0.470   2.323  12.999  0.1067  0.5144 -0.2236
18595TIP3   OH277275   2.843   2.607  11.611  0.0286  0.1143 -0.0308
18595TIP3    H177276   2.758   2.603  11.567  1.2630 -0.6901 -2.5275
18595TIP3    H277277   2.874   2.516  11.611  1.8949  0.6874 -1.3908
18596TIP3   OH277278   0.383   5.720   1.286 -0.5603  0.3343 -0.6922
18596TIP3    H177279   0.347   5.645   1.239  1.1846 -1.6225  0.9383
18596TIP3    H277280   0.373   5.699   1.378  0.5043  1.8489 -0.1866
18597TIP3   OH277281   2.686   4.665  12.749 -0.6005 -0.1977  0.0137
18597TIP3    H177282   2.698   4.759  12.739 -0.2280 -0.0180  1.7796
18597TIP3    H277283   2.720   4.646  12.836 -0.1873 -2.0663 -0.5150
18598TIP3   OH277284   6.527   0.813   2.603 -0.4320  0.0822  0.3164
18598TIP3    H177285   6.521   0.718   2.601 -0.2156  0.0512  0.9646
18598TIP3    H277286   6.572   0.836   2.521  3.3119 -0.6960  1.9153
18599TIP3   OH277287   6.283   0.803  14.199  0.3842 -0.7382 -0.5441
18599TIP3    H177288   6.283   0.778  14.107  1.2635 -0.6930 -0.5664
18599TIP3    H277289   6.265   0.897  14.198 -2.9394 -1.2493 -0.4603
18600TIP3   OH277290   2.210   6.526  17.132  0.4774  0.3421 -0.5737
18600TIP3    H177291   2.283   6.546  17.189 -0.1198  0.9924 -0.0116
18600TIP3    H277292   2.209   6.431  17.125  0.2909  0.2270  0.8630
18601TIP3   OH277293   2.550   2.341  14.916 -0.0190  0.0272 -0.1112
18601TIP3    H177294   2.619   2.276  14.927 -0.7976 -0.5631  1.8045
18601TIP3    H277295   2.508   2.318  14.834 -0.3488 -2.0191  0.5681
18602TIP3   OH277296   3.100   1.379  12.691  0.0310 -0.6824  0.2220
18602TIP3    H177297   3.106   1.407  12.599  0.0511 -2.2052 -0.2663
18602TIP3    H277298   3.188   1.348  12.713  0.0857 -0.1102  0.8411
18603TIP3   OH277299   5.928   0.527   3.631  0.4794 -0.0571  0.2196
18603TIP3    H177300   5.879   0.500   3.553  3.2307 -2.3615 -0.8853
18603TIP3    H277301   5.868   0.510   3.703 -1.8153  1.2207 -1.2535
18604TIP3   OH277302   4.581   0.027   1.322  0.6845  0.2628  0.1131
18604TIP3    H177303   4.500   0.003   1.367  0.6335 -0.2672 -0.2609
18604TIP3    H277304   4.639  -0.048   1.335  1.6287  1.1966  1.5764
18605TIP3   OH277305   4.219   1.486  13.443  0.1878  0.7263 -0.2803
18605TIP3    H177306   4.290   1.440  13.399  0.5449 -0.4328  1.4194
18605TIP3    H277307   4.215   1.571  13.399  1.9281  0.4324 -1.0910
18606TIP3   OH277308   3.395   5.178  13.011 -0.3334  0.3407 -0.1018
18606TIP3    H177309   3.401   5.257  12.957 -0.6187 -0.1909 -0.9295
18606TIP3    H277310   3.470   5.126  12.985 -2.3472 -1.5457 -2.7086
18607TIP3   OH277311   2.604   5.264  14.710  0.1990  0.1552 -0.1110
18607TIP3    H177312   2.523   5.221  14.681 -0.3475  1.0615  0.0248
18607TIP3    H277313   2.636   5.309  14.631 -0.8135  1.8917  0.4105
18608TIP3   OH277314   1.245   3.030   0.275 -0.3876  0.1541  0.0664
18608TIP3    H177315   1.209   3.065   0.357  0.6745 -0.3747  0.7838
18608TIP3    H277316   1.314   2.970   0.303 -2.0691 -2.4809 -1.1229
18609TIP3   OH277317   0.263   0.886  16.129  0.0033  0.1852 -0.6545
18609TIP3    H177318   0.213   0.837  16.064 -0.0029  0.7187 -1.0539
18609TIP3    H277319   0.291   0.965  16.084  1.5951 -0.3091 -0.5783
18610TIP3   OH277320   2.401   1.963  16.932 -0.2602 -0.1337 -0.4907
18610TIP3    H177321   2.417   1.982  17.025  0.0446 -0.0461 -0.5592
18610TIP3    H277322   2.397   1.867  16.927 -2.7824 -0.1083  0.0179
18611TIP3   OH277323   0.914   3.199  17.256  0.0645 -0.2761 -0.3532
18611TIP3    H177324   0.917   3.121  17.311  1.1753 -0.0503 -0.0703
18611TIP3    H277325   1.006   3.220  17.240 -0.2162  1.1447 -0.1956
18612TIP3   OH277326   4.700   5.985   1.912 -0.6413  0.1728 -0.0312
18612TIP3    H177327   4.795   6.000   1.907 -1.0505  2.7760 -1.5817
18612TIP3    H277328   4.664   6.070   1.936 -2.5980 -0.9242  1.1385
18613TIP3   OH277329   5.165   5.796   1.804 -0.2958  0.1092  0.3451
18613TIP3    H177330   5.148   5.770   1.895  0.3128 -0.5422  0.2779
18613TIP3    H277331   5.224   5.872   1.812  0.3173 -0.3760  0.4860
18614TIP3   OH277332   0.869   4.396  14.925 -0.0875  0.2708 -0.1586
18614TIP3    H177333   0.812   4.394  15.001 -2.1669 -1.1799 -1.6255
18614TIP3    H277334   0.816   4.358  14.855  2.4961 -0.5810 -1.7898
18615TIP3   OH277335   2.129   2.231   0.473 -0.1102  0.3975 -0.0381
18615TIP3    H177336   2.053   2.288   0.462 -0.3573  0.0368 -0.2132
18615TIP3    H277337   2.107   2.152   0.425  0.9025  0.7766 -1.1775
18616TIP3   OH277338   5.510   4.143   6.176 -0.4594 -0.3237 -0.4177
18616TIP3    H177339   5.436   4.182   6.128  0.3527 -0.3807 -1.7836
18616TIP3    H277340   5.577   4.129   6.109  0.9636  0.1138  0.8590
18617TIP3   OH277341   2.648   6.495  14.024  0.4661  0.0617  0.1013
18617TIP3    H177342   2.568   6.450  13.996  0.1968  1.1602 -0.9727
18617TIP3    H277343   2.660   6.565  13.959  3.1399 -0.9915 -0.6487
18618TIP3   OH277344   1.195   4.729  13.706  0.3416 -0.0270  0.2300
18618TIP3    H177345   1.170   4.667  13.637  2.8540 -2.4192  1.2793
18618TIP3    H277346   1.261   4.784  13.665  1.1390 -0.8264  0.4048
18619TIP3   OH277347   4.129   4.642  11.046 -0.0800  0.1238 -0.1445
18619TIP3    H177348   4.074   4.637  10.967 -0.2767  2.3486 -0.2114
18619TIP3    H277349   4.213   4.675  11.015  0.1795  0.0158  0.4365
18620TIP3   OH277350   2.053   6.461  14.129  0.0315  0.0070  0.2003
18620TIP3    H177351   2.123   6.396  14.125  0.7277  0.6944  0.8172
18620TIP3    H277352   1.976   6.412  14.156  0.6063 -0.5275  0.9204
18621TIP3   OH277353   0.547   1.831  16.503 -0.2445 -0.4766  0.5955
18621TIP3    H177354   0.505   1.796  16.581  2.7543 -1.9510  1.7042
18621TIP3    H277355   0.547   1.926  16.517 -4.0522 -0.2185 -0.0782
18622TIP3   OH277356   2.262   0.297   5.520  0.7394 -0.0457 -0.1960
18622TIP3    H177357   2.216   0.305   5.604 -1.2123 -0.2056 -1.2132
18622TIP3    H277358   2.267   0.203   5.505 -0.7466 -0.0026 -1.1816
18623TIP3   OH277359   4.357   1.592   6.378  0.7201 -0.6139 -0.3930
18623TIP3    H177360   4.307   1.664   6.340 -1.5719 -1.3496  0.9975
18623TIP3    H277361   4.326   1.514   6.331 -2.5765 -1.6207  2.9573
18624TIP3   OH277362   5.342   1.592  14.129  0.2328 -0.4986 -0.1676
18624TIP3    H177363   5.337   1.687  14.138 -0.9695 -0.6367  0.8009
18624TIP3    H277364   5.400   1.564  14.200  0.8879 -0.4644 -0.6822
18625TIP3   OH277365   6.008   0.672  11.024  0.8598 -0.3336  0.0473
18625TIP3    H177366   6.044   0.745  10.974 -0.3106  0.2594  0.0151
18625TIP3    H277367   5.992   0.603  10.960  2.0676 -0.6671  0.0936
18626TIP3   OH277368   2.876   5.801   1.159 -0.3612 -0.3701  0.5129
18626TIP3    H177369   2.866   5.830   1.250  1.0508 -0.0222  0.5760
18626TIP3    H277370   2.875   5.706   1.164 -1.1078 -0.3584  0.7821
18627TIP3   OH277371   3.402   0.300   3.153  0.1212  0.0710 -0.0231
18627TIP3    H177372   3.495   0.306   3.176  0.2941 -0.5877 -0.5303
18627TIP3    H277373   3.392   0.361   3.079  0.2339 -0.1455 -0.2177
18628TIP3   OH277374   5.263   3.341  15.864 -0.1261  0.0844  0.4138
18628TIP3    H177375   5.305   3.420  15.830 -0.5116 -0.3196 -1.0800
18628TIP3    H277376   5.220   3.370  15.945  0.9660  1.0495  0.6732
18629TIP3   OH277377   1.274   5.096  15.229  0.0912  0.0846 -0.2309
18629TIP3    H177378   1.266   5.188  15.204 -2.7044 -0.7297 -2.9501
18629TIP3    H277379   1.211   5.085  15.300 -1.0327 -0.0813 -1.2278
18630TIP3   OH277380   6.387   5.177   5.323  0.3911 -0.2703  0.2714
18630TIP3    H177381   6.320   5.167   5.255  0.3424 -2.4911  0.5589
18630TIP3    H277382   6.338   5.175   5.405  0.6735 -0.2370  0.4407
18631TIP3   OH277383   6.711   4.935   4.282 -0.3437  0.1313  0.0679
18631TIP3    H177384   6.763   4.916   4.360  0.6969  0.1374 -0.6013
18631TIP3    H277385   6.769   4.912   4.209 -0.9268  1.0711 -0.7073
18632TIP3   OH277386   6.435   0.280  15.042 -0.1391 -0.0146  0.3934
18632TIP3    H177387   6.387   0.279  14.959  0.2358 -0.4245  0.1797
18632TIP3    H277388   6.379   0.230  15.102 -0.1392 -0.2089  0.2326
18633TIP3   OH277389   4.911   0.922  16.799 -0.5119 -1.1419  0.4656
18633TIP3    H177390   4.956   0.991  16.847  1.3038 -2.8093  1.2719
18633TIP3    H277391   4.822   0.956  16.785 -0.0345  0.8176  1.8956
18634TIP3   OH277392   2.671   4.523   2.946 -0.6325  0.1998  0.7000
18634TIP3    H177393   2.706   4.475   2.871  0.3580  3.3276 -1.0254
18634TIP3    H277394   2.713   4.484   3.022  0.9345 -0.9444 -0.6931
18635TIP3   OH277395   4.732   2.502   1.457 -0.3942 -0.7248 -0.1536
18635TIP3    H177396   4.770   2.555   1.527  0.4362  1.4353 -2.0762
18635TIP3    H277397   4.657   2.458   1.497  0.6723 -0.4501  2.3031
18636TIP3   OH277398   5.707   5.382   2.867  0.3238  0.0139 -0.5597
18636TIP3    H177399   5.695   5.390   2.772  1.3869 -1.8277 -0.9031
18636TIP3    H277400   5.619   5.367   2.901  0.1558 -1.4585 -1.5571
18637TIP3   OH277401   5.753   3.365  14.937 -0.1803 -0.4178 -0.0455
18637TIP3    H177402   5.782   3.440  14.886  1.6884 -1.3008 -0.3325
18637TIP3    H277403   5.682   3.327  14.885  0.9546 -0.6648 -1.4766
18638TIP3   OH277404   4.594   4.211  16.220  0.1353  0.2792  1.0045
18638TIP3    H177405   4.511   4.259  16.216 -0.5055 -0.8642 -1.2480
18638TIP3    H277406   4.624   4.207  16.129  0.8942 -2.2685  1.2692
18639TIP3   OH277407   1.274   0.142   2.534 -0.2434 -0.4247  0.5629
18639TIP3    H177408   1.203   0.203   2.557  0.1103  0.4635 -0.6103
18639TIP3    H277409   1.348   0.170   2.588 -0.0182  0.3383 -0.1283
18640TIP3   OH277410   0.476   6.226   4.770  0.0068  0.2804  0.4030
18640TIP3    H177411   0.465   6.319   4.789  1.3572  0.5749 -0.1222
18640TIP3    H277412   0.538   6.196   4.837  3.5555  0.9605 -2.2936
18641TIP3   OH277413   4.823   6.163   1.432 -0.0139 -0.3170 -0.0074
18641TIP3    H177414   4.733   6.194   1.415  0.5738  1.6194  0.1208
18641TIP3    H277415   4.850   6.121   1.351 -0.2055  1.2740 -0.9278
18642TIP3   OH277416   6.433   4.985   2.289  0.4127 -0.0467 -0.2721
18642TIP3    H177417   6.452   4.924   2.218 -2.0963 -0.1633 -0.9478
18642TIP3    H277418   6.370   4.939   2.344 -1.2035  1.6936 -0.5474
18643TIP3   OH277419   4.549   1.199   5.980 -0.0441 -0.1724 -0.4094
18643TIP3    H177420   4.599   1.277   6.004 -2.2431  0.8941  1.0868
18643TIP3    H277421   4.497   1.180   6.058 -1.1576 -1.8542 -1.5031
18644TIP3   OH277422   6.463   6.012  16.108 -0.2551 -0.0834  0.1054
18644TIP3    H177423   6.514   6.031  16.029 -0.4824  0.0513 -0.0079
18644TIP3    H277424   6.372   6.027  16.082 -0.3016  0.3266  0.5026
18645TIP3   OH277425   2.973   3.124  14.758  0.6336 -0.2095 -0.5233
18645TIP3    H177426   2.914   3.158  14.690  0.4719  3.7131  1.3176
18645TIP3    H277427   2.919   3.122  14.837  1.9927 -0.1014  0.4315
18646TIP3   OH277428   6.382   4.615  12.406 -0.5626 -0.4467 -0.5674
18646TIP3    H177429   6.462   4.600  12.356  0.7342  1.7629  0.6670
18646TIP3    H277430   6.385   4.708  12.429 -3.1102 -0.4687  0.1973
18647TIP3   OH277431   4.175   2.729  14.138 -0.1108 -0.7381  0.1921
18647TIP3    H177432   4.118   2.801  14.164  3.3221  1.7240  1.6804
18647TIP3    H277433   4.212   2.757  14.054  0.8576 -0.9860  0.5233
18648TIP3   OH277434   6.538   4.278  11.446  0.4762 -0.5378 -0.1090
18648TIP3    H177435   6.520   4.204  11.502  3.2277 -0.5213  0.9790
18648TIP3    H277436   6.481   4.348  11.477  1.1522 -0.8650  1.9958
18649TIP3   OH277437   1.059   0.949   3.269  0.3716  0.5100 -0.6681
18649TIP3    H177438   0.974   0.986   3.247 -0.0438 -0.2294 -0.3637
18649TIP3    H277439   1.064   0.957   3.365  1.5087  2.3407 -0.8349
18650TIP3   OH277440   4.123   3.393  12.833  0.3643  0.0851  0.4840
18650TIP3    H177441   4.207   3.417  12.794 -0.8716  2.4351 -0.9485
18650TIP3    H277442   4.146   3.345  12.912  3.0166 -1.1826 -0.9301
18651TIP3   OH277443   1.438   2.144   5.686  0.5822  0.0523  0.6648
18651TIP3    H177444   1.411   2.166   5.597  0.7522  0.8188  0.7948
18651TIP3    H277445   1.505   2.209   5.708  0.6411 -0.2146  1.2977
18652TIP3   OH277446   4.163   0.896  12.264 -0.6359 -0.1790  0.7398
18652TIP3    H177447   4.170   0.807  12.230 -1.9798  0.0605 -0.2405
18652TIP3    H277448   4.174   0.886  12.359  0.8464 -1.1517  0.4959
18653TIP3   OH277449   1.205   0.119   5.442  0.0760 -0.0706 -0.1884
18653TIP3    H177450   1.193   0.109   5.348 -1.2488  1.5129 -0.2330
18653TIP3    H277451   1.279   0.178   5.452  1.3637 -1.6169 -0.1492
18654TIP3   OH277452   3.338   3.296  12.563  0.1623 -0.3458  0.2328
18654TIP3    H177453   3.403   3.350  12.518 -0.0056 -1.0286 -0.8920
18654TIP3    H277454   3.370   3.289  12.653 -0.0041  1.8848  0.5137
18655TIP3   OH277455   0.365   5.785  12.826  0.9180 -0.0361 -0.1654
18655TIP3    H177456   0.297   5.748  12.882  0.0756  2.5796  0.6964
18655TIP3    H277457   0.319   5.815  12.748  1.5421 -0.5753 -0.7545
18656TIP3   OH277458   6.624   5.769  13.488  0.2127 -0.7797  0.5632
18656TIP3    H177459   6.544   5.821  13.494  0.1914 -0.7274 -0.0687
18656TIP3    H277460   6.673   5.809  13.416  0.6226 -1.0591  0.6833
18657TIP3   OH277461   1.237   3.683  11.435  0.2256  0.0333  0.1569
18657TIP3    H177462   1.164   3.744  11.450 -0.2821 -0.2839 -0.9467
18657TIP3    H277463   1.281   3.717  11.357  0.7693 -0.2548  0.3312
18658TIP3   OH277464   4.614   0.368   5.543  0.3108 -0.6628  0.1855
18658TIP3    H177465   4.637   0.276   5.558 -0.4303 -0.4664  3.3405
18658TIP3    H277466   4.519   0.367   5.529  0.1994 -0.3656  0.8652
18659TIP3   OH277467   4.988   2.073   0.991  0.0863 -0.6745  0.2124
18659TIP3    H177468   4.910   2.019   0.998 -0.3156 -0.1483 -0.1794
18659TIP3    H277469   4.959   2.161   1.011  0.3470 -0.2925 -0.9845
18660TIP3   OH277470   2.203   0.819  15.712  0.3487  0.2022  0.0760
18660TIP3    H177471   2.172   0.730  15.695 -0.3704  0.3738  0.4484
18660TIP3    H277472   2.290   0.822  15.672  0.1740 -0.5120 -0.3794
18661TIP3   OH277473   4.429   6.066   1.523  0.3871  0.5207  0.5959
18661TIP3    H177474   4.460   6.099   1.607 -0.7411 -0.4283  1.4122
18661TIP3    H277475   4.496   6.004   1.495  0.7198  0.7709  0.8336
18662TIP3   OH277476   3.970   1.557  16.677  0.4256  0.2864  0.3651
18662TIP3    H177477   3.875   1.559  16.694  0.7635 -0.1907  2.5970
18662TIP3    H277478   3.987   1.637  16.627 -0.9214  1.2433  1.3608
18663TIP3   OH277479   1.954   1.159   6.930  0.0950  0.4378 -0.0985
18663TIP3    H177480   1.866   1.130   6.955  0.7425 -1.5591  0.0991
18663TIP3    H277481   1.943   1.197   6.843 -0.8944 -0.3988 -0.3667
18664TIP3   OH277482   3.502   6.571  11.718 -0.5538 -0.0107 -0.7388
18664TIP3    H177483   3.483   6.636  11.651 -0.5651 -0.8144 -1.5323
18664TIP3    H277484   3.530   6.622  11.794  0.1493  0.8913 -1.5731
18665TIP3   OH277485   3.483   0.569  14.634  0.8900 -0.2110 -0.5655
18665TIP3    H177486   3.445   0.509  14.698  2.4815  0.0801  0.7230
18665TIP3    H277487   3.408   0.610  14.591 -0.2900  0.6654  2.1341
18666TIP3   OH277488   6.256   3.335  14.993 -0.2621 -0.4891  0.3511
18666TIP3    H177489   6.327   3.304  14.936 -0.1434  1.8422 -0.8822
18666TIP3    H277490   6.191   3.265  14.989 -0.7718  0.0037 -3.6719
18667TIP3   OH277491   2.006   5.720   3.361  0.0365 -0.5686  0.4095
18667TIP3    H177492   2.096   5.704   3.389 -0.0723  0.0521  1.1544
18667TIP3    H277493   2.001   5.682   3.274  1.2865  0.2159 -0.0292
18668TIP3   OH277494   4.447   1.441   1.712  0.9171 -0.0016  0.4374
18668TIP3    H177495   4.483   1.433   1.624 -0.6701 -0.3519 -0.2067
18668TIP3    H277496   4.488   1.369   1.761  3.1087  1.2078  0.5007
18669TIP3   OH277497   5.847   0.178  14.518  0.2877  0.1834 -0.7526
18669TIP3    H177498   5.910   0.169  14.590  0.0482 -1.0373 -0.6715
18669TIP3    H277499   5.808   0.264  14.531 -0.2334 -0.2676  0.9966
18670TIP3   OH277500   4.981   4.438   2.854 -0.0951 -0.0310 -0.2605
18670TIP3    H177501   4.987   4.529   2.826  0.1074 -0.0749 -0.3646
18670TIP3    H277502   4.935   4.441   2.938 -0.5628  0.1159 -0.5263
18671TIP3   OH277503   4.311   4.536  15.717  0.1775  0.5134  0.4047
18671TIP3    H177504   4.317   4.454  15.667  1.9004  0.4888  0.5839
18671TIP3    H277505   4.225   4.571  15.695 -0.2200 -0.8797 -0.4106
18672TIP3   OH277506   1.532   4.669   3.634 -0.1291  0.2553  0.2017
18672TIP3    H177507   1.544   4.574   3.628  1.7421  0.3960  1.0335
18672TIP3    H277508   1.453   4.680   3.686  0.3882 -0.8797  1.2812
18673TIP3   OH277509   6.764   3.657   3.058  0.7989  0.5027  0.0008
18673TIP3    H177510   6.827   3.648   2.986  0.3545 -0.9654 -0.2453
18673TIP3    H277511   6.687   3.607   3.029  1.4369 -2.1265  2.3963
18674TIP3   OH277512   0.637   0.094   5.316  0.0214 -0.4258  0.2951
18674TIP3    H177513   0.667   0.121   5.403 -1.8069  0.9427  0.5514
18674TIP3    H277514   0.558   0.042   5.332 -0.3393 -0.1594 -0.5367
18675TIP3   OH277515   4.743   0.341   5.923 -0.2812  0.1812  0.7420
18675TIP3    H177516   4.761   0.434   5.911  0.4402 -0.0610 -0.2237
18675TIP3    H277517   4.767   0.323   6.014 -0.0887  0.8558  0.8297
18676TIP3   OH277518   3.073   1.119   1.163  0.6729 -0.2382  0.4420
18676TIP3    H177519   2.996   1.064   1.177  1.0479 -0.5293  1.4955
18676TIP3    H277520   3.038   1.206   1.146  0.1137 -0.3787  0.8470
18677TIP3   OH277521   4.976   6.631   4.027 -0.1284  0.1708 -0.1981
18677TIP3    H177522   5.037   6.674   4.087  0.3630  1.3817 -1.5069
18677TIP3    H277523   4.943   6.556   4.076  0.0289  1.2721  1.6868
18678TIP3   OH277524   3.940   1.550  11.318  0.4682 -0.6401  0.1211
18678TIP3    H177525   3.984   1.590  11.243 -0.1927 -0.0423  0.0440
18678TIP3    H277526   3.942   1.617  11.386  1.4862 -1.3455  0.8190
18679TIP3   OH277527   2.626   0.674  14.604  0.5714  0.3892  0.1389
18679TIP3    H177528   2.671   0.692  14.522  1.0930 -1.6574 -0.0729
18679TIP3    H277529   2.558   0.741  14.609  0.5068  0.5471 -1.9642
18680TIP3   OH277530   6.559   3.002   3.772 -0.0965  0.2392  0.3465
18680TIP3    H177531   6.608   3.004   3.690 -0.4244 -0.8730  0.1061
18680TIP3    H277532   6.470   2.975   3.747 -0.4308  0.7426  0.9574
18681TIP3   OH277533   3.753   3.853  15.017  0.1031 -0.5369 -0.7809
18681TIP3    H177534   3.672   3.899  14.995  0.2209 -0.1656 -0.4552
18681TIP3    H277535   3.822   3.911  14.985  0.2516 -0.5294 -0.4450
18682TIP3   OH277536   6.523   0.057  13.286  0.1506 -0.7899 -0.4224
18682TIP3    H177537   6.617   0.039  13.279  0.2746 -0.4693  0.3688
18682TIP3    H277538   6.512   0.142  13.243  0.1804 -0.9483 -0.7452
18683TIP3   OH277539   2.046   0.892   1.426  1.0434  0.6759  0.0679
18683TIP3    H177540   2.102   0.832   1.378 -1.3193  0.0556 -2.1374
18683TIP3    H277541   1.970   0.906   1.369 -1.5308  0.7059  3.1996
18684TIP3   OH277542   6.211   2.926   0.437 -0.2039  0.0266  0.2475
18684TIP3    H177543   6.241   2.884   0.517 -1.5771 -0.9341  0.2913
18684TIP3    H277544   6.124   2.890   0.421  0.0179  0.1890 -1.6803
18685TIP3   OH277545   1.568   0.723   2.108 -0.4142  0.4949 -0.2120
18685TIP3    H177546   1.598   0.777   2.034  0.9469  0.4521  0.2741
18685TIP3    H277547   1.533   0.786   2.171 -3.1662  0.4136 -1.5321
18686TIP3   OH277548   4.059   1.387  12.124 -0.1937 -0.0685 -0.2413
18686TIP3    H177549   4.030   1.463  12.075  1.7374  1.5636  0.9836
18686TIP3    H277550   4.091   1.325  12.058 -1.6593  0.2099 -1.2363
18687TIP3   OH277551   6.084   6.572   0.674 -0.1881 -0.2076 -0.4920
18687TIP3    H177552   6.086   6.668   0.670  2.9284 -0.1822 -1.6013
18687TIP3    H277553   6.170   6.548   0.710 -1.6735 -2.6063  1.7913
18688TIP3   OH277554   5.799   6.686  17.025  0.0594  0.0686  0.5303
18688TIP3    H177555   5.787   6.687  16.930 -2.7112 -0.3504  0.7795
18688TIP3    H277556   5.889   6.657  17.037  0.9872  1.5615 -1.9638
18689TIP3   OH277557   2.301   5.690  13.135  0.2366 -0.5171 -0.1201
18689TIP3    H177558   2.229   5.733  13.180 -1.7557 -1.8262 -1.8856
18689TIP3    H277559   2.327   5.619  13.194 -0.5352 -0.5616  0.1787
18690TIP3   OH277560   6.679   5.768   0.649 -0.2468 -0.1288 -0.0973
18690TIP3    H177561   6.592   5.797   0.621  0.4424  1.4071 -0.7700
18690TIP3    H277562   6.694   5.814   0.731 -0.0710 -0.4055  0.0265
18691TIP3   OH277563   5.500   1.780  12.285  0.6893 -0.3354  0.0273
18691TIP3    H177564   5.486   1.766  12.191  2.6323  2.0722 -0.7242
18691TIP3    H277565   5.427   1.836  12.311  0.1670 -0.9733 -0.0393
18692TIP3   OH277566   4.707   1.586   0.046  0.2797  0.3275 -1.0441
18692TIP3    H177567   4.668   1.502   0.021 -0.4966  0.0411  0.8927
18692TIP3    H277568   4.635   1.634   0.087  1.4962  0.4976  1.0574
18693TIP3   OH277569   5.048   3.698   4.719 -0.0806 -0.1367 -0.7855
18693TIP3    H177570   5.025   3.713   4.810 -0.7714 -0.5087 -0.8854
18693TIP3    H277571   5.086   3.780   4.689  0.3039 -0.0674 -0.1211
18694TIP3   OH277572   4.100   6.086  13.796  0.6359  0.1665 -0.2773
18694TIP3    H177573   4.138   6.010  13.840 -1.4227  0.1256  1.6164
18694TIP3    H277574   4.087   6.058  13.706  0.2603 -1.6003  0.2937
18695TIP3   OH277575   3.620   5.053  11.585 -0.2287 -0.2657  0.0584
18695TIP3    H177576   3.553   5.103  11.631  1.4944  0.2412  2.2174
18695TIP3    H277577   3.604   5.071  11.492 -1.2825  2.1988  0.6399
18696TIP3   OH277578   6.686   1.292  11.530  0.3160  0.1173 -0.1396
18696TIP3    H177579   6.774   1.259  11.544  0.2046 -0.7055 -1.2877
18696TIP3    H277580   6.657   1.251  11.448 -1.1877  0.2489  0.2975
18697TIP3   OH277581   1.147   3.700  14.998 -0.4453  0.0712  0.4462
18697TIP3    H177582   1.223   3.757  15.006  0.4986 -0.8986 -1.0191
18697TIP3    H277583   1.082   3.752  14.952 -0.1190  0.4286  0.3885
18698TIP3   OH277584   1.246   4.872  13.320 -0.0842 -0.5074  0.2046
18698TIP3    H177585   1.154   4.858  13.299 -0.0220 -1.3040  0.4335
18698TIP3    H277586   1.289   4.886  13.236  0.0180 -2.7595 -0.1684
18699TIP3   OH277587   1.171   2.965  11.231 -0.3160  0.0027  0.2513
18699TIP3    H177588   1.214   3.038  11.187 -1.3090  0.9261  0.7541
18699TIP3    H277589   1.078   2.990  11.233 -0.3967 -0.2792  2.3049
18700TIP3   OH277590   0.612   6.278   4.050 -0.2816  0.3737 -0.2635
18700TIP3    H177591   0.612   6.364   4.094  0.0305  0.5538 -0.6094
18700TIP3    H277592   0.585   6.297   3.961 -0.6118  0.0491 -0.2306
18701TIP3   OH277593   1.115   1.823  12.924  0.1626 -0.1430 -0.1287
18701TIP3    H177594   1.020   1.826  12.913  0.2277 -0.8455 -1.0523
18701TIP3    H277595   1.149   1.830  12.835  0.8739 -3.0960 -0.1899
18702TIP3   OH277596   0.715   6.294   3.299  0.5813  0.3753 -0.8513
18702TIP3    H177597   0.707   6.258   3.210  0.4363 -1.8104 -0.0154
18702TIP3    H277598   0.642   6.356   3.306 -0.3400 -0.5513 -1.7733
18703TIP3   OH277599   5.270   5.644  14.588 -0.0868  0.4298  0.1204
18703TIP3    H177600   5.267   5.697  14.668 -0.1110  0.3426  0.1768
18703TIP3    H277601   5.291   5.556  14.618  2.7878  0.9092 -0.2127
18704TIP3   OH277602   6.690   1.783   6.409  0.3134 -0.2381 -0.5186
18704TIP3    H177603   6.634   1.838   6.464  0.7839 -0.3756  0.1086
18704TIP3    H277604   6.637   1.705   6.390 -0.1933  0.2334 -1.0475
18705TIP3   OH277605   1.775   2.487   5.968  0.0390  0.1038 -0.1129
18705TIP3    H177606   1.783   2.460   5.876  0.1709 -0.9494  0.1951
18705TIP3    H277607   1.758   2.581   5.964  0.1258  0.0851 -1.2148
18706TIP3   OH277608   5.965   6.767   5.699  0.7809 -0.3372 -0.4218
18706TIP3    H177609   5.899   6.801   5.639  0.4515 -1.4068 -0.6727
18706TIP3    H277610   5.979   6.838   5.762  0.3053  0.3598 -1.0886
18707TIP3   OH277611   6.340   4.063  15.701  0.1668 -0.5408  0.3026
18707TIP3    H177612   6.326   3.982  15.750  1.8810  0.1944  2.1455
18707TIP3    H277613   6.393   4.118  15.759  1.7219  0.6890 -2.0998
18708TIP3   OH277614   5.102   6.306  11.812  0.1543  0.2471  0.3269
18708TIP3    H177615   5.084   6.214  11.795  1.7646 -0.1152  0.3662
18708TIP3    H277616   5.114   6.345  11.725  0.8858  0.0802  0.3424
18709TIP3   OH277617   2.071   0.592  16.791 -0.1761  0.1216 -0.3898
18709TIP3    H177618   2.111   0.537  16.859 -0.4382 -1.5499 -1.5421
18709TIP3    H277619   2.145   0.619  16.736 -0.3506 -1.2719 -1.3345
18710TIP3   OH277620   6.453   4.998   0.705  0.3759 -0.3381  0.7845
18710TIP3    H177621   6.440   4.909   0.735 -0.4869 -0.0698  1.2413
18710TIP3    H277622   6.491   5.044   0.780 -1.5484  0.2702  1.4605
18711TIP3   OH277623   0.257   6.230  17.164 -0.0780 -0.2582  0.2136
18711TIP3    H177624   0.284   6.321  17.171 -0.0665 -0.0628 -1.8017
18711TIP3    H277625   0.179   6.231  17.109 -0.0655 -1.4667  0.1289
18712TIP3   OH277626   4.970   5.757  14.697  0.6885 -0.2719 -0.0707
18712TIP3    H177627   5.034   5.754  14.767 -1.3642 -0.8051  1.8926
18712TIP3    H277628   4.975   5.670  14.656  0.0443 -0.9497  1.2321
18713TIP3   OH277629   5.582   3.883  11.638 -0.0932 -0.1925 -0.0116
18713TIP3    H177630   5.611   3.858  11.726  1.6856 -2.2300 -1.0962
18713TIP3    H277631   5.601   3.977  11.632  1.3801 -0.3757  1.1948
18714TIP3   OH277632   2.368   3.635   0.917  0.1878  0.4587  0.5006
18714TIP3    H177633   2.452   3.601   0.884 -0.4598  0.3613 -1.1651
18714TIP3    H277634   2.388   3.723   0.947  1.0465  0.1464  0.8726
18715TIP3   OH277635   5.109   1.775  13.833  0.5596 -0.4652 -0.1837
18715TIP3    H177636   5.203   1.788  13.826  0.6227 -0.3721  0.6911
18715TIP3    H277637   5.073   1.809  13.751  1.0955  1.4032  0.3082
18716TIP3   OH277638   2.440   2.374   4.681 -0.0534  0.1594  0.3599
18716TIP3    H177639   2.511   2.424   4.721  1.0422  0.2870 -1.5778
18716TIP3    H277640   2.375   2.440   4.656 -0.7205  0.0817  1.8084
18717TIP3   OH277641   4.940   6.326  15.248  0.3343 -0.5600  0.4271
18717TIP3    H177642   4.961   6.233  15.251  1.8751 -0.2681  0.0359
18717TIP3    H277643   4.986   6.358  15.171 -0.6431  0.4255  0.2310
18718TIP3   OH277644   4.296   1.049  15.286  0.5375 -0.1113 -0.4088
18718TIP3    H177645   4.295   1.066  15.191  1.1175 -0.1300 -0.4193
18718TIP3    H277646   4.304   1.136  15.325  1.4617 -0.1811 -0.4127
18719TIP3   OH277647   4.841   4.776  12.238 -0.2635  0.2009 -0.2755
18719TIP3    H177648   4.869   4.863  12.265  0.1782 -0.2766  0.8312
18719TIP3    H277649   4.801   4.738  12.316  0.8548 -1.1279 -0.3200
18720TIP3   OH277650   1.878   0.782   3.230  0.3710 -0.2764 -0.3393
18720TIP3    H177651   1.782   0.777   3.225  0.3217  0.3160 -0.0839
18720TIP3    H277652   1.906   0.780   3.138  0.0662  0.2495 -0.4533
18721TIP3   OH277653   2.257   0.973   6.092 -0.0910 -0.3973 -0.2020
18721TIP3    H177654   2.236   0.899   6.148  1.0017  0.3766  1.3170
18721TIP3    H277655   2.350   0.963   6.072 -0.0519  0.2693 -0.3982
18722TIP3   OH277656   0.992   5.734  14.410  0.5575  0.2385 -0.5029
18722TIP3    H177657   1.056   5.764  14.345  1.6075  0.1244  0.4475
18722TIP3    H277658   0.922   5.799  14.407 -0.1130 -0.4770 -2.7013
18723TIP3   OH277659   4.082   5.186   0.550 -0.3343 -0.0744 -0.0749
18723TIP3    H177660   3.987   5.170   0.551 -0.7443  1.5415  3.3244
18723TIP3    H277661   4.089   5.281   0.562  1.7124 -0.2424  0.3387
18724TIP3   OH277662   0.013   3.812  17.052  0.3572  0.0878 -0.0949
18724TIP3    H177663  -0.017   3.892  17.007 -0.4959  1.3459  2.4608
18724TIP3    H277664  -0.049   3.802  17.124  1.5832 -1.8522  0.7558
18725TIP3   OH277665   4.405   3.747  12.787 -0.2154 -0.4550  0.4692
18725TIP3    H177666   4.424   3.799  12.865 -0.7208 -0.0118  0.3020
18725TIP3    H277667   4.383   3.811  12.720  1.0553 -0.7706 -0.2986
18726TIP3   OH277668   2.122   0.043  15.195  0.6546 -0.5173  0.1426
18726TIP3    H177669   2.163   0.047  15.281  0.7693 -1.7258  0.1622
18726TIP3    H277670   2.178   0.098  15.139  0.3586  0.5873  0.9032
18727TIP3   OH277671   0.707   4.975   0.080 -0.1177  0.8922 -0.4087
18727TIP3    H177672   0.666   5.042   0.134 -2.3303  0.2420 -1.1801
18727TIP3    H277673   0.686   5.000  -0.010  0.1784 -0.1251 -0.7718
18728TIP3   OH277674   4.926   0.088  15.776  0.1204 -0.1732 -0.7776
18728TIP3    H177675   4.860   0.022  15.755  0.7602 -1.6550  1.4962
18728TIP3    H277676   4.877   0.160  15.816 -0.1942 -1.2365  0.8417
18729TIP3   OH277677   5.403   0.078  13.973  0.0481 -0.3025  0.2387
18729TIP3    H177678   5.366  -0.005  14.004  2.2364 -1.8061 -0.9661
18729TIP3    H277679   5.350   0.100  13.896  0.2427 -1.2899 -0.1961
18730TIP3   OH277680   4.211   1.543   0.531  0.1874  0.2087  0.1955
18730TIP3    H177681   4.210   1.482   0.457  1.7377 -0.3362  0.5984
18730TIP3    H277682   4.286   1.517   0.584 -1.2674  0.1389  2.3707
18731TIP3   OH277683   6.350   4.419  14.225 -0.1021  0.1466 -0.8846
18731TIP3    H177684   6.277   4.468  14.264  0.0926 -1.3855  1.5788
18731TIP3    H277685   6.309   4.365  14.158 -0.9603  0.5428 -0.6982
18732TIP3   OH277686   3.662   6.353   2.172  0.0991 -0.5281 -0.1795
18732TIP3    H177687   3.733   6.413   2.153 -1.3256  1.9698  1.7595
18732TIP3    H277688   3.686   6.312   2.255 -0.7973  0.5453  0.6344
18733TIP3   OH277689   2.243   1.799   3.741  0.2378  0.8461  0.2003
18733TIP3    H177690   2.149   1.796   3.725  0.6124 -2.1724 -2.3962
18733TIP3    H277691   2.275   1.866   3.680  0.1669 -1.4488 -2.5527
18734TIP3   OH277692   5.464   4.721  11.696  0.4286  0.1444 -0.2603
18734TIP3    H177693   5.536   4.768  11.739  0.1597 -0.3158  0.7327
18734TIP3    H277694   5.427   4.666  11.765 -0.8732  0.3635 -0.7511
18735TIP3   OH277695   2.763   0.414  15.620  0.2951  0.6585  0.2841
18735TIP3    H177696   2.831   0.481  15.611  1.2437 -0.3267  0.0587
18735TIP3    H277697   2.721   0.435  15.704  1.3121  0.8845  0.7509
18736TIP3   OH277698   1.684   3.891  14.904 -0.2315 -0.4231  0.2610
18736TIP3    H177699   1.756   3.892  14.842  1.5049  2.1051  2.1446
18736TIP3    H277700   1.716   3.837  14.977 -0.3876  0.3433  0.9106
18737TIP3   OH277701   1.164   1.772  11.795  0.3546  0.0164 -0.4239
18737TIP3    H177702   1.247   1.812  11.822  1.0432 -0.2977 -1.9740
18737TIP3    H277703   1.179   1.743  11.705 -1.2321 -0.6576 -0.5099
18738TIP3   OH277704   5.568   4.002   4.706  0.2599  0.2033 -0.2498
18738TIP3    H177705   5.494   4.062   4.698 -0.4141 -0.4955  0.6535
18738TIP3    H277706   5.582   3.971   4.616 -1.5606 -0.8540 -0.2186
18739TIP3   OH277707   3.437   6.623   0.051  0.3695 -0.2172 -0.0364
18739TIP3    H177708   3.498   6.697   0.046  2.7225 -2.0030  0.2540
18739TIP3    H277709   3.447   6.590   0.140 -1.0062 -0.6237 -0.0124
18740TIP3   OH277710   2.446   2.466   5.185 -0.1311 -0.1852 -0.4397
18740TIP3    H177711   2.524   2.410   5.190  0.0350  0.1407  1.3057
18740TIP3    H277712   2.442   2.492   5.093  1.2019 -1.0761 -0.7909
18741TIP3   OH277713   2.814   4.532   1.425 -0.0608  0.2971 -0.7365
18741TIP3    H177714   2.754   4.568   1.490 -0.8596 -0.8711 -0.7837
18741TIP3    H277715   2.874   4.604   1.404  0.1263  0.7506  1.1654
18742TIP3   OH277716   2.167   2.751   0.890 -0.4470  0.2241 -0.3721
18742TIP3    H177717   2.141   2.689   0.958 -2.9615  1.1630 -0.3568
18742TIP3    H277718   2.178   2.834   0.937 -0.0722  0.4225 -0.8041
18743TIP3   OH277719   6.169   5.139  13.308 -0.2369  0.2513  0.2028
18743TIP3    H177720   6.178   5.099  13.222  0.2311 -1.4848  0.9950
18743TIP3    H277721   6.164   5.064  13.368 -0.5787  1.4105  1.6746
18744TIP3   OH277722   6.145   2.439   5.073 -0.0755 -0.0528  0.2903
18744TIP3    H177723   6.207   2.375   5.109  0.0326 -0.4890 -0.6478
18744TIP3    H277724   6.084   2.455   5.145  0.1774 -0.8494  0.6998
18745TIP3   OH277725   1.352   1.184  14.522  0.2974  0.2529 -0.3805
18745TIP3    H177726   1.350   1.097  14.561 -0.4836  0.5317  0.2282
18745TIP3    H277727   1.323   1.243  14.592 -0.0643  0.8961 -1.0455
18746TIP3   OH277728   0.713   1.525  17.089  0.4625  0.6949  0.0369
18746TIP3    H177729   0.668   1.549  17.007 -0.3958  0.1924  0.3512
18746TIP3    H277730   0.667   1.575  17.156  0.7383  0.6022  0.2957
18747TIP3   OH277731   4.630   5.037  12.902  0.5794 -0.2277 -0.1983
18747TIP3    H177732   4.699   5.040  12.836  0.7768 -0.9197 -0.0347
18747TIP3    H277733   4.576   5.114  12.885  0.9880 -0.0653 -0.7688
18748TIP3   OH277734   0.885   1.762   6.339  0.0190  0.3579 -0.4193
18748TIP3    H177735   0.931   1.834   6.296  0.3591 -0.3164 -1.2227
18748TIP3    H277736   0.807   1.802   6.378  0.4311  1.2254 -0.4772
18749TIP3   OH277737   3.120   2.669   1.906 -0.2665  0.2012 -0.1736
18749TIP3    H177738   3.052   2.736   1.903 -0.7673 -0.1933  1.5096
18749TIP3    H277739   3.105   2.616   1.827 -1.3903  0.6223 -0.2611
18750TIP3   OH277740   2.220   1.377  14.238  0.5259 -0.4513 -0.1301
18750TIP3    H177741   2.130   1.380  14.206  0.6970 -1.2161 -0.7220
18750TIP3    H277742   2.261   1.456  14.203 -0.7079  1.6763  2.7657
18751TIP3   OH277743   5.551   5.564  10.775 -0.0028  0.6654  0.3009
18751TIP3    H177744   5.631   5.614  10.759  0.0997  0.6055  0.6095
18751TIP3    H277745   5.501   5.571  10.694  0.6591  0.0744 -0.1754
18752TIP3   OH277746   4.298   0.236  11.870 -0.1697 -0.0599 -0.2999
18752TIP3    H177747   4.355   0.198  11.804  0.5172 -0.1648  0.3369
18752TIP3    H277748   4.331   0.325  11.882 -0.6760  0.1613 -0.5376
18753TIP3   OH277749   4.134   6.339  15.116 -0.4567  0.3590 -0.2094
18753TIP3    H177750   4.228   6.332  15.133 -0.2591 -0.8628 -1.5867
18753TIP3    H277751   4.127   6.405  15.047 -0.3926 -0.9640 -1.5161
18754TIP3   OH277752   0.499   2.770   1.651 -0.3245 -0.1005 -0.1832
18754TIP3    H177753   0.586   2.774   1.610 -0.5117  0.2257 -0.5477
18754TIP3    H277754   0.517   2.736   1.739  0.0455 -1.0436 -0.6063
18755TIP3   OH277755   2.956   0.621  11.064 -0.1364  0.4917  0.0576
18755TIP3    H177756   3.019   0.554  11.036  0.2193  0.7570  0.2067
18755TIP3    H277757   2.935   0.669  10.984  0.4716  0.9124  0.1438
18756TIP3   OH277758   3.152   4.394  16.942 -0.4174  0.3255 -0.4560
18756TIP3    H177759   3.113   4.450  16.875 -1.0772 -1.3416 -1.5170
18756TIP3    H277760   3.242   4.424  16.950 -0.6213  1.2102 -1.3410
18757TIP3   OH277761   6.495   0.356   5.166  0.1162  0.0655  0.1089
18757TIP3    H177762   6.538   0.321   5.088 -1.8620 -1.6334 -0.3174
18757TIP3    H277763   6.412   0.390   5.134  0.3705  1.7334  1.1366
18758TIP3   OH277764   3.795   5.291  14.872  0.2407 -1.0152  0.1393
18758TIP3    H177765   3.709   5.255  14.896  1.0385 -1.2913  2.8997
18758TIP3    H277766   3.848   5.215  14.851  0.8624 -1.2369  2.2985
18759TIP3   OH277767   1.664   4.037  12.806 -0.5963  0.5170  0.2352
18759TIP3    H177768   1.627   4.064  12.890 -0.6541 -0.2220  0.4542
18759TIP3    H277769   1.655   4.114  12.750 -0.5266  1.0313  0.9144
18760TIP3   OH277770   4.659   6.571   3.674  0.7653 -0.9649 -0.8210
18760TIP3    H177771   4.612   6.646   3.639 -1.3172 -1.1281  1.3498
18760TIP3    H277772   4.741   6.607   3.708 -0.7283  0.6718  1.3227
18761TIP3   OH277773   6.103   2.429  13.893  0.3032  0.5539 -0.2757
18761TIP3    H177774   6.133   2.501  13.838  0.8657 -0.8087 -1.8587
18761TIP3    H277775   6.031   2.390  13.844 -0.4890  0.4824  0.9188
18762TIP3   OH277776   4.007   6.355   2.597 -0.1517  0.2382 -0.0812
18762TIP3    H177777   3.993   6.281   2.656 -3.4207  0.7380 -0.0364
18762TIP3    H277778   4.091   6.392   2.624  0.2698 -1.8207  1.6820
18763TIP3   OH277779   4.675   0.509  11.841  0.1934  0.1455  0.0072
18763TIP3    H177780   4.711   0.462  11.915 -1.8136  3.0852  3.1631
18763TIP3    H277781   4.581   0.512  11.858 -0.5268  0.0752 -3.2919
18764TIP3   OH277782   4.295   5.929   0.902  0.3187  0.7440  0.4721
18764TIP3    H177783   4.216   5.983   0.907 -0.1315  0.3578 -1.6968
18764TIP3    H277784   4.354   5.977   0.844  1.0135  0.2010  0.7040
18765TIP3   OH277785   4.656   1.862  16.599  0.5595 -0.1570 -0.0773
18765TIP3    H177786   4.641   1.938  16.544  0.8375  0.6217  0.8886
18765TIP3    H277787   4.623   1.788  16.548 -2.1177  0.8902 -0.0274
18766TIP3   OH277788   0.389   1.636  13.904  0.1183 -0.1690  0.5837
18766TIP3    H177789   0.426   1.627  13.816 -1.4197  0.7181 -0.1799
18766TIP3    H277790   0.351   1.550  13.923  0.2145 -0.2796  0.2834
18767TIP3   OH277791   0.558   2.991  17.158  0.2093  0.2636 -0.4153
18767TIP3    H177792   0.572   2.896  17.154  0.6505  0.2288  1.3556
18767TIP3    H277793   0.599   3.024  17.078 -1.3580 -1.1560 -1.8784
18768TIP3   OH277794   5.475   6.459   2.435 -0.3584 -0.3806  0.1330
18768TIP3    H177795   5.413   6.452   2.362  0.5071 -1.7970 -0.5180
18768TIP3    H277796   5.424   6.433   2.512 -1.3020  1.2044  0.0894
18769TIP3   OH277797   6.467   1.395  15.590  0.3164  0.1850 -0.2036
18769TIP3    H177798   6.378   1.363  15.605  0.3394  0.7447  1.2515
18769TIP3    H277799   6.492   1.356  15.506 -1.4643  0.3983 -0.8870
18770TIP3   OH277800   5.073   2.424  12.907 -0.1376  0.2695  0.3667
18770TIP3    H177801   5.043   2.489  12.970  0.4083  0.1154  0.7879
18770TIP3    H277802   5.001   2.418  12.843  0.2682  2.1298 -0.3398
18771TIP3   OH277803   4.815   5.138   0.961 -0.2862 -0.5202  0.0199
18771TIP3    H177804   4.876   5.066   0.950  0.3713 -0.1011  0.8651
18771TIP3    H277805   4.864   5.205   1.007 -1.0963  0.2084 -0.1445
18772TIP3   OH277806   1.654   2.873   4.183 -0.0814 -0.5086 -0.1750
18772TIP3    H177807   1.572   2.823   4.188  0.6483 -1.6328  1.0488
18772TIP3    H277808   1.672   2.899   4.273  0.5203  0.4061 -0.5493
18773TIP3   OH277809   4.340   4.304   0.486  0.5706 -0.7402  0.1243
18773TIP3    H177810   4.361   4.211   0.477  0.3092 -0.8056  0.1701
18773TIP3    H277811   4.321   4.333   0.397  3.0186 -0.1378 -0.2624
18774TIP3   OH277812   6.612   4.170   1.714  0.4684 -0.2478 -0.1616
18774TIP3    H177813   6.549   4.241   1.702  0.0727 -0.6286 -0.3568
18774TIP3    H277814   6.666   4.198   1.787 -0.4639 -0.2930  0.5664
18775TIP3   OH277815   1.532   0.025  15.318  0.1741 -0.4147 -0.0571
18775TIP3    H177816   1.491   0.012  15.403  0.2717 -1.3593 -0.1408
18775TIP3    H277817   1.621  -0.010  15.329  0.7134  0.8826 -0.1022
18776TIP3   OH277818   6.551   1.474   1.561 -0.1147 -0.5518  0.3288
18776TIP3    H177819   6.500   1.500   1.637 -2.1259  1.9518 -1.6770
18776TIP3    H277820   6.499   1.408   1.517 -0.6709  0.4563 -0.5884
18777TIP3   OH277821   5.231   2.201  16.179  0.1321 -0.3208 -0.4126
18777TIP3    H177822   5.154   2.174  16.229  1.1868  1.2595  2.2583
18777TIP3    H277823   5.303   2.152  16.217  0.9781  0.9722 -0.2746
18778TIP3   OH277824   3.844   2.610  13.664 -0.1620  0.3089 -0.2666
18778TIP3    H177825   3.840   2.678  13.731  1.2170 -1.1389  1.3742
18778TIP3    H277826   3.937   2.588  13.658 -0.2648  0.2424 -2.5498
18779TIP3   OH277827   6.404   4.359   1.941 -0.2311  0.9919  0.2110
18779TIP3    H177828   6.331   4.308   1.977  0.5885 -1.0265 -0.8304
18779TIP3    H277829   6.398   4.346   1.846  0.4458  2.2670 -0.0217
18780TIP3   OH277830   6.681   4.738  12.362 -0.2465 -0.2030  0.1050
18780TIP3    H177831   6.620   4.798  12.407  0.3066 -0.6557  1.5295
18780TIP3    H277832   6.714   4.789  12.288 -3.2847 -0.3734 -1.5287
18781TIP3   OH277833   4.388   3.473  13.226  0.2390  0.1748  0.3911
18781TIP3    H177834   4.296   3.454  13.208  0.4121 -0.1500 -0.1671
18781TIP3    H277835   4.395   3.470  13.322 -0.7530  2.1890  0.5811
18782TIP3   OH277836   1.990   0.928  14.772  0.3474 -0.1136  0.0558
18782TIP3    H177837   1.951   0.995  14.828 -0.6451 -0.8605  0.2850
18782TIP3    H277838   1.916   0.889  14.726  1.2116  1.3414 -2.8249
18783TIP3   OH277839   5.363   3.272   6.641 -0.2596  0.1813  0.6447
18783TIP3    H177840   5.388   3.363   6.625 -0.3293 -0.0349 -0.8450
18783TIP3    H277841   5.445   3.229   6.665 -0.4158  0.8400  2.5633
18784TIP3   OH277842   2.530   5.908  14.941 -0.0674  0.2382 -0.0039
18784TIP3    H177843   2.552   5.896  14.848  0.2944  0.7220  0.0125
18784TIP3    H277844   2.435   5.900  14.944 -0.0220 -0.4431 -0.3110
18785TIP3   OH277845   3.012   5.721  15.620 -0.2846 -0.3971 -0.2809
18785TIP3    H177846   3.004   5.767  15.537  1.2812  1.4129  0.4909
18785TIP3    H277847   3.021   5.791  15.685 -2.0892 -1.7175  1.5427
18786TIP3   OH277848   6.004   4.775  15.521  0.1084  0.0567  0.4916
18786TIP3    H177849   5.971   4.822  15.597  0.9311 -1.4160  1.8246
18786TIP3    H277850   5.960   4.690  15.524  0.3615 -0.1261 -0.5102
18787TIP3   OH277851   2.878   2.711  16.043  0.1917 -0.2624  0.6018
18787TIP3    H177852   2.832   2.682  15.964  0.6176  0.5412  0.0448
18787TIP3    H277853   2.858   2.804  16.050  2.0695  0.2329  0.0617
18788TIP3   OH277854   0.445   0.370   1.136  0.1419 -0.1214  0.0178
18788TIP3    H177855   0.434   0.334   1.224  3.0024  0.5913  0.7672
18788TIP3    H277856   0.443   0.293   1.078  1.1556 -0.9576  1.0446
18789TIP3   OH277857   4.152   5.430  17.239  0.0411 -0.1767  0.1479
18789TIP3    H177858   4.213   5.459  17.171  2.0701  2.0309  2.6868
18789TIP3    H277859   4.174   5.338  17.254 -0.0639 -0.5371 -1.7052
18790TIP3   OH277860   2.454   1.965  15.913  0.1626 -0.0251  0.0959
18790TIP3    H177861   2.388   2.034  15.915  1.2474  1.0551 -0.4375
18790TIP3    H277862   2.524   1.997  15.970  0.1404 -1.2773  0.8701
18791TIP3   OH277863   1.982   1.617  14.776  0.3408 -0.5770  0.0755
18791TIP3    H177864   1.917   1.565  14.729  0.0471 -0.0205 -0.1490
18791TIP3    H277865   2.053   1.556  14.796  0.6795 -0.7158 -1.4832
18792TIP3   OH277866   0.565   0.766  14.358 -0.1191 -0.1186  0.0421
18792TIP3    H177867   0.533   0.676  14.365 -1.5518  0.3725  0.1734
18792TIP3    H277868   0.540   0.806  14.441 -0.6569  0.7376 -0.5158
18793TIP3   OH277869   0.095   4.375  12.129  0.4201 -0.0646  0.2568
18793TIP3    H177870   0.185   4.405  12.135  0.7932 -0.9461 -0.6350
18793TIP3    H277871   0.045   4.452  12.101  1.2428 -0.0612 -1.3149
18794TIP3   OH277872   4.427   6.316  12.240 -0.0537 -0.4052 -0.3171
18794TIP3    H177873   4.488   6.311  12.167 -0.4517  0.5675 -0.7322
18794TIP3    H277874   4.360   6.250  12.220 -1.2026  1.1468 -1.8448
18795TIP3   OH277875   4.422   2.565   3.622  0.6310 -0.0007 -0.7142
18795TIP3    H177876   4.476   2.521   3.687 -1.0983 -0.4830  0.4690
18795TIP3    H277877   4.397   2.497   3.560 -0.4930 -0.3222  0.0580
18796TIP3   OH277878   3.820   0.431  11.582  0.0613 -0.6141 -0.3497
18796TIP3    H177879   3.900   0.450  11.630 -0.8565 -1.8262  1.7660
18796TIP3    H277880   3.846   0.366  11.516  0.7692 -1.1879  0.4771
18797TIP3   OH277881   5.979   3.097   2.724 -0.0703  0.1867 -0.2029
18797TIP3    H177882   5.894   3.140   2.718 -2.0730 -3.1499  1.2961
18797TIP3    H277883   6.006   3.109   2.815 -0.0415 -0.5476 -0.1035
18798TIP3   OH277884   2.783   1.320  15.389  0.3511 -0.6376 -0.0003
18798TIP3    H177885   2.716   1.382  15.415  1.3191  0.0464  0.9222
18798TIP3    H277886   2.748   1.234  15.413 -1.1712 -0.5348 -1.6540
18799TIP3   OH277887   2.866   3.920  17.065  0.2872  0.0628 -0.1981
18799TIP3    H177888   2.890   3.873  16.986  0.4946 -0.7479  0.3314
18799TIP3    H277889   2.910   3.872  17.136 -2.2977 -1.0799  0.7445
18800TIP3   OH277890   2.264   5.218  13.882 -0.0887  0.6330 -0.6184
18800TIP3    H177891   2.275   5.123  13.868  0.8709  0.7225 -0.5102
18800TIP3    H277892   2.216   5.225  13.964  0.1346  0.2518 -0.4550
18801TIP3   OH277893   6.140   0.558  11.538  0.1721 -0.1872  0.3103
18801TIP3    H177894   6.229   0.557  11.573 -0.2626  0.6099  1.5134
18801TIP3    H277895   6.146   0.512  11.454  1.3011 -1.9435  1.3095
18802TIP3   OH277896   1.724   1.438   3.094 -0.0510  0.3030 -0.1935
18802TIP3    H177897   1.731   1.404   3.005  0.1036 -0.6546  0.1733
18802TIP3    H277898   1.792   1.391   3.143 -1.1393 -0.3252  0.7637
18803TIP3   OH277899   4.467   6.740   2.691  0.2416  0.4658 -0.2402
18803TIP3    H177900   4.441   6.827   2.721  0.3642  0.4203 -0.0012
18803TIP3    H277901   4.444   6.682   2.764 -2.2548 -0.1006 -1.3652
18804TIP3   OH277902   5.633   0.778   1.068 -0.0938 -0.4043 -0.1619
18804TIP3    H177903   5.590   0.862   1.087  0.0791 -0.2837 -0.2943
18804TIP3    H277904   5.718   0.785   1.110  0.5849  0.1582 -1.5664
18805TIP3   OH277905   4.479   5.841  10.784 -0.1904  0.8716  0.4437
18805TIP3    H177906   4.527   5.803  10.857 -2.6842 -0.1071  1.6795
18805TIP3    H277907   4.442   5.922  10.819 -2.9818 -0.5325  0.9900
18806TIP3   OH277908   5.322   4.590  14.544  0.0769 -0.0837  0.2331
18806TIP3    H177909   5.266   4.568  14.618 -0.7808  0.0723 -0.3592
18806TIP3    H277910   5.403   4.622  14.584 -0.0978 -0.6858  1.0966
18807TIP3   OH277911   1.635   0.132  15.714 -0.4056  0.1553 -0.0970
18807TIP3    H177912   1.601   0.065  15.654 -0.1332  1.3055 -1.6095
18807TIP3    H277913   1.557   0.169  15.755 -0.8360  1.0040 -1.5970
18808TIP3   OH277914   5.980   6.139   4.970  0.2487 -0.5865  0.1278
18808TIP3    H177915   5.892   6.145   4.933  0.6066 -1.0878 -0.8606
18808TIP3    H277916   5.969   6.162   5.062 -0.4108  2.7048 -0.6059
18809TIP3   OH277917   4.671   3.854   5.532 -0.2051 -0.1869  0.8343
18809TIP3    H177918   4.716   3.790   5.587 -0.5236 -0.3964  0.8509
18809TIP3    H277919   4.594   3.808   5.500 -0.4227  0.1813  0.8288
18810TIP3   OH277920   6.548   3.985   5.952 -0.6738 -0.1886  0.0269
18810TIP3    H177921   6.620   3.979   6.014 -0.8449 -0.5506  0.1951
18810TIP3    H277922   6.544   4.077   5.928 -0.5596 -0.0607  0.4969
18811TIP3   OH277923   2.760   4.190  11.242  0.5114  0.0968 -0.2286
18811TIP3    H177924   2.805   4.252  11.299  0.7786 -0.5558  0.2817
18811TIP3    H277925   2.686   4.238  11.207 -0.1876  0.2402  1.3794
18812TIP3   OH277926   2.017   2.308  15.418 -0.8702 -0.3462  0.0253
18812TIP3    H177927   2.027   2.214  15.432  0.3102 -0.1178  0.8333
18812TIP3    H277928   1.923   2.324  15.432 -0.9463 -1.2730  0.6960
18813TIP3   OH277929   3.532   2.095   4.574  0.1691 -0.1394  0.4164
18813TIP3    H177930   3.499   2.029   4.513 -0.5400  0.4092  0.1912
18813TIP3    H277931   3.454   2.139   4.606  0.5292 -0.3849  1.7065
18814TIP3   OH277932   0.716   5.821   3.954  0.1972 -0.1245  0.1890
18814TIP3    H177933   0.729   5.750   4.017 -0.9831 -1.8080 -1.3714
18814TIP3    H277934   0.659   5.784   3.887  0.3234  2.0184 -1.2024
18815TIP3   OH277935   4.563   1.213   0.899  0.2866 -0.1303  0.2323
18815TIP3    H177936   4.598   1.130   0.867  0.7936 -0.1022  0.7191
18815TIP3    H277937   4.468   1.200   0.899  0.2880 -0.2642 -0.9169
18816TIP3   OH277938   6.182   6.388   5.191  0.6617  0.3636  0.1031
18816TIP3    H177939   6.090   6.414   5.183  0.1913 -1.6657 -2.7547
18816TIP3    H277940   6.187   6.344   5.275 -0.4314  2.2651  1.2517
18817TIP3   OH277941   6.427   6.471  16.533 -0.8781 -0.3718  0.4608
18817TIP3    H177942   6.434   6.565  16.549 -0.4225 -0.2522 -0.4073
18817TIP3    H277943   6.393   6.435  16.616 -1.4916  0.6046  0.6449
18818TIP3   OH277944   3.696   5.409   4.959 -0.6511 -0.0229 -0.5397
18818TIP3    H177945   3.611   5.365   4.964 -1.7500  2.0814  0.5064
18818TIP3    H277946   3.688   5.471   4.887 -0.4587  1.0028  0.2893
18819TIP3   OH277947   4.741   5.748   0.265  0.3985  0.0891 -0.0447
18819TIP3    H177948   4.660   5.721   0.223 -1.3250  3.1026  1.0195
18819TIP3    H277949   4.769   5.825   0.216  0.3401  1.4648  1.9403
18820TIP3   OH277950   4.424   0.419  12.173 -0.1336 -0.3319 -0.4787
18820TIP3    H177951   4.373   0.401  12.251  1.0252  0.4213  0.5011
18820TIP3    H277952   4.498   0.359  12.178  1.0016  1.0385  0.0953
18821TIP3   OH277953   6.570   1.099  15.945  0.1221 -0.3192 -0.0778
18821TIP3    H177954   6.664   1.099  15.962 -0.1034 -0.3550  1.2951
18821TIP3    H277955   6.553   1.185  15.907  0.4176  0.6002  1.7199
18822TIP3   OH277956   4.247   5.971  13.270 -0.0788  0.0799 -0.1587
18822TIP3    H177957   4.155   5.998  13.272 -0.3779 -0.9337  0.0522
18822TIP3    H277958   4.245   5.876  13.260  0.9398  0.0130  0.1107
18823TIP3   OH277959   5.747   2.454  12.688  0.1014 -0.0501  0.2144
18823TIP3    H177960   5.682   2.396  12.647  0.7648 -0.0636 -0.8751
18823TIP3    H277961   5.712   2.473  12.775  0.9393 -3.9301  1.5667
18824TIP3   OH277962   6.024   3.552   5.398  0.1096  0.4429  0.5864
18824TIP3    H177963   5.955   3.494   5.365  0.8675 -0.8179  1.1481
18824TIP3    H277964   5.980   3.636   5.412 -0.9318  0.1113 -0.5814
18825TIP3   OH277965   2.246   6.296  16.898 -0.5118 -0.0407 -0.2679
18825TIP3    H177966   2.263   6.259  16.984  1.5801 -0.4812 -0.8154
18825TIP3    H277967   2.177   6.241  16.861 -1.5433  0.2540  1.1445
18826TIP3   OH277968   6.095   1.567   4.604  0.2372  0.2008  0.5191
18826TIP3    H177969   6.039   1.500   4.564  1.0045 -0.5073  0.5877
18826TIP3    H277970   6.057   1.650   4.577 -0.2934 -0.2680 -0.2141
18827TIP3   OH277971   6.630   6.168   4.523 -0.4700  0.1913 -0.4597
18827TIP3    H177972   6.627   6.073   4.533  0.5427  0.1363 -0.5239
18827TIP3    H277973   6.577   6.201   4.595  0.8653 -0.3817  0.8489
18828TIP3   OH277974   1.201   4.011  11.973 -0.5231  0.3129 -0.1195
18828TIP3    H177975   1.210   4.040  12.063  0.3128  1.0870 -0.4339
18828TIP3    H277976   1.283   3.964  11.955 -0.8973 -0.2821 -0.3297
18829TIP3   OH277977   6.793   4.625  14.652 -0.3624  0.0633  0.0355
18829TIP3    H177978   6.794   4.550  14.712  0.7022  1.0520  1.3368
18829TIP3    H277979   6.779   4.587  14.566 -0.6151 -1.5479  0.7473
18830TIP3   OH277980   5.881   0.212   5.598 -0.2441  0.4406 -0.1007
18830TIP3    H177981   5.848   0.262   5.673 -0.0865  1.9636 -1.0020
18830TIP3    H277982   5.947   0.269   5.558 -0.8065 -0.0239 -1.7865
18831TIP3   OH277983   6.417   4.459   0.809 -0.2692 -0.1419 -0.0636
18831TIP3    H177984   6.344   4.423   0.859  0.0982  1.4080  1.7107
18831TIP3    H277985   6.415   4.412   0.726 -0.8724 -2.8992  1.4043
18832TIP3   OH277986   5.144   4.468  16.110  0.0226  0.0089  0.6473
18832TIP3    H177987   5.066   4.448  16.060 -0.3552  0.3301  1.0953
18832TIP3    H277988   5.112   4.515  16.187  0.5516 -0.7569  1.3516
18833TIP3   OH277989   0.233   4.195  10.861 -0.3055 -0.5985 -0.2176
18833TIP3    H177990   0.184   4.126  10.815  0.6153 -1.6178  0.2728
18833TIP3    H277991   0.303   4.218  10.800 -1.5232  1.0884 -1.0539
18834TIP3   OH277992   2.503   1.068  12.713  0.0352  0.5304 -0.5248
18834TIP3    H177993   2.588   1.111  12.729  1.2026 -1.6137 -0.5541
18834TIP3    H277994   2.510   1.033  12.624  0.1246 -1.7323  0.3158
18835TIP3   OH277995   0.271   0.384   5.362 -0.2329 -0.2989  0.3634
18835TIP3    H177996   0.364   0.404   5.352  0.0899 -0.7924  2.0870
18835TIP3    H277997   0.269   0.301   5.409 -1.5499 -0.1105  0.6760
18836TIP3   OH277998   6.214   0.659  15.569  0.3508  0.7162  0.5989
18836TIP3    H177999   6.186   0.569  15.556 -2.4578  1.3979  1.3517
18836TIP3    H278000   6.224   0.695  15.481  0.3786  0.0067  0.3092
18837TIP3   OH278001   2.263   3.814   2.770  0.0621  0.5628  0.3489
18837TIP3    H178002   2.237   3.722   2.775  1.0392  0.3302  3.1413
18837TIP3    H278003   2.185   3.863   2.798  0.0608  0.4564  0.5323
18838TIP3   OH278004   5.998   3.500  12.142  0.6473  0.5107 -0.3738
18838TIP3    H178005   5.957   3.548  12.214 -1.7164  0.2961 -1.4822
18838TIP3    H278006   5.957   3.534  12.063  0.3503 -1.8774 -1.3539
18839TIP3   OH278007   3.897   4.205   1.933 -0.8169  0.4767 -0.2461
18839TIP3    H178008   3.810   4.174   1.909 -0.6145  0.2786 -0.7359
18839TIP3    H278009   3.957   4.152   1.880 -0.1631 -2.2752  2.8914
18840TIP3   OH278010   4.083   0.251  11.710 -0.1351 -0.2491 -0.9524
18840TIP3    H178011   4.066   0.168  11.667  0.8335 -0.3839 -1.0894
18840TIP3    H278012   4.141   0.229  11.783 -0.3010  0.2285 -0.6708
18841TIP3   OH278013   5.525   6.361  14.879  0.6256 -0.4824 -0.0499
18841TIP3    H178014   5.465   6.344  14.807 -2.0197  1.4136  1.5266
18841TIP3    H278015   5.585   6.428  14.844  0.6609 -1.0074 -1.0460
18842TIP3   OH278016   4.459   3.551  14.627  0.1128 -0.3267 -0.9705
18842TIP3    H178017   4.438   3.458  14.616  0.0468 -0.3961 -0.2881
18842TIP3    H278018   4.384   3.587  14.675  0.7006 -0.1817 -0.1442
18843TIP3   OH278019   5.976   4.089  12.210  0.5622 -0.3025 -0.0493
18843TIP3    H178020   6.064   4.083  12.172  0.0809  0.8195 -1.4072
18843TIP3    H278021   5.964   4.182  12.230 -0.6581 -0.2957 -0.7363
18844TIP3   OH278022   2.840   6.198   4.584  0.4724 -0.0237  0.1750
18844TIP3    H178023   2.846   6.281   4.536  0.3722 -0.9901 -1.6339
18844TIP3    H278024   2.749   6.195   4.615  0.4562  0.5208  0.1875
18845TIP3   OH278025   0.408   0.226   0.022 -1.0763 -0.4696  0.0797
18845TIP3    H178026   0.379   0.317   0.029 -1.5172 -0.4630 -1.6145
18845TIP3    H278027   0.468   0.225  -0.052 -0.8750 -1.5243  0.2395
18846TIP3   OH278028   6.690   2.369  12.630  0.6954 -0.2469  0.0862
18846TIP3    H178029   6.766   2.319  12.601  0.0512 -2.6817  2.2560
18846TIP3    H278030   6.717   2.409  12.713  0.5507  1.4929 -0.6587
18847TIP3   OH278031   2.524   0.826   3.915  0.7369  0.2729  0.3064
18847TIP3    H178032   2.479   0.808   3.832  0.2740  0.2782  0.5513
18847TIP3    H278033   2.592   0.759   3.920  0.2899 -0.1973  0.2722
18848TIP3   OH278034   5.992   2.476  11.598  0.3712  0.1006 -0.3971
18848TIP3    H178035   6.036   2.399  11.635  0.9654  0.9978  0.8325
18848TIP3    H278036   5.923   2.440  11.542 -2.5814 -1.4892  3.7734
18849TIP3   OH278037   0.130   5.138   1.755  0.0740 -0.4734  0.1404
18849TIP3    H178038   0.216   5.131   1.795  0.0688 -0.5627  0.1374
18849TIP3    H278039   0.111   5.049   1.723 -0.4056 -0.6849  0.9590
18850TIP3   OH278040   4.514   4.310  12.949 -0.4301 -0.3641  0.1595
18850TIP3    H178041   4.529   4.294  12.855 -0.3186  0.4607  0.0240
18850TIP3    H278042   4.422   4.334  12.954 -0.5155 -0.7271  0.3082
18851TIP3   OH278043   0.901   2.449  14.574 -0.3259 -0.2696 -0.1773
18851TIP3    H178044   0.867   2.375  14.525  0.3673  0.6371 -2.1370
18851TIP3    H278045   0.835   2.518  14.563 -0.7695 -0.4291  1.2760
18852TIP3   OH278046   1.692   2.548   1.729 -0.1728 -0.1798 -0.2985
18852TIP3    H178047   1.766   2.550   1.669  0.4235 -0.9341  0.4061
18852TIP3    H278048   1.615   2.556   1.672  0.4411  0.8003 -1.0150
18853TIP3   OH278049   3.334   3.273  15.039  0.6067 -0.1595 -0.0660
18853TIP3    H178050   3.384   3.323  15.103 -0.6258  1.2101 -0.1195
18853TIP3    H278051   3.381   3.190  15.030  2.1176  0.5773  0.8180
18854TIP3   OH278052   0.985   6.537   2.158 -0.2025 -0.2082  0.3049
18854TIP3    H178053   0.983   6.481   2.236 -1.9487  0.2192  0.6064
18854TIP3    H278054   0.915   6.503   2.103  1.6246 -1.1141 -1.5610
18855TIP3   OH278055   2.487   0.262  16.922 -0.2403  0.1458 -0.2023
18855TIP3    H178056   2.415   0.320  16.946 -0.5054  0.5864 -1.9455
18855TIP3    H278057   2.503   0.209  17.000 -0.5214  2.0085  1.1708
18856TIP3   OH278058   0.248   1.561  16.236  0.5765  0.2493 -0.0439
18856TIP3    H178059   0.171   1.603  16.198  0.5941  1.7866  1.5070
18856TIP3    H278060   0.321   1.619  16.214  1.0552 -0.3663 -0.1254
18857TIP3   OH278061   3.637   0.435  13.367  0.1952 -0.0829  0.1296
18857TIP3    H178062   3.709   0.471  13.419 -0.2499  1.6128 -0.3526
18857TIP3    H278063   3.646   0.478  13.282 -1.8707  0.8645  0.3234
18858TIP3   OH278064   4.124   4.357   3.254  0.0121  0.4133 -0.1631
18858TIP3    H178065   4.168   4.327   3.334 -1.8808  0.1479  0.8627
18858TIP3    H278066   4.188   4.412   3.210  1.0681  0.7015  1.6276
18859TIP3   OH278067   3.245   4.208   1.795 -0.3036  0.1442  0.8910
18859TIP3    H178068   3.180   4.195   1.726  0.2242  0.3372  0.3523
18859TIP3    H278069   3.312   4.142   1.779  1.7551  2.5162 -1.1149
18860TIP3   OH278070   5.989   3.960  14.896  0.6720  0.4019 -0.0319
18860TIP3    H178071   6.039   4.004  14.827  0.6486  0.8047  0.2069
18860TIP3    H278072   6.055   3.913  14.947  0.6297 -0.3484 -0.6542
18861TIP3   OH278073   0.467   5.295  14.205  0.1488 -0.2861  0.5778
18861TIP3    H178074   0.395   5.323  14.262 -0.4808  1.1489 -0.8626
18861TIP3    H278075   0.506   5.376  14.173  0.7617 -1.0438 -0.6941
18862TIP3   OH278076   3.499   6.035   4.387  0.1218 -0.5866  0.1563
18862TIP3    H178077   3.502   6.066   4.477  1.6743 -1.4838  0.4591
18862TIP3    H278078   3.409   6.051   4.358 -0.1597  0.5183  1.5585
18863TIP3   OH278079   5.203   5.478  10.821  0.2687 -0.1348 -0.1663
18863TIP3    H178080   5.259   5.401  10.827  0.4501 -0.1536 -1.7265
18863TIP3    H278081   5.140   5.456  10.752  0.4068  1.1513 -0.7257
18864TIP3   OH278082   6.342   6.521  14.822  0.2411  0.8777  0.6171
18864TIP3    H178083   6.257   6.489  14.793  1.1436  1.2541 -2.9203
18864TIP3    H278084   6.358   6.476  14.904 -1.6559 -2.3021 -0.5850
18865TIP3   OH278085   5.122   4.417   3.168 -0.0849 -0.3318 -0.2022
18865TIP3    H178086   5.139   4.338   3.220  0.8858 -0.1875 -0.2855
18865TIP3    H278087   5.191   4.478   3.193 -0.2225  0.1229 -0.9023
18866TIP3   OH278088   3.759   3.734   0.327 -0.8952  0.2529  0.2248
18866TIP3    H178089   3.757   3.728   0.231 -2.1415  0.7544  0.1932
18866TIP3    H278090   3.709   3.813   0.346  1.4803  1.6120  1.2068
18867TIP3   OH278091   0.586   5.124  17.147  0.1681 -0.1423  0.0186
18867TIP3    H178092   0.549   5.155  17.064  0.3013  1.4423  0.5025
18867TIP3    H278093   0.678   5.151  17.142 -0.4552  2.8690  1.8939
18868TIP3   OH278094   6.806   6.714  12.898 -0.4847  0.0772 -0.1085
18868TIP3    H178095   6.713   6.739  12.903 -0.7631 -1.0784  0.9137
18868TIP3    H278096   6.808   6.624  12.929  1.1222  0.4350  0.9412
18869TIP3   OH278097   1.503   0.982  13.699 -0.4786  0.0477 -0.3728
18869TIP3    H178098   1.528   0.947  13.613  0.2269 -0.0437 -0.1321
18869TIP3    H278099   1.504   1.077  13.687 -1.3497  0.0202 -0.7311
18870TIP3   OH278100   2.751   0.372  16.861 -0.6762  0.0615  0.3685
18870TIP3    H178101   2.732   0.292  16.910  2.6467 -0.1114  1.6519
18870TIP3    H278102   2.706   0.441  16.910 -0.1045 -0.5228  1.7756
18871TIP3   OH278103   4.991   5.518  15.425 -0.5916 -0.1504  0.0171
18871TIP3    H178104   4.918   5.579  15.413 -1.0420 -0.8903 -1.1424
18871TIP3    H278105   5.068   5.566  15.392 -0.7099  0.2906  0.3824
18872TIP3   OH278106   0.864   1.385   5.784  0.0419  0.0698  0.2356
18872TIP3    H178107   0.821   1.416   5.704  4.5195  0.8047 -2.2218
18872TIP3    H278108   0.840   1.450   5.850 -3.1213 -0.0693 -0.6030
18873TIP3   OH278109   0.845   3.746   1.890  0.2383  0.2444 -0.3837
18873TIP3    H178110   0.898   3.690   1.833 -0.2299 -0.9775  0.3437
18873TIP3    H278111   0.766   3.765   1.840  0.8833  1.2238 -1.0711
18874TIP3   OH278112   2.045   4.052  16.462  0.0389 -0.2407 -0.1254
18874TIP3    H178113   2.117   4.073  16.403  0.0953  0.9298  0.3197
18874TIP3    H278114   1.988   3.994  16.412  1.4498 -1.4805 -0.3535
18875TIP3   OH278115   5.913   0.342   2.372  0.7779 -0.0154  0.5824
18875TIP3    H178116   5.917   0.415   2.309  0.2885  0.3957  1.0177
18875TIP3    H278117   5.826   0.306   2.361  0.7170  0.0093  0.9671
18876TIP3   OH278118   4.663   3.049  12.163  0.6126  0.3675  0.0662
18876TIP3    H178119   4.630   2.985  12.226 -0.2303 -1.1419 -1.7806
18876TIP3    H278120   4.758   3.041  12.167  0.5427 -2.1573 -1.1042
18877TIP3   OH278121   1.933   6.114   3.951  0.4946 -0.3290 -0.4103
18877TIP3    H178122   1.863   6.134   4.014 -2.0986  0.3800 -3.2457
18877TIP3    H278123   1.996   6.062   4.000  0.0248  2.3514  3.4259
18878TIP3   OH278124   4.416   3.371  14.348 -0.9382  0.3481  0.3973
18878TIP3    H178125   4.365   3.404  14.422 -0.3789 -1.3192  1.5967
18878TIP3    H278126   4.502   3.354  14.385 -0.9118 -1.3996 -0.3787
18879TIP3   OH278127   5.139   1.804  12.085 -0.1965  0.0910  0.1597
18879TIP3    H178128   5.079   1.812  12.011  0.5373  1.1121 -0.3415
18879TIP3    H278129   5.168   1.712  12.081  1.2332  0.5551 -1.9711
18880TIP3   OH278130   4.453   0.938  11.732 -0.8006 -0.1753  0.2012
18880TIP3    H178131   4.436   0.850  11.700 -0.7599 -0.3190  0.5673
18880TIP3    H278132   4.394   0.948  11.807  0.1591 -0.4011  1.0146
18881TIP3   OH278133   5.897   5.231   2.592 -0.0011 -0.3227  0.5284
18881TIP3    H178134   5.845   5.155   2.566 -1.8874  1.2211 -0.4764
18881TIP3    H278135   5.833   5.296   2.622  1.6560  0.3793  2.8421
18882TIP3   OH278136   2.665   0.020  17.299  0.0449  0.0019  0.8342
18882TIP3    H178137   2.694  -0.061  17.342 -0.4409 -1.2903 -1.1272
18882TIP3    H278138   2.600   0.057  17.359 -1.8375 -2.6044  0.5932
18883TIP3   OH278139   2.921   4.076   4.998 -0.4252 -0.4339 -0.0613
18883TIP3    H178140   2.941   4.036   5.083  0.7066 -0.2665 -0.2361
18883TIP3    H278141   3.004   4.074   4.950 -0.6217  1.0629 -0.5138
18884TIP3   OH278142   1.775   0.281   4.709  0.2772  0.0987  0.2958
18884TIP3    H178143   1.720   0.339   4.657  0.3242 -2.2572 -2.6113
18884TIP3    H278144   1.861   0.284   4.667  0.6167 -1.1270  0.8507
18885TIP3   OH278145   5.314   0.292   0.907  0.1934 -0.0162 -0.4503
18885TIP3    H178146   5.295   0.371   0.957 -0.8845  0.0651 -0.9512
18885TIP3    H278147   5.348   0.324   0.823  0.2057 -0.0977 -0.4767
18886TIP3   OH278148   2.443   3.375   5.409  0.2444  0.3447  0.0307
18886TIP3    H178149   2.504   3.333   5.348  1.1524  1.0289  0.4428
18886TIP3    H278150   2.357   3.339   5.386  1.0308 -2.1627  0.7203
18887TIP3   OH278151   6.229   5.847   4.354  0.0934 -0.0101 -0.0889
18887TIP3    H178152   6.141   5.811   4.344  0.5146 -1.0944 -0.0196
18887TIP3    H278153   6.260   5.814   4.439  1.8212 -2.5324 -1.5376
18888TIP3   OH278154   5.271   4.554   5.129  0.5375  0.2271  0.0575
18888TIP3    H178155   5.245   4.555   5.222  0.5643  0.1642  0.0660
18888TIP3    H278156   5.242   4.638   5.095 -0.6045 -0.2538 -0.1926
18889TIP3   OH278157   6.055   4.198  12.678 -0.1560  0.3461  0.4795
18889TIP3    H178158   6.098   4.283  12.668 -0.0318  0.2031 -0.2503
18889TIP3    H278159   6.125   4.134  12.672 -0.4181  0.1254 -0.4381
18890TIP3   OH278160   2.258   4.642   1.716  0.4752 -0.1765 -0.1319
18890TIP3    H178161   2.307   4.714   1.675  0.3994 -0.9462 -1.6618
18890TIP3    H278162   2.174   4.681   1.738  0.2080  0.0859 -1.5002
18891TIP3   OH278163   3.174   1.058  11.219 -0.3900 -0.1778 -0.4476
18891TIP3    H178164   3.220   1.102  11.148  0.5705  0.7003  0.6681
18891TIP3    H278165   3.138   1.130  11.272  0.5121 -0.7121  0.9611
18892TIP3   OH278166   6.493   2.200   0.960  0.5062  0.6256 -0.2775
18892TIP3    H178167   6.513   2.129   0.899 -0.3544 -0.8984  1.1252
18892TIP3    H278168   6.576   2.218   1.004  1.0427  1.4768 -1.5854
18893TIP3   OH278169   4.587   1.556   3.983 -0.8803  0.4602  0.0373
18893TIP3    H178170   4.593   1.471   3.939 -2.2263 -0.1956  1.0441
18893TIP3    H278171   4.508   1.549   4.037  0.2217  1.5300  1.8755
18894TIP3   OH278172   6.327   6.331   6.387  0.6115  0.1478  0.0241
18894TIP3    H178173   6.231   6.336   6.386  0.5973 -0.0358  0.2826
18894TIP3    H278174   6.346   6.237   6.382  0.7362  0.0365  1.7727
18895TIP3   OH278175   0.455   5.547   2.474 -0.1367 -0.4918  0.5344
18895TIP3    H178176   0.544   5.517   2.453  0.5270  1.0636  0.9841
18895TIP3    H278177   0.422   5.483   2.536  0.5856 -1.2238  0.1829
18896TIP3   OH278178   1.228   6.553   1.716 -0.2400  0.2650  0.2119
18896TIP3    H178179   1.308   6.586   1.758 -0.4064 -0.0128  0.7505
18896TIP3    H278180   1.257   6.522   1.631  0.7687 -2.4861  1.4648
18897TIP3   OH278181   4.443   6.784  11.254  0.5105  0.0314  0.4017
18897TIP3    H178182   4.446   6.880  11.257  2.0366  0.0387 -0.6139
18897TIP3    H278183   4.456   6.762  11.162 -0.3622 -1.1582  0.5385
18898TIP3   OH278184   6.296   5.492   2.477 -0.0481 -0.0488 -0.3497
18898TIP3    H178185   6.353   5.554   2.430  0.3017  0.7189  1.0222
18898TIP3    H278186   6.350   5.460   2.549 -0.0297 -2.4612 -1.3699
18899TIP3   OH278187   2.576   0.060   5.609  0.4484 -0.4430  0.3753
18899TIP3    H178188   2.527  -0.022   5.613 -1.0759  0.4211  0.1726
18899TIP3    H278189   2.569   0.088   5.518 -2.4374  1.8193  1.1414
18900TIP3   OH278190   2.907   6.310  16.374 -0.3454 -0.5001  0.2143
18900TIP3    H178191   2.890   6.269  16.290 -0.8982  0.7446 -0.3057
18900TIP3    H278192   2.821   6.336  16.407 -0.0526 -0.0837  0.6803
18901TIP3   OH278193   2.046   0.154   5.187 -0.6997  0.3486  0.0351
18901TIP3    H178194   2.131   0.169   5.146 -0.2880 -0.2907  0.6390
18901TIP3    H278195   2.060   0.078   5.243 -1.5324  0.5764  0.5558
18902TIP3   OH278196   1.369   4.015  14.239 -0.2293  0.1271 -0.4454
18902TIP3    H178197   1.289   4.048  14.279  0.4566  0.6989  0.4755
18902TIP3    H278198   1.402   4.089  14.188  0.0734  0.1078 -0.2758
18903TIP3   OH278199   2.158   3.945  15.320 -0.0652  0.1043  0.6465
18903TIP3    H178200   2.203   4.020  15.283 -1.2885  0.6270  0.1539
18903TIP3    H278201   2.208   3.922  15.399  0.6293  1.0857  0.4997
18904TIP3   OH278202   4.104   2.249  13.735 -0.5383  0.1679 -0.0943
18904TIP3    H178203   4.174   2.213  13.681 -0.7975 -0.5605  0.0455
18904TIP3    H278204   4.150   2.300  13.802 -0.1803  0.3321 -0.4582
18905TIP3   OH278205   0.252   4.633  11.042  0.1358  0.4957 -0.1423
18905TIP3    H178206   0.171   4.593  11.010  0.1233  0.0773  0.3933
18905TIP3    H278207   0.321   4.591  10.992  0.3272 -1.8930  1.8897
18906TIP3   OH278208   3.501   0.145   1.869 -0.4262 -0.7674  0.7092
18906TIP3    H178209   3.466   0.191   1.946  1.3078 -1.1140  1.7506
18906TIP3    H278210   3.578   0.099   1.902  0.8313 -0.2794 -1.4057
18907TIP3   OH278211   4.544   0.103  13.462 -0.3434  0.3635 -0.2332
18907TIP3    H178212   4.527   0.091  13.555 -0.5821 -1.3770 -0.4716
18907TIP3    H278213   4.631   0.144  13.459 -0.3821  0.5455  0.7422
18908TIP3   OH278214   5.035   5.181   5.259 -0.6698 -0.0182 -0.8524
18908TIP3    H178215   5.012   5.203   5.169 -1.7351  0.4985 -0.4689
18908TIP3    H278216   5.025   5.263   5.308 -0.6007 -0.4055 -0.1663
18909TIP3   OH278217   3.490   3.241   4.139  0.2003  0.0557  0.2875
18909TIP3    H178218   3.422   3.193   4.093  2.8472 -2.0797 -1.7703
18909TIP3    H278219   3.505   3.192   4.220  0.9826 -1.0294 -0.4878
18910TIP3   OH278220   6.147   0.065  10.886 -0.2806 -0.3149 -0.0006
18910TIP3    H178221   6.166   0.158  10.884 -2.2274  0.1472  0.9644
18910TIP3    H278222   6.107   0.046  10.800 -2.8447  0.5053  0.9077
18911TIP3   OH278223   5.152   4.612  11.005 -0.2265 -0.0263 -0.0612
18911TIP3    H178224   5.168   4.539  11.064 -1.5169 -0.5828 -0.3586
18911TIP3    H278225   5.073   4.654  11.039 -1.6538 -1.0038 -1.9230
18912TIP3   OH278226   4.242   5.768  14.555  0.1806  0.0366 -0.1074
18912TIP3    H178227   4.155   5.767  14.595 -0.9442 -2.2669 -2.3678
18912TIP3    H278228   4.294   5.709  14.611  0.0839  0.7691  0.7760
18913TIP3   OH278229   3.881   1.960   6.536  0.9700  0.3607  0.0344
18913TIP3    H178230   3.799   1.996   6.569  1.5221  1.3274  0.3989
18913TIP3    H278231   3.942   1.969   6.608  0.9017 -2.3418  0.5296
18914TIP3   OH278232   0.865   1.957   1.949 -0.1067 -0.7609 -0.5379
18914TIP3    H178233   0.930   1.986   2.012  0.2908 -0.1698 -1.2031
18914TIP3    H278234   0.914   1.909   1.883 -0.3205 -0.2325 -1.0932
18915TIP3   OH278235   3.568   4.993  17.279 -0.0865 -0.0809  0.5979
18915TIP3    H178236   3.481   4.973  17.313 -0.3826  0.6813  0.3124
18915TIP3    H278237   3.581   5.086  17.299  0.1108  0.1531 -0.5315
18916TIP3   OH278238   2.159   1.776   1.541  0.0697  0.2746  0.1506
18916TIP3    H178239   2.212   1.716   1.490 -0.5318  0.4791 -0.7377
18916TIP3    H278240   2.074   1.733   1.550 -0.0601  0.5610  0.3521
18917TIP3   OH278241   6.769   2.221  13.165 -0.4750 -0.2487  0.6665
18917TIP3    H178242   6.811   2.185  13.244 -0.1688 -0.5280  0.3784
18917TIP3    H278243   6.815   2.179  13.092 -1.1989 -0.4902  0.3447
18918TIP3   OH278244   6.449   3.483  10.572  0.4897  0.8311 -0.0602
18918TIP3    H178245   6.371   3.441  10.535  0.5109  0.2782  0.4967
18918TIP3    H278246   6.521   3.423  10.553  0.4330  0.3138  1.2155
18919TIP3   OH278247   4.110   5.532  11.352 -0.3355 -0.4551 -0.4410
18919TIP3    H178248   4.191   5.559  11.308 -0.5659 -1.0036 -1.2206
18919TIP3    H278249   4.136   5.461  11.410 -0.3839 -1.2093 -1.3197
18920TIP3   OH278250   1.109   4.473  13.838 -0.0871 -0.1569 -0.1950
18920TIP3    H178251   1.103   4.562  13.803  1.6695 -0.4421 -1.3084
18920TIP3    H278252   1.030   4.464  13.891  0.2782  2.5061  1.0010
18921TIP3   OH278253   1.074   6.469  12.321  0.3587  0.2041  0.3948
18921TIP3    H178254   1.002   6.423  12.364 -0.9402  1.5600 -0.2405
18921TIP3    H278255   1.126   6.400  12.280 -1.4579 -0.7388 -0.4496
18922TIP3   OH278256   2.329   4.658  12.702 -0.1137 -0.1328 -0.2919
18922TIP3    H178257   2.375   4.583  12.664  1.8887  1.1059 -0.4757
18922TIP3    H278258   2.399   4.716  12.733 -1.6082  0.7849  1.6241
18923TIP3   OH278259   0.507   2.483   4.062 -0.0119  0.2990  0.2221
18923TIP3    H178260   0.426   2.523   4.029 -0.0994 -0.7524 -0.9140
18923TIP3    H278261   0.511   2.398   4.017  0.9229 -0.3252  1.4485
18924TIP3   OH278262   6.562   3.869   1.760  0.1972  0.7169 -0.4683
18924TIP3    H178263   6.574   3.963   1.763  0.4927  0.6689 -0.0805
18924TIP3    H278264   6.629   3.834   1.818 -0.0687  0.2831 -0.4149
18925TIP3   OH278265   3.583   2.958  14.787  0.3124 -0.6465 -0.2958
18925TIP3    H178266   3.502   2.991  14.749  0.2971 -0.3003  0.0254
18925TIP3    H278267   3.651   2.982  14.724  0.6164  1.9934  0.9039
18926TIP3   OH278268   6.458   3.374   0.901 -0.1032  0.0228 -0.3751
18926TIP3    H178269   6.488   3.437   0.835 -3.2610  2.0294 -0.1589
18926TIP3    H278270   6.417   3.304   0.851  0.0045  0.1080 -0.5835
18927TIP3   OH278271   6.533   6.383   3.382  0.0793  0.0252  0.2878
18927TIP3    H178272   6.552   6.340   3.465 -0.3028  0.7702  0.7732
18927TIP3    H278273   6.469   6.325   3.340 -1.4041  0.7108  1.4979
18928TIP3   OH278274   0.590   6.439  12.333 -0.4567 -0.0155  0.0844
18928TIP3    H178275   0.605   6.348  12.356  0.9131  0.4972  1.3330
18928TIP3    H278276   0.632   6.450  12.248 -1.8181 -0.8554 -0.7312
18929TIP3   OH278277   1.528   5.875   2.824 -0.1030  0.2113  0.0988
18929TIP3    H178278   1.542   5.964   2.857 -0.6345  0.1780  0.4388
18929TIP3    H278279   1.433   5.862   2.833 -0.3036  0.2750 -1.6465
18930TIP3   OH278280   4.403   2.094  15.830  0.2775  0.9272  0.0490
18930TIP3    H178281   4.343   2.019  15.823 -1.0586  1.9680 -0.0209
18930TIP3    H278282   4.382   2.134  15.914 -0.6918  2.5814 -0.9387
18931TIP3   OH278283   1.191   1.542   3.179  0.0647 -0.5335 -0.2124
18931TIP3    H178284   1.136   1.572   3.106  0.8254 -1.7629 -1.3252
18931TIP3    H278285   1.281   1.560   3.150  0.3309  0.3917  1.1000
18932TIP3   OH278286   1.211   0.107  15.143 -0.1250 -0.2691 -0.1890
18932TIP3    H178287   1.218   0.201  15.129 -2.1137  0.0921  0.8001
18932TIP3    H278288   1.296   0.071  15.117  0.0060  1.5479 -2.4858
18933TIP3   OH278289   6.394   4.803   5.522  0.8224  0.7992 -0.6127
18933TIP3    H178290   6.376   4.715   5.490  0.7625  1.3305 -2.1047
18933TIP3    H278291   6.308   4.836   5.550  0.5566  0.9622 -1.5851
18934TIP3   OH278292   4.774   1.919  12.409 -0.2348  0.3001  0.2569
18934TIP3    H178293   4.764   2.011  12.435  1.2446  0.7206 -0.5777
18934TIP3    H278294   4.805   1.875  12.488 -0.5491  0.5871  0.5447
18935TIP3   OH278295   5.546   3.392   4.593  0.1036  0.9382 -0.1555
18935TIP3    H178296   5.581   3.475   4.625 -1.8549  1.5504  0.5087
18935TIP3    H278297   5.472   3.417   4.537 -0.8066 -0.3592  0.4275
18936TIP3   OH278298   3.005   2.966  15.702 -0.2920 -0.3054  0.3184
18936TIP3    H178299   3.058   2.959  15.623  0.2878 -0.0731  0.6769
18936TIP3    H278300   3.048   2.907  15.764 -1.7218 -1.7981 -0.0529
18937TIP3   OH278301   3.508   0.110  16.199  0.1704 -0.4836  0.6525
18937TIP3    H178302   3.460   0.050  16.255  2.2930  0.2239  3.5123
18937TIP3    H278303   3.570   0.055  16.152  2.4234 -0.7186  3.6003
18938TIP3   OH278304   4.998   6.157  13.732  0.0453  0.1766  0.4871
18938TIP3    H178305   4.914   6.121  13.703  0.8280 -0.3220 -1.3110
18938TIP3    H278306   5.060   6.086  13.718  1.2941  1.5196 -1.2576
18939TIP3   OH278307   0.619   4.652  10.703 -0.0903 -0.4852  0.0669
18939TIP3    H178308   0.682   4.593  10.745  0.2862 -1.7157 -2.1194
18939TIP3    H278309   0.672   4.725  10.670  0.0247 -0.8749 -0.6286
18940TIP3   OH278310   0.700   3.417   0.023  0.2842 -0.2434  0.5995
18940TIP3    H178311   0.652   3.335   0.010 -2.1484  1.1370  0.3684
18940TIP3    H278312   0.669   3.449   0.108  0.6833  0.7683  0.3785
18941TIP3   OH278313   3.001   3.471  14.878  0.0545  0.5710  0.1212
18941TIP3    H178314   3.022   3.437  14.792  0.2039 -0.5279  0.5781
18941TIP3    H278315   3.066   3.540  14.893 -0.8861  1.8169 -1.2269
18942TIP3   OH278316   4.508   3.908   4.471  0.0229 -0.2396 -0.8112
18942TIP3    H178317   4.492   3.814   4.482  0.1273 -0.3530 -1.5641
18942TIP3    H278318   4.482   3.947   4.554  0.0232 -0.9440 -0.4754
18943TIP3   OH278319   5.261   4.999  14.057  0.3765  0.2268  0.0266
18943TIP3    H178320   5.290   4.965  14.142  0.8245 -2.5748 -1.1392
18943TIP3    H278321   5.167   5.009  14.065  0.5814  1.4367  1.2747
18944TIP3   OH278322   5.283   0.301  15.088 -0.1682 -0.4352  0.4071
18944TIP3    H178323   5.220   0.271  15.154  1.2171 -1.0618  1.5015
18944TIP3    H278324   5.351   0.234  15.088  0.2657 -0.0324 -1.1158
18945TIP3   OH278325   1.858   1.837  12.569 -0.5675 -0.6571  0.1470
18945TIP3    H178326   1.763   1.836  12.558 -0.3135  0.8777 -3.2035
18945TIP3    H278327   1.888   1.758  12.522 -0.1185 -0.6540  0.4234
18946TIP3   OH278328   6.445   5.580  15.817  0.2914 -0.3017  0.2092
18946TIP3    H178329   6.395   5.499  15.829  2.1490 -1.4965  0.2937
18946TIP3    H278330   6.468   5.607  15.906 -0.3780  0.3732  0.1843
18947TIP3   OH278331   5.961   5.519   0.099  0.3036  0.1773  0.3165
18947TIP3    H178332   5.887   5.491   0.045 -0.1647  3.3214 -0.8930
18947TIP3    H278333   5.924   5.531   0.186  0.2017 -1.4030  0.5166
18948TIP3   OH278334   3.552   4.835   0.970  0.0136  0.0744 -0.0841
18948TIP3    H178335   3.570   4.801   1.058  1.0563  3.2140  1.0566
18948TIP3    H278336   3.633   4.819   0.921  0.5456  0.9840  0.4814
18949TIP3   OH278337   4.452   3.052  16.481 -0.0552  0.0974  0.3144
18949TIP3    H178338   4.462   3.099  16.564  1.1204  0.8217 -0.2053
18949TIP3    H278339   4.531   2.998  16.475 -1.0890 -1.5250  0.6056
18950TIP3   OH278340   5.571   6.823  10.512 -0.2877 -0.1684  0.1188
18950TIP3    H178341   5.650   6.862  10.475  0.4822 -1.1054  0.7209
18950TIP3    H278342   5.513   6.810  10.437  1.2555 -2.0970 -0.8515
18951TIP3   OH278343   3.084   4.135   0.013 -0.5519  0.0903 -0.7486
18951TIP3    H178344   2.992   4.151  -0.007 -0.7214 -0.8717 -0.8157
18951TIP3    H278345   3.116   4.218   0.046 -1.5639  0.3185 -0.2907
18952TIP3   OH278346   5.238   1.800   6.687  0.1886  0.3132 -0.6236
18952TIP3    H178347   5.227   1.709   6.714  1.5071  0.4900  0.7032
18952TIP3    H278348   5.321   1.801   6.640  0.4072  0.8828 -0.2425
18953TIP3   OH278349   3.083   4.580  16.690  0.4449  0.1557  0.0111
18953TIP3    H178350   3.117   4.669  16.678 -1.7348  1.1052  0.3526
18953TIP3    H278351   2.996   4.593  16.728  0.8065 -2.1987  1.8680
18954TIP3   OH278352   4.058   1.142  11.969  0.0913  0.2522 -0.2330
18954TIP3    H178353   3.994   1.091  12.019  1.5717 -2.6125 -1.0308
18954TIP3    H278354   4.018   1.152  11.883 -0.2600  0.5620 -0.0364
18955TIP3   OH278355   4.348   3.186  10.954  0.1526  0.3596  0.1392
18955TIP3    H178356   4.321   3.125  10.885  0.6935  1.1406 -0.7820
18955TIP3    H278357   4.362   3.269  10.908  1.5335  0.6361  1.0282
18956TIP3   OH278358   0.807   4.470  10.856 -0.4942  0.1285  0.0020
18956TIP3    H178359   0.796   4.380  10.887 -2.8393 -0.8092 -2.9346
18956TIP3    H278360   0.894   4.472  10.816  0.5818 -0.0102  2.2115
18957TIP3   OH278361   2.848   1.772  14.678  0.2925 -0.1143  0.3861
18957TIP3    H178362   2.799   1.793  14.757 -0.1701 -1.0728  0.3725
18957TIP3    H278363   2.832   1.846  14.619 -0.3872  0.0148  0.7283
18958TIP3   OH278364   4.637   1.481   5.724  0.1973  0.1247 -0.1741
18958TIP3    H178365   4.579   1.510   5.655  0.1569 -1.4813 -0.8671
18958TIP3    H278366   4.685   1.407   5.686  1.3650  0.2455  0.9743
18959TIP3   OH278367   2.354   4.164  16.852 -0.2795 -0.4811 -0.3105
18959TIP3    H178368   2.415   4.237  16.839 -0.3193 -0.1573  1.2062
18959TIP3    H278369   2.366   4.138  16.943 -0.8263 -1.8757 -0.6146
18960TIP3   OH278370   6.146   5.060  15.935 -0.1084 -0.1110  1.0186
18960TIP3    H178371   6.060   5.020  15.923 -1.1928  2.4462 -0.4201
18960TIP3    H278372   6.155   5.069  16.030 -1.9552  0.6002  1.1599
18961TIP3   OH278373   5.409   6.129  11.746 -0.1175  0.3826  0.0889
18961TIP3    H178374   5.442   6.101  11.661 -1.2714  0.8268 -0.5299
18961TIP3    H278375   5.468   6.200  11.773 -0.6623  1.2889 -1.0730
18962TIP3   OH278376   0.497   5.666   0.288 -0.6158 -0.5639  0.0476
18962TIP3    H178377   0.490   5.706   0.201 -4.0204 -2.2085 -0.6200
18962TIP3    H278378   0.491   5.739   0.349 -1.9358  0.3896 -1.1446
18963TIP3   OH278379   6.561   1.664  11.610 -0.2899  0.4310 -0.0722
18963TIP3    H178380   6.515   1.581  11.618  0.5006  0.0234  0.4413
18963TIP3    H278381   6.643   1.650  11.657 -1.0806  2.2002  2.0030
18964TIP3   OH278382   4.520   3.258   3.907 -0.1514  0.5006  0.0163
18964TIP3    H178383   4.611   3.285   3.899  0.4502 -1.7501 -1.7409
18964TIP3    H278384   4.469   3.334   3.879  1.0840  1.9892  1.5920
18965TIP3   OH278385   1.297   4.058  13.195 -0.5536 -0.6648 -0.4928
18965TIP3    H178386   1.323   4.078  13.285 -0.6365  1.8618 -0.9538
18965TIP3    H278387   1.208   4.024  13.203 -0.7919  0.1077  0.3617
18966TIP3   OH278388   3.470   1.131  16.708  0.2913 -0.2996 -0.0163
18966TIP3    H178389   3.540   1.092  16.760  0.7807  0.4291 -0.1185
18966TIP3    H278390   3.434   1.059  16.657  0.1830 -0.9123  0.9132
18967TIP3   OH278391   2.142   5.707  15.436 -0.0628  0.2138  0.2249
18967TIP3    H178392   2.144   5.638  15.502  1.1018  0.2450  0.2495
18967TIP3    H278393   2.104   5.665  15.359  0.6998 -0.5067  0.2131
18968TIP3   OH278394   4.687   5.886   1.034 -0.1382 -0.1023  0.0309
18968TIP3    H178395   4.751   5.871   0.964 -0.6763  2.0111 -1.0118
18968TIP3    H278396   4.616   5.825   1.014 -0.0521  0.1070 -0.9754
18969TIP3   OH278397   3.203   4.856   2.748  0.1222  0.6966  0.0719
18969TIP3    H178398   3.273   4.900   2.796 -0.5525 -0.3607  2.1906
18969TIP3    H278399   3.122   4.893   2.785 -0.5062  1.8757 -2.2982
18970TIP3   OH278400   2.675   6.440  14.498 -0.4271 -0.3251  0.6230
18970TIP3    H178401   2.719   6.456  14.414 -1.7642 -0.8366 -0.1940
18970TIP3    H278402   2.710   6.508  14.556  1.2308 -0.5430 -0.0596
18971TIP3   OH278403   1.566   0.618   3.792 -0.3950  0.6893 -0.1928
18971TIP3    H178404   1.633   0.601   3.726 -0.4001 -0.4100  0.0700
18971TIP3    H278405   1.599   0.693   3.841  0.5080  0.3361 -0.2483
18972TIP3   OH278406   4.815   3.281   4.442  0.3253  0.8934  0.3244
18972TIP3    H178407   4.903   3.291   4.478  0.0160 -0.2247  1.4990
18972TIP3    H278408   4.785   3.197   4.477 -1.0451  1.0556 -0.4034
18973TIP3   OH278409   4.258   3.338  14.625 -0.1335 -0.0391  0.0402
18973TIP3    H178410   4.180   3.388  14.601  0.1756  0.3722 -0.1257
18973TIP3    H278411   4.244   3.314  14.717 -1.4093 -1.7841 -0.5637
18974TIP3   OH278412   5.189   1.402   3.355 -0.0931  0.0205 -0.0335
18974TIP3    H178413   5.195   1.421   3.449  1.9548  0.9096 -0.2918
18974TIP3    H278414   5.107   1.443   3.328  0.0352  1.0838  1.0877
18975TIP3   OH278415   2.100   0.385  12.344  0.0768 -0.0450 -0.0899
18975TIP3    H178416   2.123   0.476  12.361 -0.9214  0.0972  0.6114
18975TIP3    H278417   2.154   0.359  12.270  1.6143  0.5879  0.7745
18976TIP3   OH278418   1.799   0.607  13.272 -0.2969  0.2593 -0.9689
18976TIP3    H178419   1.893   0.617  13.283 -0.6104  0.9441  1.6330
18976TIP3    H278420   1.786   0.513  13.256  0.6296 -0.4991  2.0707
18977TIP3   OH278421   2.778   6.820  10.732  0.3085  0.5097  0.7765
18977TIP3    H178422   2.851   6.803  10.672  0.1186 -1.3903  1.0054
18977TIP3    H278423   2.820   6.843  10.815  0.7176 -1.0738  1.0522
18978TIP3   OH278424   5.998   5.395   4.925 -0.0137 -0.0908  0.4275
18978TIP3    H178425   6.018   5.469   4.982 -1.7984 -0.5305  1.7040
18978TIP3    H278426   6.001   5.318   4.982  2.4708 -1.1970 -0.9959
18979TIP3   OH278427   2.777   0.927  13.560 -0.0142 -0.4259 -0.4927
18979TIP3    H178428   2.859   0.902  13.516 -0.8071  0.4733 -2.6535
18979TIP3    H278429   2.717   0.947  13.488 -2.0936 -0.8773  1.0359
18980TIP3   OH278430   1.495   4.217   2.882 -0.1899  0.0646 -0.4655
18980TIP3    H178431   1.445   4.140   2.911 -0.8497  1.2207  1.7150
18980TIP3    H278432   1.437   4.260   2.819  0.4371 -1.4670 -2.1847
18981TIP3   OH278433   4.678   3.000  13.927  0.3506 -0.0368 -0.1561
18981TIP3    H178434   4.608   3.044  13.975  0.6185 -2.1287  2.3413
18981TIP3    H278435   4.662   2.907  13.942  2.7940 -0.6175 -0.8436
18982TIP3   OH278436   6.350   1.161  16.706 -0.6735  0.7064 -0.0786
18982TIP3    H178437   6.264   1.134  16.740 -0.3956 -1.3132 -0.8606
18982TIP3    H278438   6.337   1.170  16.611 -0.2861  1.5920 -0.0635
18983TIP3   OH278439   5.957   4.263  13.769 -0.4761 -0.5857  0.0915
18983TIP3    H178440   5.887   4.258  13.834  0.6300  1.7402  1.5619
18983TIP3    H278441   5.922   4.320  13.701 -0.5634 -0.6827  0.0534
18984TIP3   OH278442   1.848   4.971  12.766 -0.0944  0.2218 -0.0892
18984TIP3    H178443   1.872   5.052  12.720  1.1625  0.4435  0.8860
18984TIP3    H278444   1.932   4.927  12.782 -0.7652 -1.3531 -0.7006
18985TIP3   OH278445   5.174   1.864  15.446 -0.0160 -0.2890  0.1600
18985TIP3    H178446   5.121   1.808  15.504 -2.0406 -0.0473 -1.3634
18985TIP3    H278447   5.144   1.953  15.464  1.7089  0.1529  1.0591
18986TIP3   OH278448   4.272   4.201   4.802 -0.4740  0.5159  0.1332
18986TIP3    H178449   4.357   4.172   4.835 -0.2040  0.3245 -0.7047
18986TIP3    H278450   4.220   4.218   4.881  0.5998  1.4226  0.6670
18987TIP3   OH278451   5.439   1.609  11.795  0.4479  0.0821  0.2353
18987TIP3    H178452   5.407   1.622  11.706 -1.0842  1.8890  0.9930
18987TIP3    H278453   5.509   1.673  11.805 -0.4074  0.9462  0.7953
18988TIP3   OH278454   4.515   5.308   4.720  0.0020 -0.2803  0.3514
18988TIP3    H178455   4.539   5.225   4.760  2.2529 -1.2193 -2.6251
18988TIP3    H278456   4.475   5.285   4.636 -1.8771  1.6359  0.6116
18989TIP3   OH278457   2.008   3.448  16.077  0.0908  0.0450 -0.2203
18989TIP3    H178458   1.975   3.359  16.063 -2.6235  1.0161 -0.6290
18989TIP3    H278459   2.006   3.488  15.991  4.3234 -0.2817 -0.6698
18990TIP3   OH278460   6.653   2.411  14.613  0.8096 -0.1182  0.3801
18990TIP3    H178461   6.612   2.324  14.613  1.5165 -0.4919  1.8319
18990TIP3    H278462   6.744   2.394  14.639  0.7877  1.1211  1.3609
18991TIP3   OH278463   4.419   0.943   2.945  0.2638 -0.2039  0.0410
18991TIP3    H178464   4.367   1.023   2.957 -0.0622 -0.2981 -0.6860
18991TIP3    H278465   4.485   0.967   2.880  0.2507 -0.4883 -0.0791
18992TIP3   OH278466   2.732   2.881   3.647 -0.2597 -0.2823  1.0654
18992TIP3    H178467   2.639   2.866   3.664 -0.6647  1.1946  0.3417
18992TIP3    H278468   2.736   2.972   3.616  1.3577 -0.4917  0.5841
18993TIP3   OH278469   1.836   4.796  11.497 -0.2729  0.1547  0.5538
18993TIP3    H178470   1.814   4.871  11.552 -0.1559  0.9669 -0.4555
18993TIP3    H278471   1.869   4.836  11.416 -1.5425 -0.9734 -0.5624
18994TIP3   OH278472   0.619   3.615  13.655 -0.3320 -0.3172  0.0437
18994TIP3    H178473   0.565   3.694  13.657 -2.5988 -1.7764  1.2694
18994TIP3    H278474   0.600   3.576  13.570  0.2512  0.0893 -0.2786
18995TIP3   OH278475   4.578   2.684   1.075  0.0748  0.4126  0.2540
18995TIP3    H178476   4.484   2.691   1.061 -0.2066 -2.3838  0.1571
18995TIP3    H278477   4.597   2.743   1.148 -1.7649  0.8518  0.4125
18996TIP3   OH278478   3.699   1.030  12.989 -0.1332  0.5890  0.2708
18996TIP3    H178479   3.683   0.974  12.913 -2.5624  2.7674 -0.9735
18996TIP3    H278480   3.646   0.991  13.058  1.0805 -0.6673  0.5463
18997TIP3   OH278481   1.699   6.758   6.347  0.1948 -0.3298  0.3758
18997TIP3    H178482   1.640   6.819   6.392 -1.4995 -0.0458 -2.0913
18997TIP3    H278483   1.787   6.785   6.375 -0.6727  1.0142  1.9811
18998TIP3   OH278484   5.587   6.057   4.303  0.2846 -0.0240 -0.1624
18998TIP3    H178485   5.521   6.126   4.303 -0.0971 -0.3675  0.7051
18998TIP3    H278486   5.670   6.102   4.318 -0.0584  0.1898  1.2594
18999TIP3   OH278487   6.252   4.580   0.413  0.1891  0.6767  0.7710
18999TIP3    H178488   6.231   4.669   0.388  0.7161  0.5712 -0.0671
18999TIP3    H278489   6.334   4.587   0.462 -0.1008  0.7179  1.2590
19000TIP3   OH278490   6.102   5.248  14.230 -0.0959 -0.6547  0.0443
19000TIP3    H178491   6.189   5.209  14.230 -0.2011 -0.8954  0.4878
19000TIP3    H278492   6.042   5.174  14.235 -0.3241 -0.4853 -0.1374
19001TIP3   OH278493   0.951   0.392  14.353  0.5864  0.0869 -0.3020
19001TIP3    H178494   0.941   0.350  14.438 -1.4935 -0.8314 -0.9423
19001TIP3    H278495   0.930   0.484  14.369  0.6761  0.0141  0.2595
19002TIP3   OH278496   0.780   2.821   1.622 -0.0354  0.0016 -0.5540
19002TIP3    H178497   0.784   2.760   1.549  0.0549  1.4089 -1.7604
19002TIP3    H278498   0.796   2.907   1.583 -0.4286  0.8420  1.0471
19003TIP3   OH278499   0.364   6.561   2.649 -0.0228  0.4124  0.2042
19003TIP3    H178500   0.352   6.631   2.585  1.1296  0.1776 -0.2851
19003TIP3    H278501   0.282   6.512   2.646 -0.2512  0.8225 -0.5835
19004TIP3   OH278502   0.140   0.778  13.155  0.6629 -0.3071  0.4453
19004TIP3    H178503   0.152   0.842  13.085 -0.9560 -0.8619 -0.4002
19004TIP3    H278504   0.069   0.721  13.124  1.2440 -1.7994  1.6777
19005TIP3   OH278505   2.123   0.313  14.605 -0.0992 -0.2298 -0.4736
19005TIP3    H178506   2.135   0.396  14.558  1.2081 -0.6291 -0.8947
19005TIP3    H278507   2.103   0.249  14.536 -0.1261 -0.4413 -0.2705
19006TIP3   OH278508   4.034   5.144   3.266  0.3479  0.0011 -0.0365
19006TIP3    H178509   3.939   5.139   3.262  0.3949 -0.5814 -0.7497
19006TIP3    H278510   4.054   5.176   3.354 -0.5713  2.0896 -0.5275
19007TIP3   OH278511   6.764   5.250  16.782  0.1685  0.0230 -0.2185
19007TIP3    H178512   6.749   5.323  16.722 -0.1240  0.6917  0.6436
19007TIP3    H278513   6.776   5.174  16.725  0.8813  0.8031 -1.1537
19008TIP3   OH278514   5.018   5.999  11.383  0.0556 -0.1918 -0.5672
19008TIP3    H178515   5.016   5.979  11.477 -0.1937 -1.2529 -0.7797
19008TIP3    H278516   5.111   6.008  11.362  0.3713 -3.1353 -0.8100
19009TIP3   OH278517   5.035   1.719   4.464 -0.0682 -0.1684  0.0308
19009TIP3    H178518   5.057   1.707   4.371 -0.2628 -1.6590  0.1646
19009TIP3    H278519   5.076   1.646   4.509 -0.4678  0.2170  1.0586
19010TIP3   OH278520   4.733   3.465   5.430  0.0850 -0.6203  0.0618
19010TIP3    H178521   4.647   3.473   5.389  0.2564  1.1476 -0.0672
19010TIP3    H278522   4.716   3.465   5.524 -0.0071  1.7549  0.1018
19011TIP3   OH278523   0.805   3.992   5.819  0.0985  0.0181  0.2018
19011TIP3    H178524   0.738   4.012   5.753  0.3967  1.4472  0.2923
19011TIP3    H278525   0.876   3.951   5.770  0.3022  1.0304 -0.3896
19012TIP3   OH278526   0.566   1.180   1.353 -0.3016 -0.3862 -0.5305
19012TIP3    H178527   0.497   1.185   1.286  0.2233  0.1802 -1.0438
19012TIP3    H278528   0.582   1.271   1.377  1.6883 -0.3022 -1.9207
19013TIP3   OH278529   0.720   2.633   4.768 -0.3570 -0.4212  0.1423
19013TIP3    H178530   0.663   2.605   4.696  0.1861  1.1304 -0.9367
19013TIP3    H278531   0.805   2.650   4.727  0.7233 -1.9776  1.6041
19014TIP3   OH278532   6.758   3.757  11.061  0.0911  0.2223 -0.3000
19014TIP3    H178533   6.766   3.743  10.967 -0.2772 -3.0415  0.0531
19014TIP3    H278534   6.725   3.847  11.069 -1.1439  0.1532 -3.3360
19015TIP3   OH278535   2.654   0.255   0.598 -0.1897  0.7055  0.0799
19015TIP3    H178536   2.644   0.199   0.675  0.1791 -1.7936 -1.5716
19015TIP3    H278537   2.743   0.289   0.605 -0.0923  0.3491  0.6751
19016TIP3   OH278538   1.421   0.631  17.088 -0.4830  0.9157  0.7141
19016TIP3    H178539   1.440   0.543  17.120 -1.5537  0.4451  0.1072
19016TIP3    H278540   1.505   0.665  17.059 -0.1245 -0.0628  0.5723
19017TIP3   OH278541   6.721   2.383  16.417 -0.0086  0.1410  0.7088
19017TIP3    H178542   6.806   2.384  16.462 -0.0985  0.3394  0.8763
19017TIP3    H278543   6.730   2.448  16.347  1.2768 -2.4443 -1.7470
19018TIP3   OH278544   1.662   6.117  17.196  0.3843 -0.2607  0.1489
19018TIP3    H178545   1.575   6.085  17.170 -0.4252  2.3354 -0.6954
19018TIP3    H278546   1.719   6.093  17.123 -0.0752 -0.2213 -0.2344
19019TIP3   OH278547   0.709   2.565   5.347  0.8193  0.1186 -0.0354
19019TIP3    H178548   0.663   2.488   5.314  0.0396  0.7521 -0.4766
19019TIP3    H278549   0.779   2.580   5.284  0.5194  0.1953 -0.3534
19020TIP3   OH278550   6.699   4.147   3.595  0.0071  0.4151  0.5358
19020TIP3    H178551   6.785   4.187   3.583  0.7773 -1.5943 -1.1044
19020TIP3    H278552   6.680   4.105   3.512 -2.6757  0.9199  0.8020
19021TIP3   OH278553   4.390   6.772  12.912 -0.3702 -0.0685  0.0852
19021TIP3    H178554   4.391   6.822  12.831 -0.9430  0.5336  0.4418
19021TIP3    H278555   4.480   6.739  12.921 -0.3762 -0.3910 -0.9325
19022TIP3   OH278556   6.717   6.819  12.293  0.2175  0.5644 -0.2958
19022TIP3    H178557   6.737   6.906  12.327 -0.6876  0.7779 -0.3082
19022TIP3    H278558   6.704   6.831  12.199 -0.6858  0.5612 -0.1820
19023TIP3   OH278559   4.015   2.701   5.597  0.3395 -0.0095 -0.1690
19023TIP3    H178560   4.098   2.688   5.553  0.8438  1.9326  0.1301
19023TIP3    H278561   3.967   2.619   5.584  1.6149 -0.5268 -1.7998
19024TIP3   OH278562   2.341   3.638  16.792 -0.3263  0.5964  0.1048
19024TIP3    H178563   2.345   3.727  16.756 -0.2386  1.3578  1.8586
19024TIP3    H278564   2.432   3.614  16.807 -0.3962  0.9519  1.2413
19025TIP3   OH278565   3.212   3.576   1.728  0.1337 -0.0498 -0.0286
19025TIP3    H178566   3.183   3.597   1.640  1.1267 -1.2942 -0.6793
19025TIP3    H278567   3.264   3.496   1.719 -0.4338 -0.6866  1.8078
19026TIP3   OH278568   5.333   5.130   2.633 -0.0887 -0.0994 -0.6448
19026TIP3    H178569   5.316   5.191   2.561 -0.1640  1.6742  0.8042
19026TIP3    H278570   5.427   5.113   2.628 -0.3650 -1.4701 -2.2159
19027TIP3   OH278571   2.795   1.976  15.386  0.0318  0.0766 -0.5233
19027TIP3    H178572   2.716   1.982  15.441 -0.5819 -0.2328 -1.3584
19027TIP3    H278573   2.867   1.973  15.449 -0.7579 -2.7029  0.4100
19028TIP3   OH278574   5.056   3.813  12.645  0.5496  0.1501 -0.0932
19028TIP3    H178575   5.124   3.850  12.589  0.1520  0.6980 -0.2230
19028TIP3    H278576   5.077   3.847  12.732  0.4978  0.2409 -0.1161
19029TIP3   OH278577   5.605   1.645  15.386 -0.5437  0.2635 -0.6730
19029TIP3    H178578   5.542   1.694  15.440 -1.3066 -1.0617 -0.3220
19029TIP3    H278579   5.659   1.599  15.450  0.4208  0.9288 -0.9918
19030TIP3   OH278580   0.959   2.620   2.616 -0.1127 -0.0945  0.2827
19030TIP3    H178581   0.989   2.617   2.525  0.2375 -3.3713  0.3738
19030TIP3    H278582   0.869   2.589   2.613 -0.6361  1.2623  0.9547
19031TIP3   OH278583   0.426   0.056  15.346 -0.2508  0.0734 -0.0173
19031TIP3    H178584   0.338   0.036  15.378 -0.4685 -0.2363 -0.7844
19031TIP3    H278585   0.425   0.027  15.255  0.4595  0.6234 -0.2031
19032TIP3   OH278586   1.959   4.200  10.667 -1.0245  0.3647 -0.4853
19032TIP3    H178587   1.973   4.110  10.695 -0.2684  0.3087 -1.0060
19032TIP3    H278588   2.037   4.247  10.696 -1.5067  0.9040 -0.0313
19033TIP3   OH278589   2.013   4.355   5.342 -0.2454 -0.5660 -0.1862
19033TIP3    H178590   2.001   4.389   5.431 -2.5437  0.8314 -0.9219
19033TIP3    H278591   1.974   4.267   5.344 -2.3837  0.3120 -0.2528
19034TIP3   OH278592   2.249   4.499   2.337 -0.3342  0.0140 -0.1984
19034TIP3    H178593   2.229   4.482   2.245  0.5061  0.7159 -0.5278
19034TIP3    H278594   2.216   4.587   2.353  1.8691  0.9806 -0.6084
19035TIP3   OH278595   1.210   2.341   4.419 -0.2537 -0.8565  0.5644
19035TIP3    H178596   1.161   2.392   4.354  0.9263 -2.9037 -2.1169
19035TIP3    H278597   1.200   2.391   4.500 -2.1452  1.6702 -1.0461
19036TIP3   OH278598   6.689   0.516  17.059  0.0940  0.6585 -0.1719
19036TIP3    H178599   6.741   0.572  17.117 -2.5848  2.1784  0.9374
19036TIP3    H278600   6.687   0.562  16.976 -2.3718  2.5844  0.8228
19037TIP3   OH278601   2.905   5.986  13.106  0.7401  0.0278 -0.0790
19037TIP3    H178602   2.986   5.969  13.155 -0.3784 -0.9880  1.4946
19037TIP3    H278603   2.838   5.933  13.150 -1.1363  2.0465 -0.3455
19038TIP3   OH278604   3.694   1.980   0.356 -0.1627  0.2376 -0.5349
19038TIP3    H178605   3.652   1.997   0.440 -0.0363  0.5213 -0.5256
19038TIP3    H278606   3.737   2.063   0.334  0.3535 -0.0380 -0.5659
19039TIP3   OH278607   2.236   4.087   5.636  0.0348  0.5486  0.8431
19039TIP3    H178608   2.268   3.997   5.632  0.2406  0.6707 -1.7048
19039TIP3    H278609   2.240   4.109   5.729  0.3717 -1.9138  1.4897
19040TIP3   OH278610   2.882   4.480   3.779  0.3730  0.0694  0.3973
19040TIP3    H178611   2.970   4.501   3.746  0.5600 -0.8800  0.2781
19040TIP3    H278612   2.893   4.402   3.833 -0.7974 -1.9946 -2.0745
19041TIP3   OH278613   2.310   4.898   4.422  0.0060 -0.4122  0.1848
19041TIP3    H178614   2.356   4.840   4.483  0.6832 -0.1221 -0.0311
19041TIP3    H278615   2.318   4.855   4.337  0.3086 -0.1305  0.0653
19042TIP3   OH278616   3.418   2.621  15.166  0.1612  0.1600  0.6398
19042TIP3    H178617   3.324   2.621  15.150  0.3515  2.1418 -0.9512
19042TIP3    H278618   3.456   2.592  15.083  0.9859  2.3191  0.1985
19043TIP3   OH278619   4.447   0.696   1.732  0.3383  0.2401  0.2269
19043TIP3    H178620   4.459   0.631   1.801  2.9361  0.2954 -0.0603
19043TIP3    H278621   4.394   0.765   1.773  0.8880 -0.2407  1.8197
19044TIP3   OH278622   6.210   1.668  12.109 -0.4675 -0.4056 -0.0381
19044TIP3    H178623   6.236   1.588  12.063  0.0435 -0.1237 -0.2391
19044TIP3    H278624   6.126   1.646  12.149  0.2108 -1.4224  0.8710
19045TIP3   OH278625   3.246   3.876  14.844 -0.1362  0.1477 -0.0083
19045TIP3    H178626   3.209   3.858  14.757 -1.8920  0.4105  0.6486
19045TIP3    H278627   3.277   3.967  14.838 -0.5864  0.2873 -0.2497
19046TIP3   OH278628   5.514   3.032   3.226 -0.1142 -0.4094  0.9140
19046TIP3    H178629   5.581   2.964   3.235  1.8016  1.5306  2.1782
19046TIP3    H278630   5.509   3.072   3.313 -1.7680  0.5510  0.4148
19047TIP3   OH278631   0.093   0.766   2.480  0.4646 -0.0859 -0.0547
19047TIP3    H178632   0.041   0.693   2.515 -0.7484 -0.2088 -1.9594
19047TIP3    H278633   0.121   0.814   2.558 -0.2416 -1.5441  1.1723
19048TIP3   OH278634   6.739   5.941  17.223 -0.4663 -0.1029  0.0456
19048TIP3    H178635   6.790   5.976  17.150  0.7040  0.5707  1.1304
19048TIP3    H278636   6.685   6.014  17.252 -0.4143 -0.1548  0.2781
19049TIP3   OH278637   6.206   4.720  12.135  0.1450 -0.0261 -0.0975
19049TIP3    H178638   6.260   4.799  12.139  0.9414 -0.6220  2.6709
19049TIP3    H278639   6.139   4.734  12.201 -0.7939 -0.9689 -0.8140
19050TIP3   OH278640   2.934   0.213   2.746 -0.1033  0.1540  0.0489
19050TIP3    H178641   2.988   0.281   2.785 -1.0608  0.7009  0.4516
19050TIP3    H278642   2.868   0.261   2.696  0.0674 -0.5079 -0.8455
19051TIP3   OH278643   4.285   2.056   3.694  0.0120 -0.3052 -0.0921
19051TIP3    H178644   4.358   2.078   3.637  0.5366 -0.2347  0.5847
19051TIP3    H278645   4.320   1.989   3.753 -0.1473  0.4425  0.8962
19052TIP3   OH278646   1.245   5.657  16.015  0.0170  0.4277  0.9220
19052TIP3    H178647   1.323   5.710  16.025 -0.2934  1.3324 -0.9968
19052TIP3    H278648   1.277   5.573  15.981  0.2407  0.4899  0.9803
19053TIP3   OH278649   2.151   0.664   0.732  0.4526  0.4005 -0.3421
19053TIP3    H178650   2.076   0.679   0.674  0.3558  0.1140 -0.2929
19053TIP3    H278651   2.190   0.750   0.744 -0.8737  0.8464  1.0255
19054TIP3   OH278652   5.202   1.166   0.750 -0.3369  0.5349 -0.2098
19054TIP3    H178653   5.213   1.149   0.843 -2.1236  0.0083 -0.0577
19054TIP3    H278654   5.276   1.222   0.727 -1.0053  2.4937  2.0201
19055TIP3   OH278655   2.178   4.752   3.921 -0.7078  0.0450  0.2160
19055TIP3    H178656   2.231   4.685   3.877  0.6161  0.6854  0.7879
19055TIP3    H278657   2.127   4.791   3.851  0.8856  0.6036 -0.6894
19056TIP3   OH278658   4.661   2.776   3.824 -0.1062  0.0496  0.0237
19056TIP3    H178659   4.631   2.862   3.854 -1.1758 -0.4372  0.3891
19056TIP3    H278660   4.655   2.780   3.729  0.6240  0.6404 -0.0122
19057TIP3   OH278661   2.169   3.403   3.308 -0.4037  0.5259 -0.0243
19057TIP3    H178662   2.212   3.437   3.229  1.2574 -0.0681  0.5849
19057TIP3    H278663   2.187   3.469   3.375 -0.5317  0.3114  0.2205
19058TIP3   OH278664   0.159   0.193  12.220  0.2355  0.1187  0.3847
19058TIP3    H178665   0.233   0.149  12.179 -0.2651  1.7180 -2.5324
19058TIP3    H278666   0.097   0.209  12.149 -1.4749  1.7277  2.0844
19059TIP3   OH278667   1.822   2.367   2.708  0.0045  0.2885 -0.0485
19059TIP3    H178668   1.843   2.458   2.731 -0.4128  0.6670 -1.0864
19059TIP3    H278669   1.799   2.371   2.615  1.5256 -1.1366 -0.5292
19060TIP3   OH278670   6.488   1.771  13.434 -0.3833 -0.2310  0.5642
19060TIP3    H178671   6.577   1.754  13.401 -0.1919 -1.4113  1.6096
19060TIP3    H278672   6.483   1.721  13.516 -1.9754 -0.0948  0.5785
19061TIP3   OH278673   5.145   5.743  17.118  0.0986 -0.2249  0.7356
19061TIP3    H178674   5.181   5.800  17.187  1.4440 -0.4792  0.2869
19061TIP3    H278675   5.109   5.669  17.166  1.0572 -0.4225  1.1947
19062TIP3   OH278676   5.078   6.336   1.020  0.0892 -0.1941 -0.4502
19062TIP3    H178677   4.992   6.327   0.978  0.1888 -0.4169 -0.6080
19062TIP3    H278678   5.128   6.262   0.988  0.1529 -0.3993  0.1071
19063TIP3   OH278679   0.048   0.430  12.561 -0.5639 -0.9539  1.1422
19063TIP3    H178680   0.121   0.492  12.566  0.2912 -1.8426  0.0412
19063TIP3    H278681  -0.026   0.479  12.596 -0.5527  1.7063 -2.0545
19064TIP3   OH278682   5.367   5.147   3.395  0.2293 -0.3817  0.0214
19064TIP3    H178683   5.329   5.075   3.344  0.0429 -0.8684  0.8435
19064TIP3    H278684   5.428   5.105   3.454 -0.5134  0.0344  1.1128
19065TIP3   OH278685   4.909   6.400  13.508 -0.5695  0.3655 -0.1785
19065TIP3    H178686   5.003   6.395  13.525 -0.7610 -0.0437  0.8543
19065TIP3    H278687   4.877   6.312  13.527 -1.4202  0.9450  1.2347
19066TIP3   OH278688   5.038   0.747   6.353 -1.0336 -0.3563  0.2543
19066TIP3    H178689   5.112   0.730   6.294 -0.0199 -0.9210  1.6466
19066TIP3    H278690   4.972   0.684   6.325 -1.2465  0.5178 -1.3690
19067TIP3   OH278691   6.191   4.823   3.306 -0.3388  0.0740  0.5270
19067TIP3    H178692   6.244   4.855   3.379  0.8530 -1.0644  0.2200
19067TIP3    H278693   6.105   4.805   3.344 -0.8962  2.9304  0.8294
19068TIP3   OH278694   6.045   2.022   4.078  0.1447  0.0643  0.2528
19068TIP3    H178695   6.089   2.106   4.086  0.6896 -0.3301  1.6684
19068TIP3    H278696   5.979   2.022   4.148  0.0966 -0.6531  0.2227
19069TIP3   OH278697   2.111   6.783  12.169 -0.0915 -0.6004  0.3952
19069TIP3    H178698   2.177   6.725  12.132 -0.4807 -0.6676 -0.2045
19069TIP3    H278699   2.049   6.797  12.098  0.0666  0.6614  0.4867
19070TIP3   OH278700   0.499   3.226   6.229 -0.2920 -0.0309  0.0228
19070TIP3    H178701   0.587   3.259   6.208 -0.0536 -0.8324 -0.2884
19070TIP3    H278702   0.502   3.207   6.322 -0.0543 -0.2946 -0.0381
19071TIP3   OH278703   3.681   5.839  14.373 -0.4165 -0.3258  0.3947
19071TIP3    H178704   3.711   5.871  14.287  0.3628  1.1064  1.1524
19071TIP3    H278705   3.708   5.908  14.434 -2.1441 -0.6872  1.6231
19072TIP3   OH278706   4.245   3.642  16.275 -0.3651 -0.1935  0.2807
19072TIP3    H178707   4.194   3.711  16.316  0.8108  0.3453  0.8854
19072TIP3    H278708   4.188   3.607  16.206 -2.0300 -0.5154  1.7699
19073TIP3   OH278709   0.593   5.535  16.208 -0.1497 -0.5247  0.2827
19073TIP3    H178710   0.688   5.524  16.202  0.1279  1.6771 -0.1367
19073TIP3    H278711   0.567   5.573  16.124 -1.2313 -0.1256  0.7639
19074TIP3   OH278712   6.440   4.911   1.363 -0.0490  0.4926  0.6167
19074TIP3    H178713   6.359   4.949   1.398  0.0801  1.4142 -0.0474
19074TIP3    H278714   6.488   4.881   1.440 -1.2670 -0.6003  0.9937
19075TIP3   OH278715   2.181   3.439   1.910 -0.3460 -0.7309  0.4882
19075TIP3    H178716   2.276   3.437   1.924 -0.5293 -1.0839  1.7439
19075TIP3    H278717   2.172   3.452   1.815  0.9484  0.1045  0.4446
19076TIP3   OH278718   5.589   6.307  11.837  0.3240  0.4158  0.3499
19076TIP3    H178719   5.666   6.271  11.882 -0.9435 -0.5733  1.8318
19076TIP3    H278720   5.560   6.379  11.894 -0.6801 -0.1640  0.5853
19077TIP3   OH278721   6.767   5.184  11.315  0.5121 -0.4726  0.6718
19077TIP3    H178722   6.847   5.235  11.300  0.6032 -1.0374 -1.0363
19077TIP3    H278723   6.796   5.106  11.361  1.1078 -1.0488 -0.6334
19078TIP3   OH278724   4.771   1.221   2.977  0.3141 -0.3825 -0.7602
19078TIP3    H178725   4.806   1.310   2.981 -1.4997  0.3076  1.2012
19078TIP3    H278726   4.698   1.226   2.916 -0.1271 -0.3695 -0.2428
19079TIP3   OH278727   2.543   0.462   2.073 -0.0722  0.3153  0.3547
19079TIP3    H178728   2.457   0.440   2.037  0.4833 -0.3182 -0.6379
19079TIP3    H278729   2.560   0.392   2.136  0.7864 -1.0343 -1.2912
19080TIP3   OH278730   4.123   5.007   0.332 -0.0644 -0.3367  0.2002
19080TIP3    H178731   4.125   5.035   0.241 -1.3168 -1.3708 -0.1752
19080TIP3    H278732   4.122   5.089   0.382  0.7686  0.2389 -0.6908
19081TIP3   OH278733   5.080   2.161  12.790 -0.3301  0.5720  0.0953
19081TIP3    H178734   5.108   2.232  12.847 -0.6140  0.3037  0.5777
19081TIP3    H278735   5.161   2.125  12.755 -0.1574  0.8075  0.2485
19082TIP3   OH278736   4.492   3.774  16.266  0.1939  0.2280 -0.1833
19082TIP3    H178737   4.449   3.842  16.318 -1.8423 -0.0470 -1.3692
19082TIP3    H278738   4.425   3.707  16.254  1.3076 -0.7434 -1.2779
19083TIP3   OH278739   5.008   0.924   4.407 -0.3157 -0.3338 -0.5390
19083TIP3    H178740   4.978   1.009   4.375 -0.8590 -0.0925  0.5584
19083TIP3    H278741   5.063   0.945   4.482  1.6595 -0.8384 -1.7707
19084TIP3   OH278742   0.852   3.489  15.051  0.2569  0.3781  0.3400
19084TIP3    H178743   0.944   3.498  15.075  0.3164  2.2125 -0.4495
19084TIP3    H278744   0.804   3.524  15.126  0.1226 -1.1823  1.0387
19085TIP3   OH278745   2.905   5.271  15.395 -0.0573  0.0399 -0.1383
19085TIP3    H178746   2.890   5.176  15.393 -1.1416  0.1638  1.1778
19085TIP3    H278747   2.985   5.282  15.445 -0.4451 -0.1488  0.5411
19086TIP3   OH278748   1.933   3.065   3.843 -0.1561  0.3008 -0.2927
19086TIP3    H178749   1.976   3.042   3.925  0.4688  0.0831 -0.6718
19086TIP3    H278750   1.966   3.153   3.823 -1.8036  1.1869  0.6650
19087TIP3   OH278751   2.037   3.511   1.153  0.2356  0.1300 -0.4102
19087TIP3    H178752   2.062   3.486   1.064  2.6372  0.0931  0.2066
19087TIP3    H278753   2.077   3.597   1.166  1.3916 -0.5878  1.1582
19088TIP3   OH278754   5.572   4.011  15.466  0.0466 -0.0528 -0.7535
19088TIP3    H178755   5.532   3.971  15.389 -1.1525 -1.1306  0.3925
19088TIP3    H278756   5.650   3.958  15.483  0.5166  0.4109 -1.4222
19089TIP3   OH278757   2.965   2.919  16.969 -0.1156  0.4262  0.6409
19089TIP3    H178758   2.908   2.850  16.938  1.3469 -0.7327  0.3978
19089TIP3    H278759   3.054   2.889  16.947  0.6762  1.6335  1.9757
19090TIP3   OH278760   1.608   5.229   5.869  0.6885  0.1830  0.5993
19090TIP3    H178761   1.688   5.263   5.909  0.4037 -0.6027  1.9242
19090TIP3    H278762   1.636   5.151   5.821  0.7061 -0.2093  1.2343
19091TIP3   OH278763   1.193   5.637   3.385  0.4044  0.3201  0.2053
19091TIP3    H178764   1.133   5.652   3.313  0.1719 -0.8600  0.1345
19091TIP3    H278765   1.279   5.660   3.350  0.4860 -1.5918 -0.9321
19092TIP3   OH278766   1.747   3.608   6.360 -0.1877 -0.3590  0.2379
19092TIP3    H178767   1.833   3.609   6.402  0.2136 -0.8375 -0.5504
19092TIP3    H278768   1.755   3.669   6.287 -0.7356  0.1106  0.5587
19093TIP3   OH278769   2.000   2.811  16.523 -0.1684  0.0548  0.4603
19093TIP3    H178770   2.014   2.879  16.589  0.0422  0.3637  0.1029
19093TIP3    H278771   2.085   2.803  16.480 -0.1118 -0.6477  0.6981
19094TIP3   OH278772   5.659   2.246   6.163  0.1573  0.0376  0.5258
19094TIP3    H178773   5.625   2.210   6.244 -1.0029 -0.2024 -0.0443
19094TIP3    H278774   5.685   2.170   6.111  0.6329  0.1741  0.5632
19095TIP3   OH278775   3.806   2.166   4.534 -0.3173  0.1939 -0.0118
19095TIP3    H178776   3.829   2.074   4.535 -0.2697  0.1793 -1.1246
19095TIP3    H278777   3.723   2.171   4.582 -0.6972 -0.5350 -0.5892
19096TIP3   OH278778   3.148   1.136   6.030  0.4813 -0.6885  0.0286
19096TIP3    H178779   3.119   1.201   6.094 -0.4990 -0.7806 -0.3093
19096TIP3    H278780   3.236   1.163   6.006 -0.0511  0.7453 -0.3937
19097TIP3   OH278781   5.553   5.109  13.511 -0.9570 -0.4368 -0.4390
19097TIP3    H178782   5.587   5.020  13.517 -3.2216 -1.4779 -1.7131
19097TIP3    H278783   5.477   5.110  13.568 -0.6983  0.8434 -0.0886
19098TIP3   OH278784   0.763   5.952  11.433 -0.3129 -0.1806  0.4570
19098TIP3    H178785   0.678   5.992  11.450 -0.1398  0.2680  0.2757
19098TIP3    H278786   0.776   5.892  11.507  0.1040  1.2015  1.5515
19099TIP3   OH278787   2.732   2.982   1.868 -0.4966 -0.8911 -0.6859
19099TIP3    H178788   2.787   2.993   1.945  0.9447 -0.3148 -1.7595
19099TIP3    H278789   2.643   2.973   1.903  0.0263  0.0901  1.0012
19100TIP3   OH278790   5.433   5.829  14.451  0.4833  0.4924  0.2443
19100TIP3    H178791   5.475   5.785  14.377  0.9281  1.1353  0.1082
19100TIP3    H278792   5.375   5.763  14.489 -1.2106  0.6867 -1.8171
19101TIP3   OH278793   4.047   4.650   0.589 -0.2137 -0.3536  0.2715
19101TIP3    H178794   4.081   4.653   0.679 -0.7088  1.0896  0.4437
19101TIP3    H278795   3.962   4.694   0.595 -0.7949 -1.3055 -0.6937
19102TIP3   OH278796   3.103   0.103  13.845 -0.6123  0.0070  0.0998
19102TIP3    H178797   3.053   0.112  13.926 -2.5128  1.5518 -1.1667
19102TIP3    H278798   3.173   0.169  13.853 -1.6580  1.1736 -0.0884
19103TIP3   OH278799   3.659   4.135   1.826 -0.0024 -0.1443 -0.1216
19103TIP3    H178800   3.707   4.138   1.743  0.9045 -0.3317  0.3869
19103TIP3    H278801   3.591   4.202   1.816  1.6724  1.6640 -0.0819
19104TIP3   OH278802   6.689   2.457  13.286 -0.4635  0.2248  0.3575
19104TIP3    H178803   6.710   2.378  13.236 -0.2920 -1.2633  2.6092
19104TIP3    H278804   6.611   2.492  13.244 -0.1959 -0.8042 -1.0621
19105TIP3   OH278805   5.241   0.484   2.463  0.1230 -0.0505 -0.1050
19105TIP3    H178806   5.168   0.493   2.401  0.0362  2.1582  0.2271
19105TIP3    H278807   5.312   0.447   2.411 -0.8809 -1.1653 -0.7232
19106TIP3   OH278808   0.976   6.290  14.680 -0.2001 -0.0799 -0.3377
19106TIP3    H178809   0.971   6.382  14.703 -0.2724  0.0233 -0.7595
19106TIP3    H278810   1.060   6.260  14.716 -0.2668  0.0998 -0.0330
19107TIP3   OH278811   1.835   2.036   5.890  0.4946  0.2312  0.2137
19107TIP3    H178812   1.882   2.004   5.967  0.7453  2.6133  1.1291
19107TIP3    H278813   1.757   2.078   5.925 -0.2412 -0.0820 -0.9903
19108TIP3   OH278814   4.370   1.235  14.375  0.0164 -0.3944 -0.2702
19108TIP3    H178815   4.401   1.183  14.449  1.6980  1.7997  0.6702
19108TIP3    H278816   4.448   1.283  14.346 -1.6239  2.3098 -0.4472
19109TIP3   OH278817   2.472   5.145  15.289 -0.2621 -0.6575 -0.3166
19109TIP3    H178818   2.481   5.141  15.384  1.1533  0.0817 -0.3866
19109TIP3    H278819   2.531   5.077  15.256  2.1196  1.4516 -0.7086
19110TIP3   OH278820   4.656   6.015  17.256 -0.3570 -0.0591 -0.2490
19110TIP3    H178821   4.673   6.049  17.344 -0.4210 -0.8124  0.0596
19110TIP3    H278822   4.683   5.923  17.260 -2.6095 -0.7832 -0.2994
19111TIP3   OH278823   1.830   6.795   0.942  0.0803  0.0661 -0.1673
19111TIP3    H178824   1.839   6.845   1.022  0.3461 -0.7145  0.3035
19111TIP3    H278825   1.912   6.746   0.934 -0.3851 -0.7191 -0.3034
19112TIP3   OH278826   3.353   5.552  12.404 -0.1535  0.0460 -0.0839
19112TIP3    H178827   3.344   5.593  12.318 -2.9555  1.6443  0.8122
19112TIP3    H278828   3.273   5.577  12.451  0.4015 -2.2734  2.3855
19113TIP3   OH278829   3.669   1.755   3.569 -0.0024 -0.1222  0.5727
19113TIP3    H178830   3.595   1.810   3.596 -1.1187 -2.1572  1.9237
19113TIP3    H278831   3.632   1.667   3.562  2.2227 -1.1422  0.8561
19114TIP3   OH278832   5.851   3.654   3.917  0.2301 -0.2758  0.1389
19114TIP3    H178833   5.772   3.621   3.959 -0.8299  1.6793 -0.2080
19114TIP3    H278834   5.908   3.680   3.990  0.6758 -1.8823  0.3919
19115TIP3   OH278835   2.974   3.287  13.448  0.2885  0.1158  0.4734
19115TIP3    H178836   3.017   3.205  13.422  1.7890  1.0917 -0.3291
19115TIP3    H278837   2.917   3.309  13.374 -1.5053 -1.0611  1.4411
19116TIP3   OH278838   0.835   3.413   2.315  0.0322 -0.1495  0.2050
19116TIP3    H178839   0.813   3.401   2.407  0.2531 -1.2457  0.1297
19116TIP3    H278840   0.828   3.326   2.277  0.9155  0.1063 -0.5986
19117TIP3   OH278841   1.618   3.126  12.920  0.4532 -0.2035 -0.7484
19117TIP3    H178842   1.549   3.192  12.916 -0.0393 -0.7451 -1.8193
19117TIP3    H278843   1.637   3.116  13.013  0.1667  1.0463 -0.5365
19118TIP3   OH278844   6.077   5.335  13.439  0.1332 -0.1244  0.5036
19118TIP3    H178845   6.103   5.272  13.373  0.7749  0.7336 -0.0917
19118TIP3    H278846   6.158   5.357  13.486 -0.1692 -0.1066  1.0310
19119TIP3   OH278847   5.600   6.274  13.828  0.1731 -0.4602 -0.0204
19119TIP3    H178848   5.567   6.285  13.739 -0.4398 -0.1458  0.2385
19119TIP3    H278849   5.679   6.326  13.831 -1.2837  1.8605  0.4129
19120TIP3   OH278850   3.673   4.731  16.490  0.3084 -0.1092 -0.4887
19120TIP3    H178851   3.706   4.821  16.490 -1.7191  0.7619  1.9813
19120TIP3    H278852   3.688   4.700  16.401 -1.7799  3.7944 -2.4733
19121TIP3   OH278853   6.197   1.832  12.997  0.9718 -0.3759 -0.4835
19121TIP3    H178854   6.289   1.829  13.023  0.9637  1.1715 -0.1624
19121TIP3    H278855   6.150   1.807  13.077  1.1150 -1.5787 -0.7666
19122TIP3   OH278856   4.890   5.279  14.165  0.2399  0.1800 -0.4989
19122TIP3    H178857   4.977   5.319  14.160 -0.2011  1.3296  0.5970
19122TIP3    H278858   4.847   5.304  14.084  0.0214  1.8760  0.0964
19123TIP3   OH278859   0.520   3.454  13.447  0.2220 -0.3109  0.1900
19123TIP3    H178860   0.450   3.392  13.466 -0.6058  1.0831  2.0195
19123TIP3    H278861   0.477   3.529  13.406  0.7221  0.2816  0.7147
19124TIP3   OH278862   0.483   2.555   1.931  0.2727 -0.1454  0.1203
19124TIP3    H178863   0.550   2.530   1.995  0.6291  1.7967  0.5789
19124TIP3    H278864   0.463   2.646   1.952 -2.2957 -0.5507 -0.2291
19125TIP3   OH278865   0.979   2.300  12.705  0.1338 -0.4762 -0.5149
19125TIP3    H178866   0.954   2.381  12.660 -0.0948 -0.6859 -0.7754
19125TIP3    H278867   0.923   2.297  12.783 -1.8855 -1.7333 -1.8966
19126TIP3   OH278868   4.369   1.571  17.061 -0.3813 -0.0151  0.6311
19126TIP3    H178869   4.294   1.630  17.066 -0.5884 -0.2658  0.5230
19126TIP3    H278870   4.331   1.483  17.063 -0.2224 -0.1589 -1.1058
19127TIP3   OH278871   4.427   1.850  11.255  0.3432 -0.2907  0.0105
19127TIP3    H178872   4.434   1.945  11.264 -1.0265 -0.2581  0.9970
19127TIP3    H278873   4.399   1.837  11.164 -0.6687  0.3372  0.2154
19128TIP3   OH278874   5.204   5.584   5.524  0.5461 -0.6645 -0.4873
19128TIP3    H178875   5.259   5.575   5.446  1.6010  0.1654  0.1221
19128TIP3    H278876   5.220   5.674   5.553  2.2954 -1.7097  2.1729
19129TIP3   OH278877   3.048   4.434  17.183 -0.1738 -0.1201  0.3155
19129TIP3    H178878   2.954   4.419  17.174 -0.3783  1.0144  0.3019
19129TIP3    H278879   3.086   4.399  17.103 -0.7351  0.4132 -0.1999
19130TIP3   OH278880   0.583   1.739   1.957  0.4322 -0.0352  0.3717
19130TIP3    H178881   0.488   1.729   1.957  0.2886  1.1730 -0.3311
19130TIP3    H278882   0.605   1.757   1.865  1.3628 -0.4761  0.4993
19131TIP3   OH278883   0.468   5.279  16.286 -0.2479  0.1813  0.1277
19131TIP3    H178884   0.410   5.290  16.211 -0.5847  2.9064  0.6743
19131TIP3    H278885   0.543   5.335  16.266  0.6912 -0.7838  0.8634
19132TIP3   OH278886   4.223   1.137   3.045 -0.5000 -0.0383 -0.2813
19132TIP3    H178887   4.244   1.197   2.973  1.2800 -0.4773 -0.1818
19132TIP3    H278888   4.246   1.185   3.124  2.9341 -1.4309 -0.2605
19133TIP3   OH278889   2.004   1.826  11.918 -1.0142  0.0275  0.0048
19133TIP3    H178890   1.975   1.787  12.001 -1.2290 -0.3921 -0.2648
19133TIP3    H278891   2.055   1.903  11.945 -1.7877  0.3775  0.5006
19134TIP3   OH278892   3.276   4.135   5.452  0.3895  0.1199  0.2131
19134TIP3    H178893   3.332   4.189   5.508  3.2484 -0.4040 -1.9328
19134TIP3    H278894   3.250   4.192   5.380 -1.1131  0.0719  0.6745
19135TIP3   OH278895   2.796   1.629  15.311 -0.3529  0.4120 -0.0391
19135TIP3    H178896   2.856   1.688  15.267  1.1534 -1.8595 -1.2489
19135TIP3    H278897   2.774   1.563  15.245  0.5364 -2.1333  2.0106
19136TIP3   OH278898   2.920   2.783  13.957 -0.3163  0.5744  0.1394
19136TIP3    H178899   2.903   2.773  14.050 -1.0290  1.4849  0.1198
19136TIP3    H278900   2.833   2.780  13.916 -0.0051  0.0929 -0.5025
19137TIP3   OH278901   5.314   6.420  17.114  0.5540 -0.2841 -0.0286
19137TIP3    H178902   5.373   6.347  17.130  2.1116  1.1034  0.7193
19137TIP3    H278903   5.371   6.495  17.096 -0.9546  1.1391  0.8355
19138TIP3   OH278904   5.966   6.363   0.821  0.5292  0.2055 -0.0485
19138TIP3    H178905   5.890   6.319   0.783 -1.1342  2.4728  0.4001
19138TIP3    H278906   6.002   6.414   0.749 -0.2508  1.4541  0.4056
19139TIP3   OH278907   4.373   0.654  11.310  0.2700 -0.4647 -0.4560
19139TIP3    H178908   4.345   0.700  11.231 -0.0741  1.4286  0.7184
19139TIP3    H278909   4.369   0.561  11.286 -2.1823 -0.0685 -1.9014
19140TIP3   OH278910   0.984   4.666   4.607  0.0696 -0.1414  0.2770
19140TIP3    H178911   0.907   4.693   4.556 -0.0102  2.0568  1.4431
19140TIP3    H278912   1.058   4.679   4.547 -0.2167  0.4110  0.0348
19141TIP3   OH278913   3.244   0.813  13.584  0.5947  0.4276  0.0714
19141TIP3    H178914   3.311   0.751  13.557 -0.2852 -0.4303 -0.1829
19141TIP3    H278915   3.291   0.878  13.637  1.3991 -0.9060  1.0447
19142TIP3   OH278916   6.361   3.837   1.304 -0.0263  0.1722  0.5235
19142TIP3    H178917   6.416   3.895   1.252 -0.4709  0.2204  0.1006
19142TIP3    H278918   6.367   3.872   1.393 -0.8202  1.2944  0.1615
19143TIP3   OH278919   0.356   1.147  11.361 -0.3266  0.5813  0.2599
19143TIP3    H178920   0.346   1.243  11.361 -1.9522  0.5126  2.8432
19143TIP3    H278921   0.279   1.115  11.315  0.7133  0.4752 -1.4851
19144TIP3   OH278922   5.620   0.097  13.777  0.1627 -0.5156  0.3965
19144TIP3    H178923   5.696   0.095  13.836 -0.0955  2.4299  0.9468
19144TIP3    H278924   5.546   0.074  13.834  0.3334 -1.0367  0.4134
19145TIP3   OH278925   5.363   1.695  11.246  0.0457 -0.1396  0.1563
19145TIP3    H178926   5.269   1.686  11.235 -0.3196 -0.7631  2.9910
19145TIP3    H278927   5.387   1.772  11.194 -1.5846 -1.2178 -2.3813
19146TIP3   OH278928   1.001   3.994   1.449 -0.0167  0.7936 -0.0591
19146TIP3    H178929   0.967   4.078   1.417 -3.2227  0.5632  2.1982
19146TIP3    H278930   1.089   4.013   1.480 -0.0733  2.9360 -1.0647
19147TIP3   OH278931   4.783   3.477  12.172 -0.0341 -0.3325  0.7073
19147TIP3    H178932   4.879   3.484  12.169 -0.0551 -0.4445 -0.6049
19147TIP3    H278933   4.754   3.564  12.199  0.4143 -0.1853  0.7294
19148TIP3   OH278934   4.061   1.109  14.799 -0.2157  0.3334 -0.3559
19148TIP3    H178935   4.141   1.083  14.754  1.5321  1.8311  1.6468
19148TIP3    H278936   4.034   1.032  14.848 -0.7867 -0.5678 -2.0084
19149TIP3   OH278937   0.912   4.530  16.629 -0.8799  0.6244 -0.5053
19149TIP3    H178938   0.959   4.473  16.690 -1.9214  1.2376  0.9181
19149TIP3    H278939   0.880   4.471  16.561 -2.0415 -0.5545  0.9918
19150TIP3   OH278940   1.529   0.777   1.262  0.4841 -0.4109  0.0593
19150TIP3    H178941   1.478   0.730   1.328  1.7796 -1.1946  0.5332
19150TIP3    H278942   1.474   0.852   1.238 -0.2381 -0.3949  1.6416
19151TIP3   OH278943   2.624   6.260  11.773 -0.8448  0.0739 -0.1780
19151TIP3    H178944   2.581   6.294  11.852 -0.2480  0.7119 -0.1172
19151TIP3    H278945   2.706   6.224  11.805 -0.9292 -0.3329 -0.4136
19152TIP3   OH278946   0.770   0.511   4.643  0.1461  0.2344  0.1774
19152TIP3    H178947   0.790   0.595   4.601 -0.4784  0.8125  0.9835
19152TIP3    H278948   0.742   0.454   4.571 -1.2197  1.2972 -0.1808
19153TIP3   OH278949   0.224   3.319   0.974  0.2042  0.0260  0.4854
19153TIP3    H178950   0.207   3.341   0.883 -0.9280 -0.0916  0.6528
19153TIP3    H278951   0.245   3.225   0.973  2.0085  0.3870  0.1502
19154TIP3   OH278952   6.669   1.312   3.937  0.1873  0.0770  0.2289
19154TIP3    H178953   6.755   1.273   3.952  1.0037  1.5183 -0.4552
19154TIP3    H278954   6.673   1.396   3.983 -0.4470  0.6404 -0.7176
19155TIP3   OH278955   1.428   4.972   2.715  0.1190  0.0611  0.2420
19155TIP3    H178956   1.463   4.899   2.663  1.6508  0.5609  0.5285
19155TIP3    H278957   1.412   5.042   2.652  0.4349  0.1182  0.2266
19156TIP3   OH278958   5.456   2.156  16.566 -0.0542  0.2545 -0.2568
19156TIP3    H178959   5.397   2.188  16.635  0.6573  0.2481  0.3602
19156TIP3    H278960   5.529   2.116  16.613 -0.2834 -1.1126 -1.0123
19157TIP3   OH278961   1.598   6.726  16.874  0.9111 -0.6443 -0.2847
19157TIP3    H178962   1.543   6.651  16.895 -0.8598  0.8614  0.8100
19157TIP3    H278963   1.615   6.768  16.958 -1.4806  2.3037 -1.0686
19158TIP3   OH278964   6.683   5.281   2.066 -0.1478  0.0636  0.0611
19158TIP3    H178965   6.752   5.342   2.092 -2.5181  2.7949  0.4263
19158TIP3    H278966   6.602   5.323   2.095 -1.9452 -3.5846  0.8543
19159TIP3   OH278967   3.568   0.657   2.621 -0.7076 -0.0805  0.0434
19159TIP3    H178968   3.660   0.650   2.646 -0.9910  1.0591  1.5771
19159TIP3    H278969   3.531   0.571   2.642 -0.3325 -0.0123  1.0474
19160TIP3   OH278970   0.636   2.143  11.928 -0.0233 -0.1091 -0.3032
19160TIP3    H178971   0.588   2.148  12.010 -0.0615 -0.1334 -0.3244
19160TIP3    H278972   0.575   2.175  11.862  0.1306  0.2513 -0.2725
19161TIP3   OH278973   4.020   4.536   5.865  0.7116  0.5567  0.5718
19161TIP3    H178974   4.074   4.535   5.944  0.4184 -0.9003  0.7779
19161TIP3    H278975   4.082   4.527   5.794  0.9598  1.6618  0.6351
19162TIP3   OH278976   1.912   6.774   5.027 -0.4885  0.1061 -0.4760
19162TIP3    H178977   1.929   6.859   5.068  1.9338 -1.7878  2.9791
19162TIP3    H278978   1.997   6.747   4.992 -0.4716 -2.0473  1.0610
19163TIP3   OH278979   4.283   3.495  13.785 -0.2596  0.0770  0.1550
19163TIP3    H178980   4.288   3.533  13.697 -2.7642  0.9132  0.3046
19163TIP3    H278981   4.238   3.561  13.837  0.8928 -0.5396  2.0314
19164TIP3   OH278982   0.901   2.873   1.050 -0.3268  0.1244 -0.4780
19164TIP3    H178983   0.815   2.905   1.024 -0.4534  0.6299  0.5352
19164TIP3    H278984   0.897   2.866   1.145  0.5477 -0.4574 -0.4687
19165TIP3   OH278985   3.837   2.933  17.041  0.7185  0.7400  0.0383
19165TIP3    H178986   3.889   2.965  17.115  0.3613  2.9136 -0.5914
19165TIP3    H278987   3.857   2.992  16.969  0.4133 -0.8285 -1.3952
19166TIP3   OH278988   1.784   3.280   0.088  0.5105  0.5384 -0.1561
19166TIP3    H178989   1.793   3.245  -0.001 -0.1046  0.0607 -0.0387
19166TIP3    H278990   1.874   3.293   0.118  0.8735 -2.4137  0.3514
19167TIP3   OH278991   5.718   5.383   3.663  0.3001 -0.3475  0.2541
19167TIP3    H178992   5.742   5.357   3.574 -3.1271 -2.4248 -0.2295
19167TIP3    H278993   5.665   5.462   3.652 -0.5074 -0.8626  0.3675
19168TIP3   OH278994   1.316   3.459  15.406 -0.2972  0.0693 -0.0645
19168TIP3    H178995   1.313   3.433  15.314  0.6215 -0.7164  0.1207
19168TIP3    H278996   1.282   3.383  15.453  0.8088 -0.1818  0.3547
19169TIP3   OH278997   4.890   3.707  16.325  0.8845  0.1224 -0.9468
19169TIP3    H178998   4.912   3.757  16.403  0.6257 -1.5168  0.2389
19169TIP3    H278999   4.935   3.623  16.336 -0.9843 -1.0072 -1.4107
19170TIP3   OH279000   5.829   6.519   3.010  0.4382  0.1772 -0.1178
19170TIP3    H179001   5.777   6.515   2.930  0.2346  0.9053 -0.0278
19170TIP3    H279002   5.919   6.528   2.980  0.3113  1.0108 -0.2717
19171TIP3   OH279003   2.654   3.809  12.963  0.6085 -0.1025 -0.4370
19171TIP3    H179004   2.619   3.880  12.909 -2.6257 -0.2164  1.2620
19171TIP3    H279005   2.601   3.732  12.940  0.7749 -0.7316  1.1144
19172TIP3   OH279006   2.803   3.354  12.342 -0.3038  0.5808  0.4940
19172TIP3    H179007   2.715   3.362  12.379 -0.8395  2.9299 -1.1280
19172TIP3    H279008   2.808   3.263  12.313 -2.2177  0.4117  0.5809
19173TIP3   OH279009   0.125   2.394  17.311 -0.3203  0.4493 -0.0798
19173TIP3    H179010   0.068   2.399  17.388 -0.3094  1.7951 -0.1395
19173TIP3    H279011   0.158   2.483  17.300  1.4198 -0.1946 -0.3431
19174TIP3   OH279012   4.214   6.513  14.800  0.0819  0.1936 -0.0069
19174TIP3    H179013   4.246   6.424  14.811 -0.3549 -0.1725 -1.4089
19174TIP3    H279014   4.178   6.514  14.711 -2.4424  0.9853  0.9395
19175TIP3   OH279015   0.074   0.839  15.166  0.0854 -0.1018  0.2683
19175TIP3    H179016   0.124   0.876  15.093 -0.3035  0.0012  0.0555
19175TIP3    H279017   0.141   0.812  15.229  0.5660 -2.0237 -0.9678
19176TIP3   OH279018   1.807   4.539  15.055 -0.0776  0.0005 -0.2163
19176TIP3    H179019   1.778   4.450  15.035  0.6208 -0.3701  0.3586
19176TIP3    H279020   1.768   4.558  15.140  1.2229 -0.4763  0.5317
19177TIP3   OH279021   2.183   6.653   4.947 -0.2185 -0.1345 -0.1616
19177TIP3    H179022   2.195   6.560   4.932  1.6032  0.1298 -0.5292
19177TIP3    H279023   2.188   6.663   5.042  0.2293 -0.3260 -0.1658
19178TIP3   OH279024   1.897   3.495   2.257 -0.6585  0.1978  0.1052
19178TIP3    H179025   1.936   3.508   2.170 -2.7682 -0.5465 -1.0267
19178TIP3    H279026   1.917   3.404   2.279 -1.0644  0.0530 -0.1164
19179TIP3   OH279027   0.907   0.680  16.256  0.2828 -0.0228 -0.4558
19179TIP3    H179028   0.838   0.698  16.192  0.9390  3.3933 -0.3974
19179TIP3    H279029   0.866   0.699  16.340  0.3832 -1.3076 -0.0933
19180TIP3   OH279030   3.281   6.738   6.030 -0.4430  0.1146  0.1125
19180TIP3    H179031   3.208   6.770   5.976  0.9093  1.0731 -1.2364
19180TIP3    H279032   3.357   6.786   5.998  0.5799  0.1391  2.3920
19181TIP3   OH279033   4.143   3.135   5.523 -0.0797 -0.1296 -0.3106
19181TIP3    H179034   4.173   3.185   5.447 -0.1144  0.2352 -0.0851
19181TIP3    H279035   4.221   3.125   5.577 -0.0439 -0.4310 -0.4099
19182TIP3   OH279036   3.915   5.894   3.048  0.2016 -0.3339 -0.5309
19182TIP3    H179037   3.961   5.818   3.011 -1.5730 -0.5553 -2.4376
19182TIP3    H279038   3.826   5.863   3.063 -0.1173  0.9238  0.2923
19183TIP3   OH279039   6.205   4.734   6.273  0.2768  0.5559 -0.6019
19183TIP3    H179040   6.254   4.672   6.219  0.0901  0.0680 -0.2097
19183TIP3    H279041   6.257   4.745   6.352  0.6382  1.4088 -0.9416
19184TIP3   OH279042   2.794   4.772   6.158 -0.1970 -0.5626  0.0580
19184TIP3    H179043   2.820   4.838   6.222  0.2105 -1.1412  0.5001
19184TIP3    H279044   2.876   4.744   6.117 -0.2320 -1.5818  0.6594
19185TIP3   OH279045   1.178   5.934   3.221 -0.1448 -0.2297 -0.0825
19185TIP3    H179046   1.185   6.014   3.168 -0.2694  0.3749  0.7969
19185TIP3    H279047   1.186   5.964   3.311  1.9679 -1.4812  0.1912
19186TIP3   OH279048   4.983   5.454   5.998  0.2861  0.3391  0.0188
19186TIP3    H179049   4.952   5.521   6.059 -0.8746 -1.1711  1.1558
19186TIP3    H279050   5.073   5.480   5.978 -0.1676  2.3022  0.2864
19187TIP3   OH279051   0.303   1.650   1.855  0.8107  0.2786 -0.3557
19187TIP3    H179052   0.274   1.598   1.781 -2.9947  0.7234  0.5970
19187TIP3    H279053   0.277   1.740   1.833 -0.5540  0.4000  1.4470
19188TIP3   OH279054   0.515   5.218   6.197  0.4702  0.0509  0.4244
19188TIP3    H179055   0.426   5.213   6.232  0.9218 -1.0084  1.4882
19188TIP3    H279056   0.563   5.268   6.262  0.3663  1.8681 -0.8392
19189TIP3   OH279057   0.127   1.574   5.573  0.0075  0.2728 -0.1125
19189TIP3    H179058   0.099   1.647   5.519  0.4280  1.8762  1.7078
19189TIP3    H279059   0.162   1.615   5.652  1.8398 -1.8359  0.2756
19190TIP3   OH279060   4.863   5.709  15.087  0.1047 -0.2076  0.1370
19190TIP3    H179061   4.816   5.777  15.037 -2.3864 -1.6872  0.3113
19190TIP3    H279062   4.955   5.737  15.084 -0.6514  2.5414 -0.7625
19191TIP3   OH279063   4.312   0.093  15.372 -0.0803 -0.6917 -0.1308
19191TIP3    H179064   4.332   0.136  15.289 -1.2161 -0.2649 -0.2050
19191TIP3    H279065   4.238   0.036  15.352  1.0088 -2.2478  0.1095
19192TIP3   OH279066   5.237   3.226   4.331 -0.1141 -0.1734 -1.0169
19192TIP3    H179067   5.183   3.218   4.252 -0.8672 -1.2748 -0.4120
19192TIP3    H279068   5.246   3.320   4.345 -1.2523  0.0248 -1.5552
19193TIP3   OH279069   4.904   4.944  15.998  0.0990 -0.2432  0.2767
19193TIP3    H179070   4.844   5.015  15.976  1.1570  1.0916  1.4995
19193TIP3    H279071   4.950   4.925  15.916  1.1423  1.8362  0.3116
19194TIP3   OH279072   0.707   0.965   4.767 -0.3158  0.2426 -0.5016
19194TIP3    H179073   0.615   0.938   4.774 -0.7316  1.1436 -2.0180
19194TIP3    H279074   0.707   1.034   4.701  1.4226  0.4791 -0.3093
19195TIP3   OH279075   3.794   2.148  16.003  0.5209  0.3384 -0.2223
19195TIP3    H179076   3.766   2.059  15.984  0.6401  0.1647  0.3929
19195TIP3    H279077   3.729   2.204  15.960  1.4753 -0.0095 -2.1931
19196TIP3   OH279078   0.235   6.504   3.599 -0.7457 -1.1336  0.6899
19196TIP3    H179079   0.185   6.512   3.518  1.1430 -0.7735 -0.4876
19196TIP3    H279080   0.244   6.409   3.612  0.5871 -1.2218 -0.6277
19197TIP3   OH279081   6.044   2.228  11.696  0.1027  0.6727  0.0333
19197TIP3    H179082   6.076   2.179  11.772  1.8384  0.6245 -0.6766
19197TIP3    H279083   5.993   2.164  11.647  1.4302 -0.1569 -0.3185
19198TIP3   OH279084   0.830   4.848   4.467 -0.2183  0.2433 -0.1678
19198TIP3    H179085   0.819   4.862   4.373 -0.5258 -1.5142 -0.4404
19198TIP3    H279086   0.906   4.900   4.491  0.2386  0.2307 -1.5273
19199TIP3   OH279087   6.568   2.135   5.778  0.0358 -0.1145  0.7052
19199TIP3    H179088   6.655   2.113   5.812  0.5089  0.6932  0.0330
19199TIP3    H279089   6.508   2.109   5.849  0.9482  0.9755  1.9341
19200TIP3   OH279090   6.420   5.063  15.847  0.2652 -0.2262  0.5635
19200TIP3    H179091   6.330   5.086  15.871 -1.0252  0.6663 -4.1480
19200TIP3    H279092   6.418   4.968  15.833 -0.1557 -0.1070 -0.2093
19201TIP3   OH279093   6.357   1.197   1.235 -0.1934 -0.2441  0.0022
19201TIP3    H179094   6.370   1.209   1.329  0.8354 -0.4451 -0.1058
19201TIP3    H279095   6.266   1.167   1.227  0.1000 -1.4929  1.0438
19202TIP3   OH279096   3.125   1.083   3.254 -0.3132 -0.1190 -0.0590
19202TIP3    H179097   3.074   1.025   3.311  1.9265 -2.1645 -0.0066
19202TIP3    H279098   3.148   1.029   3.179  0.6223  1.1667 -0.7367
19203TIP3   OH279099   3.864   6.746   1.157  0.4659  0.0896 -0.1796
19203TIP3    H179100   3.846   6.675   1.096  0.7941  0.4838 -0.7478
19203TIP3    H279101   3.960   6.748   1.164  0.4205 -0.1257  0.5592
19204TIP3   OH279102   2.319   2.059  12.449  0.2949 -0.4391 -0.6401
19204TIP3    H179103   2.343   2.038  12.359 -1.3711  0.4644 -1.3479
19204TIP3    H279104   2.305   1.974  12.491 -0.7572 -0.8623 -1.7932
19205TIP3   OH279105   0.812   2.997  11.619 -0.6972 -0.0641  0.0312
19205TIP3    H179106   0.898   3.030  11.646 -0.3372 -2.2676  1.8021
19205TIP3    H279107   0.785   3.056  11.548  2.0328  0.9737 -0.2416
19206TIP3   OH279108   3.043   4.881  11.958 -0.1468 -0.2501 -0.4385
19206TIP3    H179109   3.051   4.967  11.999  0.1962 -1.3457  1.9042
19206TIP3    H279110   2.949   4.866  11.950 -0.2187 -0.1712  0.2694
19207TIP3   OH279111   5.268   2.044  13.486  0.3140  0.0430 -0.5261
19207TIP3    H179112   5.208   2.110  13.522  1.3536  0.2583  0.9013
19207TIP3    H279113   5.245   2.038  13.394 -2.3852 -0.4160  0.1027
19208TIP3   OH279114   0.119   4.123  15.702  0.7121  0.1212  0.4383
19208TIP3    H179115   0.130   4.035  15.667 -3.3247 -0.0852 -0.8029
19208TIP3    H279116   0.118   4.180  15.625  0.5836  0.8970  0.9931
19209TIP3   OH279117   0.110   1.003  16.899 -0.2317 -0.0657 -0.1381
19209TIP3    H179118   0.203   0.983  16.887 -0.2436 -0.6978  0.6932
19209TIP3    H279119   0.064   0.929  16.858 -0.2826 -1.6389  2.4807
19210TIP3   OH279120   6.329   0.210  17.065  0.7426 -0.4030 -0.6686
19210TIP3    H179121   6.412   0.163  17.062  0.1788 -1.5543  0.6078
19210TIP3    H279122   6.347   0.287  17.118  0.8795 -0.9592  0.1175
19211TIP3   OH279123   6.797   0.050  17.266  0.1187  0.0759 -0.2253
19211TIP3    H179124   6.865   0.018  17.207  0.5085 -1.4534  0.9772
19211TIP3    H279125   6.819   0.141  17.281  2.0355 -0.4265  0.2645
19212TIP3   OH279126   6.123   0.578  15.892 -0.5637  0.1541 -0.0480
19212TIP3    H179127   6.203   0.531  15.912  0.3682  0.8071 -1.9760
19212TIP3    H279128   6.123   0.653  15.951  1.5047  1.4324 -1.5361
19213TIP3   OH279129   6.720   1.837   3.133  0.5999  0.3212  0.1178
19213TIP3    H179130   6.736   1.783   3.056  0.5025 -0.7397  0.8180
19213TIP3    H279131   6.653   1.788   3.182  0.0933  1.3658  0.4909
19214TIP3   OH279132   1.708   2.812   4.855 -0.3746  0.0032 -0.3942
19214TIP3    H179133   1.712   2.722   4.887 -1.2119  0.4460  1.0483
19214TIP3    H279134   1.795   2.829   4.820 -0.2671 -1.4265 -0.8826
19215TIP3   OH279135   1.405   5.325  13.722  0.8589 -0.0057  0.1618
19215TIP3    H179136   1.477   5.264  13.734  0.1561 -1.3407 -1.9051
19215TIP3    H279137   1.420   5.364  13.636  0.4150  1.5679  0.7514
19216TIP3   OH279138   1.329   4.577   4.642  0.5483  0.7290  0.6030
19216TIP3    H179139   1.307   4.622   4.724  1.8567  0.0931  1.3406
19216TIP3    H279140   1.302   4.487   4.657  0.7993  0.6078  0.3272
19217TIP3   OH279141   2.600   1.954   4.339 -0.1349  0.4653  0.2477
19217TIP3    H179142   2.537   1.882   4.334  0.5837 -0.1152 -0.8882
19217TIP3    H279143   2.663   1.926   4.405 -0.1837  0.3104  0.2297
19218TIP3   OH279144   3.183   1.719  15.776  0.0888 -0.5038 -0.1183
19218TIP3    H179145   3.194   1.644  15.718 -0.4172 -1.2432  0.7105
19218TIP3    H279146   3.230   1.791  15.733  0.8245 -1.3678 -0.7877
19219TIP3   OH279147   2.554   1.574   5.406  0.1107  0.1761  0.3333
19219TIP3    H179148   2.463   1.584   5.434 -0.2358 -3.6709  1.2015
19219TIP3    H279149   2.548   1.544   5.315  0.5911  1.0650  0.0036
19220TIP3   OH279150   2.284   2.859  12.425  0.2818  0.1413 -0.2936
19220TIP3    H179151   2.281   2.774  12.381 -0.2620 -0.4655  0.8411
19220TIP3    H279152   2.284   2.924  12.355 -1.6273 -0.7467 -1.1821
19221TIP3   OH279153   5.265   3.122   2.739 -0.3885  0.0631  0.5705
19221TIP3    H179154   5.211   3.188   2.782  1.3456  1.6679  0.4062
19221TIP3    H279155   5.311   3.078   2.810  0.1838  0.6314  0.5613
19222TIP3   OH279156   0.931   5.065  15.984 -0.1085  0.6349 -0.6933
19222TIP3    H179157   0.957   5.117  15.908  1.3397 -0.8524 -1.2703
19222TIP3    H279158   0.884   5.127  16.041  1.3228  2.4890 -1.4398
19223TIP3   OH279159   4.376   6.708  13.543  0.3743  0.2563 -0.4545
19223TIP3    H179160   4.305   6.695  13.481 -0.3013  0.3509  0.2864
19223TIP3    H279161   4.424   6.784  13.509  0.2085  0.1019 -1.0337
19224TIP3   OH279162   4.381   3.872   3.986 -0.0264 -0.2515  0.3119
19224TIP3    H179163   4.394   3.845   3.895 -1.5627 -0.7234  0.2088
19224TIP3    H279164   4.287   3.883   3.995  0.1563  0.4983  1.6682
19225TIP3   OH279165   4.901   4.112  12.092 -0.1804  0.4100 -0.0742
19225TIP3    H179166   4.833   4.179  12.092 -0.8813 -0.2418 -1.6928
19225TIP3    H279167   4.878   4.055  12.018  1.1757 -0.8025  0.3969
19226TIP3   OH279168   1.218   5.762  11.190  0.3876 -0.7855  0.1976
19226TIP3    H179169   1.238   5.730  11.103  0.5004 -0.0008 -0.0744
19226TIP3    H279170   1.171   5.845  11.176  0.5786 -0.5503  0.8738
19227TIP3   OH279171   2.263   3.213   0.344  0.0165 -0.1111 -0.0880
19227TIP3    H179172   2.345   3.258   0.363 -0.5041  0.4120  0.9608
19227TIP3    H279173   2.290   3.124   0.321  0.8327 -0.1577  0.9856
19228TIP3   OH279174   4.512   2.107  14.594 -0.3012 -0.5557  0.0393
19228TIP3    H179175   4.557   2.045  14.536  1.6646  0.5351  0.3289
19228TIP3    H279176   4.549   2.090  14.681 -1.7604 -0.8070  0.6504
19229TIP3   OH279177   6.384   3.915   2.580 -0.0571  0.1294  0.2206
19229TIP3    H179178   6.313   3.862   2.545 -0.3228  0.5745  0.0782
19229TIP3    H279179   6.419   3.864   2.653 -0.1336 -0.3618 -0.0832
19230TIP3   OH279180   2.168   6.053   5.664 -0.7078  0.0311  0.6477
19230TIP3    H179181   2.117   5.973   5.657  0.6746 -0.9080  0.8707
19230TIP3    H279182   2.157   6.095   5.578 -0.3544 -1.0923  0.0285
19231TIP3   OH279183   3.338   5.300   5.267  0.2791 -0.5677  0.6802
19231TIP3    H179184   3.377   5.256   5.343  1.4967 -0.0996  0.3566
19231TIP3    H279185   3.258   5.339   5.300  1.1657  0.2821  1.9423
19232TIP3   OH279186   2.283   1.363   6.465 -0.0359 -0.0735 -0.1478
19232TIP3    H179187   2.269   1.313   6.546 -0.7954 -1.6786 -1.2205
19232TIP3    H279188   2.205   1.419   6.457  0.7771  1.3019  1.0105
19233TIP3   OH279189   4.886   5.825  13.178  0.2905 -0.8999  0.0462
19233TIP3    H179190   4.829   5.878  13.123  0.7445  1.2836  1.5491
19233TIP3    H279191   4.830   5.754  13.210 -0.8141 -0.3754 -0.6642
19234TIP3   OH279192   2.398   2.901   4.357  0.5991 -0.3849  0.0898
19234TIP3    H179193   2.463   2.859   4.301  0.4794 -0.2507 -0.1549
19234TIP3    H279194   2.315   2.890   4.309  0.4239 -0.6509  0.4495
19235TIP3   OH279195   2.242   0.460   2.060 -0.2412  0.0877 -0.4497
19235TIP3    H179196   2.227   0.441   1.968 -0.8384  0.9919 -0.5499
19235TIP3    H279197   2.181   0.531   2.081  0.5105  0.5096  0.4024
19236TIP3   OH279198   2.355   5.615   1.540  0.2652  0.0098  0.7688
19236TIP3    H179199   2.432   5.638   1.488 -0.1972  0.7872  0.4208
19236TIP3    H279200   2.377   5.529   1.577  1.4072  0.3396  0.8974
19237TIP3   OH279201   0.041   5.464  16.257  0.0850 -0.4292 -0.0473
19237TIP3    H179202  -0.006   5.380  16.255  1.3510 -1.1582 -0.2747
19237TIP3    H279203   0.117   5.448  16.312  1.2564  0.0539 -1.4568
19238TIP3   OH279204   0.730   4.812  16.602  0.5837 -0.2345  0.0137
19238TIP3    H179205   0.697   4.891  16.558 -0.6474 -1.9233 -2.3168
19238TIP3    H279206   0.667   4.744  16.579  0.6212 -1.6032  3.4185
19239TIP3   OH279207   5.547   0.399  13.718 -0.1542 -0.3479  0.5336
19239TIP3    H179208   5.565   0.305  13.714  0.7650 -0.3167  2.6893
19239TIP3    H279209   5.633   0.440  13.717 -0.4068  0.2911  2.2957
19240TIP3   OH279210   5.765   3.044   2.398 -0.5122 -0.3111  0.3156
19240TIP3    H179211   5.802   2.995   2.472 -0.6368 -1.5451 -0.4030
19240TIP3    H279212   5.780   2.986   2.322 -2.1043  0.0633 -0.3127
19241TIP3   OH279213   5.353   1.587   5.926  0.1224 -0.0976  0.2834
19241TIP3    H179214   5.277   1.577   5.869 -0.3862  1.7398  0.5807
19241TIP3    H279215   5.409   1.649   5.880  0.6058 -0.0732  0.9013
19242TIP3   OH279216   1.164   2.665   6.374  0.3745  0.5365  0.3048
19242TIP3    H179217   1.107   2.713   6.314 -1.4462 -0.6128  1.0081
19242TIP3    H279218   1.147   2.573   6.355  1.7194  0.1461  0.8401
19243TIP3   OH279219   3.679   0.641  12.526  0.2262 -0.2826 -0.4877
19243TIP3    H179220   3.698   0.588  12.603  2.2052  0.9075 -0.0754
19243TIP3    H279221   3.678   0.578  12.454 -0.9916 -1.3203  0.3979
19244TIP3   OH279222   0.324   4.428  12.581  0.6937 -0.4329  0.2100
19244TIP3    H179223   0.243   4.429  12.633  0.6035 -2.0460  0.1586
19244TIP3    H279224   0.386   4.479  12.632 -0.5768  1.6570 -0.1844
19245TIP3   OH279225   3.953   0.898  14.986 -0.6979 -0.4133  0.3233
19245TIP3    H179226   3.956   0.889  15.081 -0.1458  0.4181  0.3986
19245TIP3    H279227   4.024   0.841  14.955  0.3853  0.7630  0.5513
19246TIP3   OH279228   4.448   4.211  12.425 -0.7654 -0.1282 -0.2098
19246TIP3    H179229   4.395   4.254  12.357 -2.7167 -2.6635 -0.4778
19246TIP3    H279230   4.510   4.157  12.376 -0.2438  0.2233  0.0632
19247TIP3   OH279231   3.118   2.005   3.880  0.4022 -0.2233  0.2115
19247TIP3    H179232   3.113   2.093   3.841 -1.0119  0.0286  0.8719
19247TIP3    H279233   3.190   1.962   3.835  0.8541  1.1463 -0.4132
19248TIP3   OH279234   5.150   0.854   6.590  0.3522 -0.5381 -0.0439
19248TIP3    H179235   5.189   0.771   6.562  1.0683 -0.1859 -0.1051
19248TIP3    H279236   5.193   0.874   6.673  2.6226  1.3860 -1.5601
19249TIP3   OH279237   1.795   0.148  16.490 -0.2491 -0.5883 -0.1365
19249TIP3    H179238   1.818   0.230  16.534 -2.0123 -0.4507  0.5888
19249TIP3    H279239   1.813   0.164  16.398  1.1546 -0.0340  0.2097
19250TIP3   OH279240   3.910   0.486  16.304 -0.3554 -0.6795 -0.4026
19250TIP3    H179241   3.815   0.475  16.299 -0.5194 -0.0733  0.8234
19250TIP3    H279242   3.945   0.397  16.291 -0.9672 -0.6689 -2.4956
19251TIP3   OH279243   5.432   1.932   6.140 -0.0456 -0.5893  0.4402
19251TIP3    H179244   5.471   1.939   6.227  0.0794  1.0997  0.2740
19251TIP3    H279245   5.356   1.876   6.153  1.5589 -2.7924  1.0466
19252TIP3   OH279246   5.076   4.855  15.312  0.6292  0.0288 -0.2532
19252TIP3    H179247   5.052   4.775  15.358  0.3578  0.1051 -0.2596
19252TIP3    H279248   5.160   4.880  15.349  0.2947  0.2244  0.3819
19253TIP3   OH279249   6.814   1.563  14.701  0.1801  0.3979  0.4494
19253TIP3    H179250   6.871   1.521  14.766 -1.9092 -0.8185  1.5886
19253TIP3    H279251   6.750   1.612  14.752 -0.3626  0.9783 -0.7516
19254TIP3   OH279252   5.648   6.436  16.951 -0.1778 -1.0087  0.1983
19254TIP3    H179253   5.563   6.417  16.911 -0.4955 -0.2061  0.4561
19254TIP3    H279254   5.637   6.523  16.989  1.0152 -0.5517 -0.4603
19255TIP3   OH279255   0.086   4.322  15.517 -0.3653 -0.2292 -0.2091
19255TIP3    H179256   0.159   4.384  15.526 -1.6382  1.5133 -1.3942
19255TIP3    H279257   0.092   4.290  15.427 -0.3683 -1.0209  0.0629
19256TIP3   OH279258   4.055   4.496   1.405 -0.4920  0.0826  0.0332
19256TIP3    H179259   4.037   4.465   1.494  0.0862  0.1015  0.1587
19256TIP3    H279260   4.141   4.460   1.384 -1.3008 -1.3243 -1.1461
19257TIP3   OH279261   0.653   0.816  11.847 -0.0469  0.1325  0.4488
19257TIP3    H179262   0.726   0.826  11.786  0.8015  1.5181  1.5994
19257TIP3    H279263   0.624   0.906  11.863 -1.4020 -0.3391  0.7387
19258TIP3   OH279264   3.416   6.432   1.300 -0.5887 -0.8954  0.3018
19258TIP3    H179265   3.393   6.448   1.392  1.7398 -0.9874  0.9582
19258TIP3    H279266   3.459   6.347   1.301  2.4836  0.5059 -0.2179
19259TIP3   OH279267   2.983   4.765   2.113  0.2059  0.0906  0.1531
19259TIP3    H179268   2.929   4.776   2.035  1.4809  1.9445 -0.5416
19259TIP3    H279269   3.030   4.848   2.121  2.5007 -1.1960  1.0461
19260TIP3   OH279270   6.782   2.280  17.131 -0.0917 -0.4346 -0.5973
19260TIP3    H179271   6.834   2.318  17.202 -0.6650  0.9996 -0.9133
19260TIP3    H279272   6.767   2.189  17.158 -2.4850  0.6914  2.4608
19261TIP3   OH279273   1.694   6.800   5.445 -0.0382 -0.1337 -0.0222
19261TIP3    H179274   1.750   6.873   5.471  1.4047 -1.5245  0.9710
19261TIP3    H279275   1.740   6.758   5.373 -1.9740  1.1959 -2.1520
19262TIP3   OH279276   5.947   2.842   0.433  0.2128  0.4458  0.2739
19262TIP3    H179277   5.869   2.829   0.378  0.0565  1.2550  0.2922
19262TIP3    H279278   5.912   2.870   0.517  0.4496 -0.8888  0.8376
19263TIP3   OH279279   1.463   1.437  12.774 -0.1160  0.2058  0.1880
19263TIP3    H179280   1.558   1.429  12.790  0.1436 -1.0806 -1.6887
19263TIP3    H279281   1.456   1.504  12.707 -0.8556  2.5873  2.5036
19264TIP3   OH279282   4.172   1.794   0.968 -0.7241  0.6096 -0.1328
19264TIP3    H179283   4.139   1.754   1.049  1.5781 -0.1056  0.5535
19264TIP3    H279284   4.140   1.738   0.898 -0.1543 -0.6636  0.5836
19265TIP3   OH279285   4.722   3.520   2.215  0.0062  0.4805 -0.1582
19265TIP3    H179286   4.634   3.554   2.199 -0.9600 -0.7811  2.0474
19265TIP3    H279287   4.714   3.425   2.211  0.3407  0.1178  3.5265
19266TIP3   OH279288   6.270   3.455   3.924  0.3768 -0.4875  0.5622
19266TIP3    H179289   6.200   3.426   3.983 -0.7540  1.4858  0.2807
19266TIP3    H279290   6.292   3.378   3.872 -0.2596 -1.6361  1.9308
19267TIP3   OH279291   5.084   5.738  12.704 -0.5026  0.0570  0.1638
19267TIP3    H179292   5.143   5.704  12.636  1.6504  0.4877  1.7025
19267TIP3    H279293   5.059   5.825  12.672 -1.8735 -0.8277 -1.3622
19268TIP3   OH279294   1.047   3.635  13.985 -0.8196  0.1488  0.6176
19268TIP3    H179295   1.125   3.639  13.931  0.6665 -1.1330  2.5452
19268TIP3    H279296   0.974   3.648  13.923  0.8738  1.7706 -1.1677
19269TIP3   OH279297   4.864   1.166   7.180 -0.2368 -0.3767 -0.3423
19269TIP3    H179298   4.920   1.243   7.170  0.4583 -0.5271  1.7721
19269TIP3    H279299   4.923   1.091   7.166 -0.6681 -0.5482 -1.3252
19270TIP3   OH279300   1.233   3.220   4.314  0.4482 -0.1472 -0.2450
19270TIP3    H179301   1.260   3.137   4.354 -1.0988 -0.6710 -0.2161
19270TIP3    H279302   1.182   3.194   4.237 -0.9162  0.7216  0.3347
19271TIP3   OH279303   3.889   2.844  15.401 -0.4416  0.1116  0.4288
19271TIP3    H179304   3.833   2.785  15.350  1.4461 -1.3868 -0.0257
19271TIP3    H279305   3.914   2.793  15.477 -0.3073  1.0561  1.0349
19272TIP3   OH279306   2.989   5.135  17.165  0.2087 -0.7222  0.3873
19272TIP3    H179307   2.923   5.199  17.138  0.6481 -0.8993 -1.2288
19272TIP3    H279308   3.039   5.180  17.233 -0.7443 -0.1004  0.6983
19273TIP3   OH279309   1.092   2.513   3.835  0.3990 -0.0098  0.4064
19273TIP3    H179310   1.040   2.462   3.773  3.4152 -0.3390 -2.1033
19273TIP3    H279311   1.055   2.601   3.832 -0.8722 -0.5426 -0.1794
19274TIP3   OH279312   1.647   1.169  15.941 -0.3287 -0.0816  0.3504
19274TIP3    H179313   1.656   1.082  15.979 -1.2778 -0.9167 -1.2252
19274TIP3    H279314   1.591   1.156  15.864  1.6632  1.4252 -1.4897
19275TIP3   OH279315   2.223   2.109  15.934  0.0522 -0.5070  0.2772
19275TIP3    H179316   2.146   2.100  15.990 -0.4788 -0.2929 -0.4197
19275TIP3    H279317   2.205   2.183  15.878 -0.0296 -1.5588 -1.1425
19276TIP3   OH279318   1.156   2.298   2.229  0.3800  0.0591 -0.0104
19276TIP3    H179319   1.243   2.269   2.204  0.7770  0.9716  0.2481
19276TIP3    H279320   1.145   2.382   2.184 -1.0796 -0.8357 -1.4595
19277TIP3   OH279321   4.010   2.751  12.612  0.3263 -0.5053  1.1567
19277TIP3    H179322   3.979   2.779  12.526 -0.6391 -1.2654  1.2399
19277TIP3    H279323   4.105   2.763  12.609 -0.0100  3.7849  1.5676
19278TIP3   OH279324   3.971   1.197   4.830 -0.1258  0.1287 -0.4020
19278TIP3    H179325   3.979   1.141   4.753  0.5300 -0.1840 -0.1156
19278TIP3    H279326   4.057   1.236   4.841  0.8442 -2.3151  2.0201
19279TIP3   OH279327   3.156   1.652  14.089 -0.4132 -0.1781 -0.1352
19279TIP3    H179328   3.099   1.729  14.096  0.8567  0.7796  0.0288
19279TIP3    H279329   3.241   1.688  14.063  0.1004 -1.5805 -0.4592
19280TIP3   OH279330   3.232   6.473   0.558  0.2979  0.5326  0.6368
19280TIP3    H179331   3.260   6.409   0.623 -1.2185  1.1010  1.9173
19280TIP3    H279332   3.137   6.465   0.556  0.2455  1.1586 -0.8887
19281TIP3   OH279333   4.754   6.661   2.784 -0.5618 -0.2570 -0.4510
19281TIP3    H179334   4.716   6.744   2.757 -1.2416 -0.4987 -0.2641
19281TIP3    H279335   4.779   6.674   2.875 -0.4754 -0.1962 -0.4827
19282TIP3   OH279336   3.005   5.577  13.322 -0.2538 -0.1342  0.1684
19282TIP3    H179337   3.007   5.491  13.365  0.4410  0.3808  1.2006
19282TIP3    H279338   2.914   5.586  13.292 -0.4903 -0.9670  0.5882
19283TIP3   OH279339   5.403   0.032  14.498  0.0535 -0.6202 -0.1101
19283TIP3    H179340   5.453   0.105  14.537 -0.2273  0.7042 -2.0729
19283TIP3    H279341   5.467  -0.014  14.444 -0.2290 -0.5294 -0.5285
19284TIP3   OH279342   0.973   1.201   5.604 -0.6232  0.2594  0.1284
19284TIP3    H179343   1.040   1.258   5.566  0.3873 -1.7132 -1.2083
19284TIP3    H279344   0.940   1.250   5.679  1.1317  2.0050 -0.1512
19285TIP3   OH279345   1.495   4.932  15.818 -0.1841 -0.2276 -0.3250
19285TIP3    H179346   1.497   4.938  15.914 -1.8193 -0.2949 -0.2601
19285TIP3    H279347   1.464   4.843  15.800 -0.6982  0.0593 -0.8914
19286TIP3   OH279348   4.258   4.306   1.323  0.5961 -0.5892  0.0561
19286TIP3    H179349   4.203   4.233   1.351  2.0011 -1.6817  0.0635
19286TIP3    H279350   4.306   4.332   1.402  0.8095 -0.2892 -0.1704
19287TIP3   OH279351   2.988   5.913   0.598 -0.4349 -0.1805  0.2109
19287TIP3    H179352   2.960   5.993   0.554 -0.4903 -0.4912 -0.3381
19287TIP3    H279353   2.956   5.922   0.688  2.5461  1.9720  1.2121
19288TIP3   OH279354   0.234   6.635   0.045 -0.7874  0.1840 -0.0343
19288TIP3    H179355   0.317   6.616   0.088  0.4122 -0.2151 -2.3714
19288TIP3    H279356   0.208   6.721   0.079  1.3169  0.9641 -0.2645
19289TIP3   OH279357   5.850   6.355  12.213  0.2231  0.3658  0.0958
19289TIP3    H179358   5.789   6.282  12.200 -0.3247  0.8033  0.1791
19289TIP3    H279359   5.912   6.347  12.140 -2.6407  2.6173 -2.8949
19290TIP3   OH279360   5.791   3.271   4.568  0.0450  0.2946 -0.0289
19290TIP3    H179361   5.725   3.336   4.591 -0.4456  0.4254 -1.6882
19290TIP3    H279362   5.759   3.189   4.606  0.4444  0.8937  1.6945
19291TIP3   OH279363   2.606   1.412  17.200  0.2316  0.0148  0.1186
19291TIP3    H179364   2.641   1.464  17.272  2.6224 -1.9243  0.4982
19291TIP3    H279365   2.681   1.363  17.167 -1.9099 -3.8831  0.4357
19292TIP3   OH279366   3.397   0.579  13.452  0.5773 -0.1998 -0.0503
19292TIP3    H179367   3.341   0.524  13.396  1.0746 -0.8335  0.0660
19292TIP3    H279368   3.463   0.519  13.486  0.4288  0.2363  1.0278
19293TIP3   OH279369   6.078   3.304  16.259  0.3800  0.0442  0.4257
19293TIP3    H179370   6.047   3.343  16.340  0.0218  0.0638  0.2813
19293TIP3    H279371   6.151   3.360  16.231  0.9001 -0.3154  1.0489
19294TIP3   OH279372   5.703   1.730   0.816  0.1043  0.2802 -0.0830
19294TIP3    H179373   5.617   1.688   0.811  0.4355 -0.2970 -1.1654
19294TIP3    H279374   5.697   1.787   0.892 -0.6693 -1.0587  0.9120
19295TIP3   OH279375   3.654   0.496  12.284 -0.0738 -0.0476  0.2433
19295TIP3    H179376   3.568   0.482  12.324  0.0277  2.1378  1.3885
19295TIP3    H279377   3.640   0.565  12.219  0.4733 -1.0403 -0.9680
19296TIP3   OH279378   2.147   1.580  15.464 -1.0458  0.2869  0.5963
19296TIP3    H179379   2.189   1.626  15.536  0.6516 -1.3149  0.7323
19296TIP3    H279380   2.162   1.487  15.483  0.0989 -0.2053 -2.0858
19297TIP3   OH279381   2.482   4.567  16.640  0.0113  0.0814  0.0478
19297TIP3    H179382   2.394   4.532  16.625 -0.4548  1.5299 -0.8310
19297TIP3    H279383   2.468   4.661  16.654  1.3008  0.1061  1.2837
19298TIP3   OH279384   5.688   6.510   1.525 -0.0643  0.1633 -0.1730
19298TIP3    H179385   5.640   6.429   1.541 -1.2814  1.1661  1.5042
19298TIP3    H279386   5.677   6.526   1.431  0.9977 -2.0544 -0.7371
19299TIP3   OH279387   4.614   6.348  13.672  0.0623 -0.5355  0.1481
19299TIP3    H179388   4.686   6.366  13.732 -0.6132 -0.9174  1.0891
19299TIP3    H279389   4.570   6.272  13.709  0.6487 -1.9056 -1.7595
19300TIP3   OH279390   5.278   4.968  16.544 -0.7574 -0.1529 -0.3036
19300TIP3    H179391   5.286   4.889  16.598 -1.8657 -0.1525 -0.1124
19300TIP3    H279392   5.350   4.962  16.482 -0.1642 -0.7550  0.4228
19301TIP3   OH279393   3.105   5.404   6.809  0.6842 -1.3150  0.2465
19301TIP3    H179394   3.066   5.372   6.727  1.8666  0.1336 -0.9519
19301TIP3    H279395   3.181   5.348   6.823  0.6176 -1.4100  0.2301
19302TIP3   OH279396   4.785   3.531  14.160  0.0153 -0.1726 -0.3343
19302TIP3    H179397   4.851   3.584  14.115 -1.5576  1.5213 -0.8030
19302TIP3    H279398   4.834   3.464  14.206  2.0436  1.0240 -0.6622
19303TIP3   OH279399   1.288   4.442  16.606  0.5043  0.0613  0.1056
19303TIP3    H179400   1.366   4.458  16.553  0.2930 -0.5819 -0.4093
19303TIP3    H279401   1.306   4.359  16.650  1.5290  1.4934  2.6241
19304TIP3   OH279402   3.164   0.740   4.882  0.2196 -0.1241 -0.5395
19304TIP3    H179403   3.150   0.834   4.872  1.2679  0.0084 -0.8667
19304TIP3    H279404   3.084   0.708   4.923 -0.6654  0.7042 -1.5858
19305TIP3   OH279405   2.583   2.287   5.595 -0.0769 -0.6225  0.0532
19305TIP3    H179406   2.612   2.207   5.638  0.4464  0.4605  1.8404
19305TIP3    H279407   2.664   2.331   5.568 -0.2981 -0.1260  0.1872
19306TIP3   OH279408   6.700   2.932   5.823 -0.9186  0.1216  0.4208
19306TIP3    H179409   6.755   2.943   5.745 -0.3916  1.1671  0.9128
19306TIP3    H279410   6.701   2.839   5.841 -0.8892 -0.1176 -0.7035
19307TIP3   OH279411   1.957   2.042   2.450  0.4394 -0.0828 -0.2745
19307TIP3    H179412   1.874   2.071   2.412  0.0048 -0.3815  0.4307
19307TIP3    H279413   2.022   2.060   2.382 -0.4148 -1.3212 -1.4577
19308TIP3   OH279414   2.141   1.892   0.066  0.4603 -0.0477 -0.0452
19308TIP3    H179415   2.135   1.967   0.007  0.1513 -0.3947 -0.4556
19308TIP3    H279416   2.064   1.839   0.046  1.2356 -1.0351 -0.5357
19309TIP3   OH279417   2.621   2.213   5.954  0.1248 -0.0327 -0.0207
19309TIP3    H179418   2.612   2.305   5.932 -0.6644 -0.2890 -0.8066
19309TIP3    H279419   2.684   2.179   5.890  0.2539 -0.0896  0.1353
19310TIP3   OH279420   0.761   5.385   1.080  0.0034  0.6882 -0.2545
19310TIP3    H179421   0.844   5.358   1.041 -0.6558  0.6537 -1.6858
19310TIP3    H279422   0.711   5.304   1.088 -0.0184  0.7520  0.3310
19311TIP3   OH279423   6.698   2.054  14.473  0.5514  0.0181  0.0181
19311TIP3    H179424   6.633   1.991  14.503  1.1214 -1.0284 -0.8640
19311TIP3    H279425   6.774   2.000  14.448  0.8982  1.0087 -1.1631
19312TIP3   OH279426   1.319   5.582   2.113 -0.3818 -0.0249 -0.1202
19312TIP3    H179427   1.275   5.623   2.188 -0.0812 -0.6604  0.4166
19312TIP3    H279428   1.406   5.623   2.112 -1.3341  2.1924 -1.9682
19313TIP3   OH279429   5.516   1.890   3.321 -0.1632  0.0183  0.2753
19313TIP3    H179430   5.559   1.948   3.258 -0.8175  2.0123  1.5661
19313TIP3    H279431   5.465   1.829   3.267 -0.4998  1.4819 -1.1380
19314TIP3   OH279432   1.435   2.838   0.315 -0.5365 -0.0182 -0.3488
19314TIP3    H179433   1.411   2.856   0.224 -0.5842 -0.9215 -0.5157
19314TIP3    H279434   1.399   2.752   0.333 -2.3097  0.9795  1.1924
19315TIP3   OH279435   5.935   6.493   4.290  0.2893 -0.5748  0.4120
19315TIP3    H179436   5.948   6.479   4.196 -0.1827  4.6102 -0.7199
19315TIP3    H279437   6.003   6.556   4.314 -1.4254  0.4805  2.7949
19316TIP3   OH279438   5.476   4.565  15.899 -0.6907  0.3238  0.3253
19316TIP3    H179439   5.532   4.582  15.823 -0.8550 -0.8698 -0.0757
19316TIP3    H279440   5.390   4.549  15.862 -0.6678 -0.7844  0.7055
19317TIP3   OH279441   5.624   0.653  13.582  0.1931 -0.8149  0.4550
19317TIP3    H179442   5.650   0.563  13.560 -1.1414 -1.6761  2.1901
19317TIP3    H279443   5.556   0.674  13.518  1.5766 -0.4014 -0.9504
19318TIP3   OH279444   4.285   4.676   5.365  0.6748 -0.1588  0.8371
19318TIP3    H179445   4.233   4.750   5.396 -0.3746 -0.0455 -1.0203
19318TIP3    H279446   4.230   4.634   5.299  2.8708 -0.0382 -1.2490
19319TIP3   OH279447   4.956   6.739   2.308  0.1622 -0.3794  0.1499
19319TIP3    H179448   4.898   6.748   2.383 -0.1285 -0.0251 -0.1126
19319TIP3    H279449   5.021   6.809   2.319 -0.9533  0.8820 -0.8707
19320TIP3   OH279450   1.911   1.043  16.119 -0.1941  0.5753 -0.5897
19320TIP3    H179451   1.976   0.993  16.070 -0.9339 -0.6146 -0.3884
19320TIP3    H279452   1.830   0.992  16.111 -0.1600 -0.1549  2.5652
19321TIP3   OH279453   6.618   0.935  11.859 -0.0709 -0.3224  0.0123
19321TIP3    H179454   6.608   0.862  11.920 -1.2576 -0.0189  0.1972
19321TIP3    H279455   6.597   1.013  11.910 -4.2466 -0.2691 -1.4395
19322TIP3   OH279456   3.828   4.431  13.793 -0.0993  0.1449 -0.0534
19322TIP3    H179457   3.818   4.361  13.728 -1.2458  0.8479 -0.6716
19322TIP3    H279458   3.880   4.498  13.748  2.0255 -0.7369  0.9311
19323TIP3   OH279459   6.416   0.048   4.857  0.2765 -0.1942  0.0713
19323TIP3    H179460   6.381   0.103   4.787  1.8213  0.8765  0.0898
19323TIP3    H279461   6.466  -0.020   4.811  2.1750  1.1169  0.0785
19324TIP3   OH279462   3.112   2.097   5.880 -0.6246 -0.7157  0.4137
19324TIP3    H179463   3.156   2.041   5.816 -0.0765  0.4121 -0.2261
19324TIP3    H279464   3.029   2.121   5.840  0.4532  1.4221 -0.7193
19325TIP3   OH279465   5.931   5.501   2.035 -0.2556  0.6850 -0.3263
19325TIP3    H179466   5.881   5.531   1.959 -0.6628  3.1209  0.8261
19325TIP3    H279467   5.912   5.564   2.103  1.2642 -0.6063  1.4002
19326TIP3   OH279468   4.899   4.165  11.648 -0.8118 -0.3948  0.4424
19326TIP3    H179469   4.854   4.250  11.647 -1.3529 -0.5612 -3.1843
19326TIP3    H279470   4.988   4.186  11.622 -0.8793 -0.8675 -0.1936
19327TIP3   OH279471   4.922   4.899   0.708 -1.1806  0.2108  0.4894
19327TIP3    H179472   4.973   4.856   0.776 -2.4820  0.2894  1.5586
19327TIP3    H279473   4.858   4.951   0.756 -1.3227  1.2711 -0.7977
19328TIP3   OH279474   2.227   6.082  12.829  0.1130  0.6180  0.6295
19328TIP3    H179475   2.264   6.000  12.861 -0.0776  0.6401  0.9096
19328TIP3    H279476   2.271   6.150  12.881 -0.3800  0.6385  1.0227
19329TIP3   OH279477   2.990   0.278  12.335  0.3861 -0.4377  0.0358
19329TIP3    H179478   3.050   0.341  12.376  2.9782 -2.1905 -0.8227
19329TIP3    H279479   2.940   0.330  12.272  0.1448  1.2932  1.5498
19330TIP3   OH279480   4.785   0.838   6.592  0.1695  0.1490 -0.2183
19330TIP3    H179481   4.741   0.779   6.531 -0.1783 -0.1649  0.3256
19330TIP3    H279482   4.725   0.845   6.666  0.0080  1.5446 -0.4524
19331TIP3   OH279483   4.177   2.625  13.857  0.2156 -1.1885 -0.2626
19331TIP3    H179484   4.198   2.547  13.909 -0.2491 -1.3059 -0.2412
19331TIP3    H279485   4.101   2.663  13.900  1.4272  0.2291  0.7003
19332TIP3   OH279486   3.174   4.805  16.378  0.0127 -0.0356 -0.3933
19332TIP3    H179487   3.166   4.815  16.283  0.7161  0.3447 -0.4150
19332TIP3    H279488   3.084   4.791  16.408 -0.3113  0.6315 -1.0262
19333TIP3   OH279489   0.205   4.049  13.508  0.2239 -0.2720 -0.4678
19333TIP3    H179490   0.240   3.981  13.565 -1.6816 -0.3092  0.7778
19333TIP3    H279491   0.221   4.131  13.556  1.9949  0.1393 -1.6911
19334TIP3   OH279492   0.468   4.013  11.425  0.3053  0.3152  0.1109
19334TIP3    H179493   0.545   3.957  11.419  0.2929 -0.0752  2.6902
19334TIP3    H279494   0.500   4.100  11.404  1.1391 -0.0605 -0.2344
19335TIP3   OH279495   2.582   3.249  10.705  0.1946  0.2059  0.5646
19335TIP3    H179496   2.492   3.267  10.678 -0.3326 -0.4395  1.8067
19335TIP3    H279497   2.636   3.277  10.631 -1.1539 -1.2693 -1.0411
19336TIP3   OH279498   6.645   1.025   4.329  0.4947  0.1158 -0.6393
19336TIP3    H179499   6.573   1.047   4.270 -0.6452 -0.0349  0.6377
19336TIP3    H279500   6.647   1.098   4.392 -1.1016 -1.6038  1.6038
19337TIP3   OH279501   4.309   3.381  14.975  0.3469 -0.0246  0.3486
19337TIP3    H179502   4.275   3.296  15.003  0.5476 -0.2350 -0.0443
19337TIP3    H279503   4.292   3.439  15.049  1.7807 -0.7976  1.3248
19338TIP3   OH279504   2.448   3.482   1.918 -0.0661 -0.0672  0.0627
19338TIP3    H179505   2.482   3.397   1.893  1.6655  0.5560  0.1980
19338TIP3    H279506   2.525   3.537   1.930 -1.0093  0.9087  2.2312
19339TIP3   OH279507   2.806   3.135   4.874 -0.0898 -0.3009  0.0554
19339TIP3    H179508   2.761   3.209   4.833 -0.2426 -1.0393 -1.1655
19339TIP3    H279509   2.758   3.058   4.843  1.5947 -1.0817 -0.7565
19340TIP3   OH279510   4.870   1.950   3.174 -0.0879 -0.0222  0.2882
19340TIP3    H179511   4.783   1.909   3.177  0.0304 -0.5126 -1.7437
19340TIP3    H279512   4.873   1.994   3.090  1.9450 -0.7547 -0.0778
19341TIP3   OH279513   3.697   1.569   2.464 -0.2989 -0.7379  0.2085
19341TIP3    H179514   3.725   1.509   2.533 -1.2939 -0.5890  0.7625
19341TIP3    H279515   3.663   1.512   2.395 -0.8607 -0.8321  0.5594
19342TIP3   OH279516   1.976   5.649  14.567 -0.0985  0.5036  0.5244
19342TIP3    H179517   1.932   5.700  14.499  0.9757 -0.6372 -1.1206
19342TIP3    H279518   2.066   5.642  14.535 -0.1977 -2.3478  0.6893
19343TIP3   OH279519   0.427   1.579  13.637  0.3080 -0.0145 -0.8096
19343TIP3    H179520   0.485   1.506  13.656 -3.4178 -3.4384 -1.3254
19343TIP3    H279521   0.414   1.576  13.543  0.7287  1.9735 -0.9749
19344TIP3   OH279522   6.129   3.757   3.156  0.4512  0.6641  0.5230
19344TIP3    H179523   6.150   3.839   3.113  0.6874  0.3859  0.0990
19344TIP3    H279524   6.199   3.745   3.220  1.0409  0.2413 -0.1895
19345TIP3   OH279525   3.776   6.029  15.385 -0.6925 -0.2603  0.7780
19345TIP3    H179526   3.727   6.052  15.307  1.1609 -1.0361 -0.6812
19345TIP3    H279527   3.788   6.112  15.431  1.1637  0.8968 -1.5709
19346TIP3   OH279528   2.203   3.583   3.543 -0.4156  0.4317 -0.3457
19346TIP3    H179529   2.270   3.595   3.611  1.3673 -1.6589 -1.5738
19346TIP3    H279530   2.126   3.551   3.589 -0.6149  2.7800  1.1022
19347TIP3   OH279531   6.175   0.420  11.297  0.2860 -0.5296  0.6952
19347TIP3    H179532   6.188   0.325  11.293  1.8961 -0.3130 -0.4773
19347TIP3    H279533   6.238   0.455  11.233  0.4731  1.3856  1.8525
19348TIP3   OH279534   4.627   1.807   2.465  0.1373 -0.4908  0.5459
19348TIP3    H179535   4.621   1.899   2.437 -0.1150 -0.4011  0.8983
19348TIP3    H279536   4.568   1.760   2.406  0.0972 -0.3962  0.5099
19349TIP3   OH279537   4.950   5.945   4.344 -0.0564 -0.5139 -0.0362
19349TIP3    H179538   4.955   6.038   4.366  0.8427 -0.5081 -0.2286
19349TIP3    H279539   4.916   5.903   4.424 -0.3155 -0.0496  0.1033
19350TIP3   OH279540   2.081   0.572   0.237  0.0742  0.2085  0.2514
19350TIP3    H179541   2.120   0.544   0.155 -0.6601 -1.2552  0.3603
19350TIP3    H279542   2.147   0.552   0.304  0.1027  0.0631  0.1781
19351TIP3   OH279543   4.768   4.978   6.175 -0.2256 -0.2117  0.6597
19351TIP3    H179544   4.828   4.917   6.217  2.1983  2.4608  1.4342
19351TIP3    H279545   4.714   5.013   6.246 -1.3568 -1.1050  0.2775
19352TIP3   OH279546   2.774   6.787  13.544  0.3276  0.2882 -0.2166
19352TIP3    H179547   2.766   6.881  13.561 -0.9811 -0.0290  1.0929
19352TIP3    H279548   2.691   6.763  13.502 -0.6127 -0.7569  2.0487
19353TIP3   OH279549   5.883   5.782   1.146  0.6850 -0.3583  0.5179
19353TIP3    H179550   5.945   5.730   1.095  0.2704 -0.8975  0.5535
19353TIP3    H279551   5.901   5.872   1.121 -0.5689 -0.6786 -1.8253
19354TIP3   OH279552   1.751   5.168   3.863  0.3166 -0.6479  0.3440
19354TIP3    H179553   1.827   5.120   3.896 -0.8826 -2.0373  1.2665
19354TIP3    H279554   1.693   5.174   3.939  0.1571  1.8057  0.0873
19355TIP3   OH279555   4.367   2.388  16.400  0.1982  0.3518  0.0716
19355TIP3    H179556   4.342   2.313  16.454 -0.9257  0.5980 -0.0769
19355TIP3    H279557   4.312   2.380  16.321  0.1040  1.2859  0.0306
19356TIP3   OH279558   1.991   3.754  15.465  0.1429 -0.0791  0.4664
19356TIP3    H179559   1.922   3.821  15.460 -0.0784 -0.3801 -0.9297
19356TIP3    H279560   2.069   3.802  15.490  0.1013  0.8313 -1.0182
19357TIP3   OH279561   4.811   1.303   0.811 -0.1575  0.2967 -0.6497
19357TIP3    H179562   4.741   1.291   0.875  0.2114  2.2761  0.1595
19357TIP3    H279563   4.765   1.299   0.726 -0.8551 -0.8645 -0.2524
19358TIP3   OH279564   6.475   1.251   0.226  0.3581 -0.2963  0.6443
19358TIP3    H179565   6.412   1.322   0.234  0.7440  0.1198  0.0790
19358TIP3    H279566   6.424   1.177   0.193  0.0869 -0.0713  0.5579
19359TIP3   OH279567   4.338   2.984  11.537  0.0716 -0.0174 -0.4961
19359TIP3    H179568   4.252   3.019  11.515  0.2427 -0.4544 -1.9541
19359TIP3    H279569   4.363   3.031  11.616 -0.7856  1.3023 -0.9728
19360TIP3   OH279570   4.402   6.781   3.034 -0.6992 -0.4004  0.0959
19360TIP3    H179571   4.330   6.838   3.060  0.0881  0.0888  1.2805
19360TIP3    H279572   4.464   6.839   2.990 -0.6780 -0.6755 -0.2412
19361TIP3   OH279573   3.046   2.794   6.041 -0.7032  0.6621 -0.2193
19361TIP3    H179574   3.074   2.870   6.092 -1.3854  0.3247  0.6773
19361TIP3    H279575   3.068   2.719   6.095 -3.2745  0.3773  0.5485
19362TIP3   OH279576   6.050   4.387   4.566 -0.3623  0.1011  0.4147
19362TIP3    H179577   6.056   4.481   4.548  0.9252  0.1306  0.8981
19362TIP3    H279578   6.096   4.345   4.494 -0.6567 -0.1469  0.3662
19363TIP3   OH279579   5.489   0.954  11.313 -0.4689 -0.0882  0.3777
19363TIP3    H179580   5.491   1.049  11.315  1.2612 -0.1062  0.6484
19363TIP3    H279581   5.567   0.927  11.362 -0.1441 -1.6266 -0.9026
19364TIP3   OH279582   4.493   5.262  13.964  0.3111 -0.2904 -0.4627
19364TIP3    H179583   4.581   5.297  13.974 -0.6816  1.6120  3.2226
19364TIP3    H279584   4.440   5.310  14.027 -2.8264 -3.2962 -0.4952
19365TIP3   OH279585   5.195   2.576   2.520 -0.0603  0.0390 -0.2226
19365TIP3    H179586   5.266   2.524   2.482 -0.2222  0.5458 -1.2458
19365TIP3    H279587   5.170   2.528   2.600  1.8834  0.2231  0.5389
19366TIP3   OH279588   4.515   3.175   1.309 -0.8797 -0.2315 -0.6141
19366TIP3    H179589   4.447   3.240   1.295  0.1431  0.7502 -1.1214
19366TIP3    H279590   4.591   3.208   1.262  0.2940 -0.7587  0.8316
19367TIP3   OH279591   3.871   1.890   0.802  0.2389  0.4277 -0.2758
19367TIP3    H179592   3.899   1.968   0.849 -0.2048  0.2801  0.2391
19367TIP3    H279593   3.941   1.874   0.738  0.2887  1.2955 -0.4518
19368TIP3   OH279594   6.196   0.621   2.266  0.0063 -0.9649  0.3211
19368TIP3    H179595   6.180   0.702   2.314 -0.2089 -0.4809 -0.5378
19368TIP3    H279596   6.108   0.588   2.246  0.0914 -1.5676  0.9098
19369TIP3   OH279597   0.353   3.452  11.287 -0.5158  0.0882 -0.7494
19369TIP3    H179598   0.397   3.413  11.212 -1.2648  0.6996 -1.5261
19369TIP3    H279599   0.412   3.522  11.316  0.2126 -0.7426 -0.1654
19370TIP3   OH279600   6.712   4.251   2.192 -0.0495  0.2184 -0.1286
19370TIP3    H179601   6.652   4.182   2.221 -0.9566  0.1281 -2.0719
19370TIP3    H279602   6.763   4.273   2.270 -0.4566 -1.9094  0.8015
19371TIP3   OH279603   0.710   0.901  15.104 -0.1001 -0.4727  0.2463
19371TIP3    H179604   0.763   0.822  15.106  1.0135  0.2649  0.5365
19371TIP3    H279605   0.639   0.883  15.165  1.3727 -0.4258  2.0570
19372TIP3   OH279606   2.971   0.486  13.596  0.1091 -0.0852 -0.4175
19372TIP3    H179607   2.959   0.525  13.510 -2.2596  1.7797  0.6525
19372TIP3    H279608   3.028   0.548  13.643 -0.0688 -0.1721 -0.0853
19373TIP3   OH279609   6.319   0.081   1.292  0.2144  0.2907  0.3185
19373TIP3    H179610   6.261   0.156   1.306 -0.0858  0.0606  0.3214
19373TIP3    H279611   6.266   0.019   1.242 -0.4063 -0.9365  2.3489
19374TIP3   OH279612   2.406   4.788  16.293  0.0806  0.5198  0.3997
19374TIP3    H179613   2.439   4.813  16.379  0.6240  1.1331  0.0293
19374TIP3    H279614   2.401   4.871  16.245 -1.0133  0.2935  0.1055
19375TIP3   OH279615   4.713   5.565   4.718 -0.1888  0.5743  0.2756
19375TIP3    H179616   4.665   5.506   4.659  1.2179  1.7327 -2.1657
19375TIP3    H279617   4.795   5.519   4.736  1.1367  1.8326 -2.0462
19376TIP3   OH279618   5.291   1.773   4.085  0.0826 -0.1916 -0.6330
19376TIP3    H179619   5.325   1.802   4.169  0.4185  0.3787 -0.9571
19376TIP3    H279620   5.295   1.851   4.029 -1.3734 -0.2073 -0.8037
19377TIP3   OH279621   1.488   6.369  15.839  0.0500 -0.0093 -0.0534
19377TIP3    H179622   1.489   6.319  15.757 -0.5963  0.7617 -0.5523
19377TIP3    H279623   1.553   6.438  15.825 -0.3629  0.3779 -0.0960
19378TIP3   OH279624   4.837   3.248  13.331  0.0776  0.2468  0.0541
19378TIP3    H179625   4.760   3.247  13.275 -0.3828 -0.7541  0.6741
19378TIP3    H279626   4.805   3.221  13.417  1.1778 -0.5361  0.2396
19379TIP3   OH279627   4.630   1.814   2.947 -0.4996  0.3956 -0.8478
19379TIP3    H179628   4.667   1.900   2.925  3.8553 -0.9303  0.2678
19379TIP3    H279629   4.569   1.832   3.018  2.1303  2.5035  1.1037
19380TIP3   OH279630   3.220   5.649  14.492  0.1292 -0.1389 -0.4147
19380TIP3    H179631   3.244   5.716  14.556  2.6274 -1.0603 -0.2726
19380TIP3    H279632   3.221   5.568  14.542  0.3460 -0.6504 -1.2312
19381TIP3   OH279633   4.910   2.507   0.357  0.0298 -0.0772 -0.2703
19381TIP3    H179634   4.835   2.473   0.309 -0.4503 -1.3303  1.2441
19381TIP3    H279635   4.902   2.467   0.444  0.8390  2.0714  0.8689
19382TIP3   OH279636   1.511   6.325   1.045 -0.0760  0.0798 -0.1862
19382TIP3    H179637   1.592   6.282   1.017  0.8364  0.1424  2.1711
19382TIP3    H279638   1.443   6.286   0.989  1.4770 -0.3547 -1.8664
19383TIP3   OH279639   3.264   3.752   4.188  0.0055  0.0278  0.1856
19383TIP3    H179640   3.282   3.789   4.275  3.1373  0.2121 -0.4021
19383TIP3    H279641   3.318   3.673   4.185 -1.9112 -1.2880 -0.7852
19384TIP3   OH279642   1.031   4.131   5.962  0.2983 -0.2885  0.4262
19384TIP3    H179643   1.037   4.137   5.866 -1.6426  0.3972  0.2985
19384TIP3    H279644   0.956   4.074   5.977  0.9225 -0.8307  1.5620
19385TIP3   OH279645   6.617   5.164   5.496 -0.0337 -0.2752 -0.3941
19385TIP3    H179646   6.614   5.198   5.406  1.5875  1.8857  0.2852
19385TIP3    H279647   6.547   5.210   5.542 -0.0728 -0.4725 -0.2548
19386TIP3   OH279648   0.891   0.006   2.659  0.2004 -0.1257 -0.3410
19386TIP3    H179649   0.890   0.028   2.752 -0.2950 -0.5620 -0.2424
19386TIP3    H279650   0.941  -0.075   2.654  0.9283  0.3295 -0.5553
19387TIP3   OH279651   5.165   0.862   3.694 -0.1398 -0.2849 -1.0364
19387TIP3    H179652   5.154   0.768   3.702 -0.2935 -0.1428  0.7359
19387TIP3    H279653   5.110   0.899   3.763  0.0266  1.0988 -1.6089
19388TIP3   OH279654   0.974   0.065  13.414  0.0127 -0.4052 -0.1021
19388TIP3    H179655   1.041   0.130  13.394  0.0871 -0.3005  0.4826
19388TIP3    H279656   0.924   0.102  13.486 -1.3355 -0.0113 -1.1864
19389TIP3   OH279657   6.156   2.810   1.699  0.7180  0.4743  0.2786
19389TIP3    H179658   6.119   2.727   1.668  1.8450 -0.0657  0.3183
19389TIP3    H279659   6.237   2.785   1.744  0.5591  1.5128  1.1702
19390TIP3   OH279660   6.821   3.614  15.775 -0.1223  0.0749  0.2510
19390TIP3    H179661   6.747   3.554  15.784  1.3414 -1.7711  0.6117
19390TIP3    H279662   6.837   3.617  15.681  1.1005 -1.8770  0.3352
19391TIP3   OH279663   4.258   3.313   4.331 -0.3523  0.7149  0.0686
19391TIP3    H179664   4.180   3.308   4.276  0.3797  0.5823 -0.9808
19391TIP3    H279665   4.224   3.335   4.418 -1.5750  0.4120 -0.3096
19392TIP3   OH279666   2.086   1.266  17.311  0.2034 -0.1190  0.0588
19392TIP3    H179667   2.177   1.296  17.311  0.7532 -1.6924  0.0119
19392TIP3    H279668   2.063   1.261  17.404  0.0396  0.5854  0.0647
19393TIP3   OH279669   1.324   1.614   2.938 -0.1691  0.4641 -0.6639
19393TIP3    H179670   1.414   1.599   2.910 -0.0815 -0.5057  0.0726
19393TIP3    H279671   1.280   1.648   2.861  0.9407  1.4464 -0.8970
19394TIP3   OH279672   0.261   6.765   6.017 -0.3564  0.0396  0.1297
19394TIP3    H179673   0.327   6.823   6.056  0.2286  0.8812 -1.9741
19394TIP3    H279674   0.222   6.720   6.092  0.6966  1.5388  1.6700
19395TIP3   OH279675   4.579   3.115   2.373 -0.2559  0.1244  0.1909
19395TIP3    H179676   4.519   3.105   2.298 -0.7330  2.5252  0.1762
19395TIP3    H279677   4.661   3.144   2.334  0.2393 -0.8941  0.4344
19396TIP3   OH279678   4.659   1.476  13.167  0.2603 -0.0408  0.3219
19396TIP3    H179679   4.567   1.455  13.183 -0.3731  1.3905 -1.1393
19396TIP3    H279680   4.675   1.446  13.077  1.1003  0.1014  0.4174
19397TIP3   OH279681   4.838   1.128  17.189 -0.7623 -0.5925  0.7895
19397TIP3    H179682   4.812   1.036  17.192  2.5692 -1.8914 -2.7933
19397TIP3    H279683   4.784   1.166  17.121  0.5907 -1.0748 -0.6171
19398TIP3   OH279684   2.093   6.767   6.178 -0.0659 -0.3748  0.3716
19398TIP3    H179685   2.043   6.848   6.164 -0.2903 -0.5665  0.0400
19398TIP3    H279686   2.156   6.789   6.247 -0.4848 -0.0724  0.6631
19399TIP3   OH279687   6.307   3.236  10.587 -0.1754 -0.6955 -0.3350
19399TIP3    H179688   6.217   3.238  10.620  0.0742 -1.9868  0.4885
19399TIP3    H279689   6.302   3.184  10.507 -0.5903  1.5141 -1.8272
19400TIP3   OH279690   6.499   6.398  11.495  0.0023 -0.1425  0.8505
19400TIP3    H179691   6.529   6.328  11.553 -1.1530 -0.6638  0.8452
19400TIP3    H279692   6.403   6.389  11.495 -0.0074 -0.6073 -1.6718
19401TIP3   OH279693   6.698   6.708   4.183  0.0150 -0.1806  0.3697
19401TIP3    H179694   6.704   6.686   4.276 -0.0597  1.2377  0.7362
19401TIP3    H279695   6.606   6.694   4.161  0.0596 -0.6414  0.4809
19402TIP3   OH279696   3.813   4.627   0.301 -0.3575 -0.2665 -0.2976
19402TIP3    H179697   3.827   4.649   0.209  3.5550  1.0728  0.4117
19402TIP3    H279698   3.886   4.568   0.322 -1.3984 -0.8795  1.8436
19403TIP3   OH279699   6.056   1.657   1.239 -0.1392  0.3920  0.0160
19403TIP3    H179700   6.008   1.674   1.157 -0.7888  0.6831  0.4507
19403TIP3    H279701   6.016   1.715   1.303 -1.3659 -1.6120  1.1717
19404TIP3   OH279702   1.757   1.267  12.076  0.0599 -0.2197  0.3542
19404TIP3    H179703   1.731   1.344  12.127 -1.6698  0.3283 -1.2549
19404TIP3    H279704   1.850   1.255  12.096  0.4065  2.3663  0.5660
19405TIP3   OH279705   0.509   5.013  14.254 -0.1930  0.4502 -0.8019
19405TIP3    H179706   0.519   5.108  14.250 -0.4826  0.4738 -1.0268
19405TIP3    H279707   0.460   4.997  14.335 -0.2600  0.5052 -0.8313
19406TIP3   OH279708   4.464   5.852   1.920 -0.3416  0.0222 -0.2425
19406TIP3    H179709   4.403   5.915   1.883 -1.0221  0.3615  1.3881
19406TIP3    H279710   4.543   5.902   1.939 -0.1394 -0.0677 -0.8150
19407TIP3   OH279711   0.922   6.085  11.227 -0.0677  0.0652  0.4105
19407TIP3    H179712   0.865   6.036  11.286 -1.2454  1.2102  0.2510
19407TIP3    H279713   0.974   6.018  11.183  1.4868 -0.8301  3.3026
19408TIP3   OH279714   3.711   3.119   0.020  0.2067  0.2907  0.0047
19408TIP3    H179715   3.774   3.151  -0.044  0.8278 -0.7794  0.0547
19408TIP3    H279716   3.750   3.138   0.105 -0.9054  2.2894  0.1241
19409TIP3   OH279717   4.932   2.861  16.378 -0.4704 -0.0121 -0.4298
19409TIP3    H179718   4.938   2.804  16.454  1.6698 -0.2927 -0.7413
19409TIP3    H279719   5.009   2.838  16.325 -1.6168  0.5207 -2.4323
19410TIP3   OH279720   1.504   5.146  12.250 -0.3985  0.1022  0.3766
19410TIP3    H179721   1.543   5.129  12.336  0.0456  2.2673  0.6511
19410TIP3    H279722   1.500   5.241  12.244 -1.0768 -0.0207 -1.7267
19411TIP3   OH279723   1.285   0.386   4.041  0.1230  0.3423  0.2762
19411TIP3    H179724   1.329   0.457   4.088  0.7304  0.2509 -0.1353
19411TIP3    H279725   1.282   0.417   3.950  0.4229 -0.1756  0.0882
19412TIP3   OH279726   5.566   6.748   4.485  0.2328  0.0804  0.1339
19412TIP3    H179727   5.651   6.707   4.467 -0.1272 -1.1861  1.1505
19412TIP3    H279728   5.537   6.709   4.568 -1.0098  1.0417  0.1943
19413TIP3   OH279729   0.223   3.784   0.484 -0.6707  0.4118  0.0533
19413TIP3    H179730   0.142   3.794   0.434 -0.2179  1.1101 -0.5496
19413TIP3    H279731   0.195   3.789   0.576 -1.1342  2.2217 -0.1512
19414TIP3   OH279732   4.810   5.238  11.461  0.5254 -0.0750 -0.3976
19414TIP3    H179733   4.858   5.190  11.528  0.3558 -0.5377 -0.6032
19414TIP3    H279734   4.858   5.320  11.450 -0.6228  0.9892  1.8419
19415TIP3   OH279735   1.779   3.843  11.990  0.3193 -0.1423 -0.1830
19415TIP3    H179736   1.872   3.833  12.008  0.2684 -0.8946 -0.3313
19415TIP3    H279737   1.741   3.757  12.007 -0.2078 -0.0782 -0.9591
19416TIP3   OH279738   2.535   2.490   4.102  0.0555  0.4136  0.4649
19416TIP3    H179739   2.487   2.473   4.183  1.0368  0.0039  0.9697
19416TIP3    H279740   2.603   2.552   4.127 -0.2876  1.1123 -0.2823
19417TIP3   OH279741   4.083   0.215  14.764 -0.1421 -0.9247  0.1250
19417TIP3    H179742   4.172   0.242  14.787 -0.3012 -0.1684 -0.1018
19417TIP3    H279743   4.087   0.198  14.670 -0.2622 -0.7631  0.0895
19418TIP3   OH279744   1.058   0.342   3.050  0.3866 -0.8213 -0.0551
19418TIP3    H179745   0.962   0.344   3.047  0.0729  2.2787  4.1289
19418TIP3    H279746   1.086   0.422   3.006  0.7840 -0.1832  1.2973
19419TIP3   OH279747   2.157   3.947   0.958 -0.2885 -0.2147  0.0711
19419TIP3    H179748   2.251   3.929   0.956 -0.4939 -1.8837 -3.9726
19419TIP3    H279749   2.124   3.897   1.033  1.6832 -2.1580 -0.2699
19420TIP3   OH279750   4.135   4.810  16.739 -0.1746  0.1794 -0.0916
19420TIP3    H179751   4.203   4.783  16.677  0.3728 -0.5812  0.8148
19420TIP3    H279752   4.087   4.729  16.759  0.2879  0.2083  1.2274
19421TIP3   OH279753   1.563   5.334  15.399 -0.2959 -0.3018 -0.0434
19421TIP3    H179754   1.519   5.349  15.316 -0.6981 -0.9129  0.0534
19421TIP3    H279755   1.538   5.408  15.454  0.4170  0.3997 -0.6374
19422TIP3   OH279756   5.002   1.441  15.407  0.0530 -0.0912 -0.1030
19422TIP3    H179757   4.982   1.353  15.375 -2.9707  0.0013  1.2404
19422TIP3    H279758   5.098   1.447  15.401  0.6173 -4.1998  1.5988
19423TIP3   OH279759   3.949   4.648  10.749 -0.0438  0.2701 -0.2538
19423TIP3    H179760   3.896   4.624  10.672  0.0716  0.5585 -0.4231
19423TIP3    H279761   3.912   4.731  10.779 -0.2860  0.0078  0.1897
19424TIP3   OH279762   3.225   3.358  13.314  0.6699  0.0643  0.5748
19424TIP3    H179763   3.156   3.360  13.380  0.8189  0.6819  0.7173
19424TIP3    H279764   3.181   3.375  13.232  0.7946  1.6421  0.8023
19425TIP3   OH279765   0.536   6.370  15.260 -0.0419 -0.4464  0.1922
19425TIP3    H179766   0.472   6.364  15.189  0.6997  0.5944 -0.5949
19425TIP3    H279767   0.505   6.443  15.313  0.5087  0.0864 -0.2155
19426TIP3   OH279768   0.656   5.079   4.868 -0.5616 -0.4474  0.1004
19426TIP3    H179769   0.624   5.113   4.785 -0.5626 -0.6420  0.0208
19426TIP3    H279770   0.585   5.093   4.930 -0.4146  0.0577  0.1595
19427TIP3   OH279771   3.294   5.866   0.179  0.6280  0.0764 -1.1181
19427TIP3    H179772   3.352   5.850   0.105  2.1732  0.6029 -0.0838
19427TIP3    H279773   3.309   5.957   0.202  0.0500 -0.0318 -0.2495
19428TIP3   OH279774   4.293   1.653  13.229  0.1774  0.3665  0.2763
19428TIP3    H179775   4.342   1.713  13.286 -0.6623  1.5970 -0.2626
19428TIP3    H279776   4.247   1.710  13.168 -2.0402 -0.7186  0.8337
19429TIP3   OH279777   3.850   6.465   4.381  0.2339  0.0910  0.4053
19429TIP3    H179778   3.864   6.452   4.474 -0.6809 -1.0710  0.3926
19429TIP3    H279779   3.893   6.391   4.339 -1.9830 -1.0962  0.1120
19430TIP3   OH279780   3.913   6.485  11.942 -0.2622 -0.2248 -0.2444
19430TIP3    H179781   3.879   6.574  11.939 -0.4439 -0.2777  0.2174
19430TIP3    H279782   3.965   6.482  12.022  2.0764  0.2978 -1.6599
19431TIP3   OH279783   3.465   3.060  15.971  0.2699  0.4728 -0.2716
19431TIP3    H179784   3.536   3.095  15.917  0.0611  1.1977 -0.0914
19431TIP3    H279785   3.509   3.000  16.031  1.0508  2.2761  1.0718
19432TIP3   OH279786   1.371   4.288   6.261  0.0724 -0.2400 -0.2351
19432TIP3    H179787   1.433   4.361   6.261 -0.6312  0.3813  0.6295
19432TIP3    H279788   1.420   4.215   6.299  1.1254 -0.5561 -2.1113
19433TIP3   OH279789   2.281   2.250  12.879 -0.0000  0.0894 -0.1777
19433TIP3    H179790   2.241   2.314  12.938  1.2070 -0.4485  1.2868
19433TIP3    H279791   2.354   2.296  12.838  0.3048 -0.0841  0.1721
19434TIP3   OH279792   3.744   6.744  11.900 -0.0286  0.0658  0.3599
19434TIP3    H179793   3.670   6.802  11.918 -0.9596 -0.8695 -0.4225
19434TIP3    H279794   3.761   6.755  11.807 -0.7602 -1.5494  0.0214
19435TIP3   OH279795   2.766   5.900   3.295 -0.3637 -0.0004  0.0575
19435TIP3    H179796   2.672   5.909   3.281 -0.1356  1.3821 -0.7534
19435TIP3    H279797   2.805   5.963   3.235  1.0524  0.0704  1.0192
19436TIP3   OH279798   5.521   3.451  16.788 -0.1255  0.0401 -0.2587
19436TIP3    H179799   5.555   3.377  16.839 -1.0378 -0.6770 -0.6639
19436TIP3    H279800   5.426   3.447  16.800 -0.1804  1.2896 -0.1079
19437TIP3   OH279801   2.924   6.752   0.640 -0.0411  0.4867 -0.1004
19437TIP3    H179802   2.956   6.662   0.636  0.9824  0.8505 -0.2835
19437TIP3    H279803   2.849   6.753   0.579  0.1347 -0.1573 -0.3353
19438TIP3   OH279804   4.024   3.248  13.355 -0.8591  0.2358  0.0061
19438TIP3    H179805   4.038   3.329  13.306  0.3759 -0.5719 -1.0641
19438TIP3    H279806   4.110   3.206  13.356 -1.7163 -1.6475 -0.5550
19439TIP3   OH279807   3.491   6.208   4.616  0.7506  0.4164 -0.0605
19439TIP3    H179808   3.414   6.182   4.668  1.5741  0.8680  1.4414
19439TIP3    H279809   3.467   6.293   4.579  0.5219  0.5573  0.4011
19440TIP3   OH279810   1.586   6.500  12.389 -0.7596 -0.2841  0.5558
19440TIP3    H179811   1.568   6.594  12.382 -1.6246 -0.4370  0.6679
19440TIP3    H279812   1.651   6.483  12.320 -2.2856 -0.0279 -1.0171
19441TIP3   OH279813   3.980   3.350   2.645 -0.0807  0.5558  0.8632
19441TIP3    H179814   4.008   3.427   2.596  2.6608 -0.3611  0.8057
19441TIP3    H279815   4.025   3.277   2.602 -1.0827 -0.8270  2.0836
19442TIP3   OH279816   6.814   3.798   5.554  0.0148  0.0600 -0.6584
19442TIP3    H179817   6.840   3.837   5.637  0.1435 -1.3672  0.0122
19442TIP3    H279818   6.896   3.780   5.508 -0.0417  0.5000 -0.9434
19443TIP3   OH279819   6.336   5.063   6.130  0.0004  0.6939 -0.4573
19443TIP3    H179820   6.372   4.997   6.070 -0.9921  0.0519 -0.3623
19443TIP3    H279821   6.323   5.017   6.212  1.7289  1.6692  0.4225
19444TIP3   OH279822   2.374   3.677  11.577  0.3168 -0.6955  0.1389
19444TIP3    H179823   2.368   3.594  11.530  0.8069 -0.9505  0.5177
19444TIP3    H279824   2.325   3.662  11.658 -1.3334  0.0370 -0.6566
19445TIP3   OH279825   4.402   6.293  15.096  0.2028 -0.0316  0.0423
19445TIP3    H179826   4.378   6.285  15.004  0.1239  0.2922  0.0324
19445TIP3    H279827   4.488   6.337  15.095 -0.2347  0.8518  0.1494
19446TIP3   OH279828   0.758   0.062  14.988 -0.2527 -0.0418  0.3672
19446TIP3    H179829   0.734   0.005  14.915 -1.1415 -0.6812  1.1309
19446TIP3    H279830   0.851   0.042  15.003 -0.3807 -0.8192  0.1990
19447TIP3   OH279831   2.105   0.393   0.659 -0.3185 -0.3897 -0.4214
19447TIP3    H179832   2.126   0.486   0.668 -0.1428 -0.2281 -2.1929
19447TIP3    H279833   2.179   0.349   0.700 -1.1276  0.2075  1.8406
19448TIP3   OH279834   0.878   5.268  13.626 -0.2623  0.4609 -0.3555
19448TIP3    H179835   0.954   5.213  13.612 -0.0818  0.7773 -0.6261
19448TIP3    H279836   0.826   5.221  13.692 -1.1427 -1.0723 -2.0473
19449TIP3   OH279837   1.499   6.374   1.320 -0.1884  0.1976  0.4234
19449TIP3    H179838   1.486   6.285   1.355 -1.3594  0.3698  0.4472
19449TIP3    H279839   1.513   6.361   1.227 -1.4348  0.0590  0.2472
19450TIP3   OH279840   4.675   2.400  11.840 -0.2448 -0.5875  0.3454
19450TIP3    H179841   4.671   2.467  11.772 -1.9624 -3.2184 -2.4043
19450TIP3    H279842   4.759   2.356  11.826 -0.4216 -0.8765  0.1836
19451TIP3   OH279843   0.032   0.907   4.209  0.1507  0.8343  0.2862
19451TIP3    H179844  -0.046   0.932   4.259  0.3758  0.2142  0.9500
19451TIP3    H279845   0.036   0.812   4.217 -0.2778  0.6139 -1.6048
19452TIP3   OH279846   6.796   4.986  11.077 -0.2651 -0.5829  0.2384
19452TIP3    H179847   6.745   4.998  10.997  0.9357  0.1711 -0.4532
19452TIP3    H279848   6.739   5.018  11.147 -0.4681  1.0080 -0.5999
19453TIP3   OH279849   0.255   1.282   0.838  0.1579  0.1120 -0.4536
19453TIP3    H179850   0.268   1.253   0.748  3.3583  0.7268 -0.3256
19453TIP3    H279851   0.249   1.377   0.832 -1.5134  0.0488 -0.1332
19454TIP3   OH279852   5.175   6.757  14.208 -0.0457  0.4481  0.0162
19454TIP3    H179853   5.118   6.763  14.131 -1.3517  1.5940  1.0223
19454TIP3    H279854   5.178   6.846  14.242 -0.1037 -0.1720  1.7072
19455TIP3   OH279855   2.349   3.492  12.238  0.3713 -0.3907  0.9868
19455TIP3    H179856   2.350   3.578  12.281  0.6926 -0.4519  1.1111
19455TIP3    H279857   2.259   3.462  12.244  0.0926  0.2651  0.2888
19456TIP3   OH279858   0.254   1.984  12.779  0.1614  0.1860 -0.4867
19456TIP3    H179859   0.217   2.071  12.764 -0.0790  0.1957  0.1010
19456TIP3    H279860   0.278   1.951  12.692 -0.4023  0.5483 -0.7785
19457TIP3   OH279861   6.468   0.634  11.458 -0.7750  0.3644  0.1498
19457TIP3    H179862   6.542   0.633  11.398 -1.6767  1.0428 -0.9900
19457TIP3    H279863   6.476   0.716  11.506 -0.1798 -0.0771  0.8333
19458TIP3   OH279864   3.948   6.385  16.938 -0.8536 -0.0753  0.5036
19458TIP3    H179865   4.041   6.381  16.960 -0.4051 -1.3124 -1.4462
19458TIP3    H279866   3.909   6.311  16.985 -0.8369  0.2802  1.0980
19459TIP3   OH279867   0.815   2.040  15.758  0.9465  0.3971  0.7296
19459TIP3    H179868   0.730   2.064  15.722  0.6413 -0.0814  1.1176
19459TIP3    H279869   0.866   2.120  15.753  0.4051  0.7465  0.6885
19460TIP3   OH279870   6.110   1.303  11.247  0.0766  0.2213  0.0201
19460TIP3    H179871   6.191   1.288  11.198 -1.1113  2.1096 -2.7174
19460TIP3    H279872   6.044   1.250  11.201 -0.4023 -0.9906  1.9786
19461TIP3   OH279873   5.153   6.179   5.825  0.3063  0.1773 -0.3392
19461TIP3    H179874   5.163   6.259   5.773  4.4958  0.8327  1.0576
19461TIP3    H279875   5.123   6.209   5.911  1.1045  0.1960 -0.0562
19462TIP3   OH279876   1.678   6.152   3.149  0.7633 -0.0751  0.7125
19462TIP3    H179877   1.729   6.084   3.195 -0.8836 -0.4329  2.1353
19462TIP3    H279878   1.652   6.213   3.219  1.3938  1.5268 -0.3972
19463TIP3   OH279879   4.242   0.944   4.849  0.1536 -0.0165  0.1823
19463TIP3    H179880   4.183   1.018   4.863 -0.7535 -0.8421  0.8770
19463TIP3    H279881   4.328   0.984   4.836 -0.6443  1.2556 -1.5418
19464TIP3   OH279882   4.775   3.517   0.874 -0.2462 -0.4665  0.1953
19464TIP3    H179883   4.748   3.565   0.795  0.7622  1.2114  0.8255
19464TIP3    H279884   4.833   3.448   0.842  2.0266  1.5924 -0.4423
19465TIP3   OH279885   1.990   3.639   2.024  0.6383  0.4366  0.0718
19465TIP3    H179886   2.058   3.603   1.968  0.5201  1.3496 -0.6797
19465TIP3    H279887   2.028   3.719   2.059  0.0167  0.8756 -0.2393
19466TIP3   OH279888   0.221   3.381  14.388 -0.3326 -0.1583 -0.5214
19466TIP3    H179889   0.260   3.357  14.472 -1.5649 -2.9153 -0.6070
19466TIP3    H279890   0.295   3.387  14.327  0.3133 -1.7012  0.0537
19467TIP3   OH279891   6.073   3.725  16.118  0.1962  0.6574  0.0477
19467TIP3    H179892   6.053   3.660  16.051  2.7590  1.7836 -2.0056
19467TIP3    H279893   5.988   3.759  16.145 -1.3079 -3.4572  1.3330
19468TIP3   OH279894   4.720   6.585  14.792 -0.5105  0.7377 -0.1057
19468TIP3    H179895   4.773   6.648  14.744  1.4486  0.9576  2.1179
19468TIP3    H279896   4.779   6.511  14.806 -1.0632  0.5864  1.6449
19469TIP3   OH279897   1.935   4.530  17.211 -0.5397 -0.0136 -0.5345
19469TIP3    H179898   1.929   4.611  17.160 -0.6128  0.3679  0.0622
19469TIP3    H279899   2.020   4.494  17.188  0.6686  1.5931  1.1237
19470TIP3   OH279900   5.604   5.100   2.599  0.3180 -0.2963  0.5099
19470TIP3    H179901   5.662   5.060   2.534 -1.7882 -1.6513 -0.6904
19470TIP3    H279902   5.616   5.046   2.677  1.7674  0.4066  0.8036
19471TIP3   OH279903   1.567   4.768   5.373 -0.4427 -0.5007  0.2612
19471TIP3    H179904   1.595   4.690   5.421  0.0406 -0.0995  0.6471
19471TIP3    H279905   1.628   4.837   5.400 -0.5005 -0.1244 -0.5090
19472TIP3   OH279906   5.679   5.521   0.849 -0.0896  0.2682 -0.5859
19472TIP3    H179907   5.613   5.454   0.864 -0.5140  1.1145  1.6617
19472TIP3    H279908   5.643   5.573   0.777 -1.0657 -0.2791 -0.5146
19473TIP3   OH279909   3.645   0.204   0.688 -0.6003  0.3474  0.5477
19473TIP3    H179910   3.588   0.250   0.749  0.0456  1.6759  0.1828
19473TIP3    H279911   3.733   0.233   0.711 -0.2856  0.2707 -0.5210
19474TIP3   OH279912   6.179   5.376   1.318 -0.5823  0.4360  0.4581
19474TIP3    H179913   6.199   5.455   1.269  0.6392  1.9500  3.1421
19474TIP3    H279914   6.264   5.336   1.335 -1.1229 -1.0599 -0.1859
19475TIP3   OH279915   2.827   2.414   5.484  0.4742 -0.4789 -0.2069
19475TIP3    H179916   2.823   2.490   5.543 -0.4939 -1.4130  0.9937
19475TIP3    H279917   2.921   2.399   5.472  0.6958  1.0894 -0.7535
19476TIP3   OH279918   3.599   6.657   6.088 -0.3989  0.1323  0.1131
19476TIP3    H179919   3.578   6.683   6.178 -4.2597  0.1140 -0.5863
19476TIP3    H279920   3.602   6.739   6.039 -0.4251  0.0133 -0.0912
19477TIP3   OH279921   4.477   0.346  13.833  0.1473  0.6297 -0.5851
19477TIP3    H179922   4.557   0.389  13.862  1.3866 -3.0279  2.3171
19477TIP3    H279923   4.409   0.381  13.891  0.6279  0.5162  0.0644
19478TIP3   OH279924   1.326   3.016   3.098 -0.1449 -0.3786 -0.4058
19478TIP3    H179925   1.335   2.966   3.179 -2.5338 -0.4228 -0.0835
19478TIP3    H279926   1.270   2.961   3.043  1.7716 -0.5477 -2.3175
19479TIP3   OH279927   2.510   4.478  13.320  0.4854  0.2334 -0.2598
19479TIP3    H179928   2.520   4.436  13.405  1.3700 -1.6595 -1.2244
19479TIP3    H279929   2.591   4.527  13.307 -0.0104  1.2336  0.3250
19480TIP3   OH279930   4.974   4.227  17.206  0.2406  0.3087 -0.4277
19480TIP3    H179931   4.947   4.205  17.295  2.1549 -1.0828 -0.1384
19480TIP3    H279932   4.894   4.259  17.163 -1.4100 -1.9033  0.8609
19481TIP3   OH279933   6.502   0.453  11.653  0.1341 -0.1934 -0.4099
19481TIP3    H179934   6.484   0.511  11.579  0.2989  1.3137  0.7051
19481TIP3    H279935   6.592   0.474  11.680  0.2198 -1.0030 -0.0023
19482TIP3   OH279936   5.822   1.895  13.807 -0.0052  0.2488  0.0827
19482TIP3    H179937   5.727   1.903  13.801 -0.0825  0.4649  1.3077
19482TIP3    H279938   5.846   1.837  13.734 -1.5740 -3.3544  2.1416
19483TIP3   OH279939   1.058   2.301   1.023  0.3937  0.7059 -0.0143
19483TIP3    H179940   1.117   2.367   0.987  1.2543 -0.0639 -0.0480
19483TIP3    H279941   1.074   2.223   0.970 -1.0429  0.6198 -0.3662
19484TIP3   OH279942   0.361   2.633   5.615  0.4109 -0.5148  0.0971
19484TIP3    H179943   0.326   2.714   5.578 -0.3724  0.1743  2.1548
19484TIP3    H279944   0.298   2.565   5.589 -0.0287 -0.0854  0.0212
19485TIP3   OH279945   3.784   2.265   1.866  0.5218 -0.5757 -0.3415
19485TIP3    H179946   3.876   2.264   1.892  0.7832 -1.9665 -1.1855
19485TIP3    H279947   3.775   2.344   1.814  1.3878 -0.7077 -0.7157
19486TIP3   OH279948   3.363   0.607   5.036  0.4384 -0.1311 -0.3222
19486TIP3    H179949   3.443   0.657   5.052  1.4003 -1.4967 -0.7129
19486TIP3    H279950   3.308   0.666   4.984  0.3645  1.5294  1.5416
19487TIP3   OH279951   5.246   4.032  10.939 -0.0563 -0.2442  0.1892
19487TIP3    H179952   5.314   4.016  10.874  2.3449 -1.0708  2.7133
19487TIP3    H279953   5.192   3.953  10.936 -1.5005  0.6930 -2.2957
19488TIP3   OH279954   2.824   4.361   4.556 -0.0068  0.1878 -0.3945
19488TIP3    H179955   2.828   4.296   4.486  0.6254  0.2497 -0.4223
19488TIP3    H279956   2.840   4.445   4.512  1.3180  0.1379 -0.0670
19489TIP3   OH279957   2.048   2.539   2.112 -0.3853  0.2245 -0.4292
19489TIP3    H179958   2.010   2.480   2.047  3.3209 -2.6407 -0.3290
19489TIP3    H279959   2.056   2.485   2.191  2.8175  0.8479 -0.2132
19490TIP3   OH279960   0.726   0.823   1.020 -0.2219  0.3050  0.3332
19490TIP3    H179961   0.700   0.841   0.929  1.3064 -0.0294 -0.1858
19490TIP3    H279962   0.693   0.735   1.037  0.5264 -0.1093 -0.3133
19491TIP3   OH279963   0.504   5.726   5.672  0.2997 -0.7916  0.7677
19491TIP3    H179964   0.583   5.744   5.622  1.1898 -1.3136  1.9597
19491TIP3    H279965   0.507   5.788   5.745 -0.2198 -1.0473  1.0131
19492TIP3   OH279966   4.267   5.934   6.001  0.1409 -0.1816  0.2225
19492TIP3    H179967   4.284   5.909   6.092  2.4634  0.5386  0.0543
19492TIP3    H279968   4.352   5.963   5.968 -0.6504 -0.4243 -2.2006
19493TIP3   OH279969   0.772   3.204  13.051  0.3286 -0.3584  0.3616
19493TIP3    H179970   0.844   3.152  13.088 -0.7499 -2.1329  0.0881
19493TIP3    H279971   0.693   3.161  13.084 -0.6300  0.0744 -1.2855
19494TIP3   OH279972   4.842   2.103  14.643 -0.2793  0.3310 -0.0619
19494TIP3    H179973   4.847   2.013  14.677  0.6245 -0.0694 -1.1886
19494TIP3    H279974   4.798   2.094  14.558 -1.6758  1.1945  0.5256
19495TIP3   OH279975   6.225   3.925  15.969 -0.3528 -0.1449 -0.6891
19495TIP3    H179976   6.189   3.857  16.026  1.0574 -1.1072 -0.8914
19495TIP3    H279977   6.302   3.957  16.017  0.0832 -0.0329 -1.4542
19496TIP3   OH279978   5.450   0.611   6.423  0.5833 -0.2901 -0.4176
19496TIP3    H179979   5.367   0.609   6.472  2.1300  2.5546  2.7256
19496TIP3    H279980   5.431   0.666   6.347 -0.8430 -1.3707 -0.9087
19497TIP3   OH279981   3.776   0.668   4.587  0.0309 -0.4973  0.7122
19497TIP3    H179982   3.807   0.653   4.498 -0.1693 -0.5653  0.6531
19497TIP3    H279983   3.777   0.582   4.628 -1.8343 -0.8362  0.1399
19498TIP3   OH279984   3.136   6.101  17.196 -0.4527 -0.3627 -0.8726
19498TIP3    H179985   3.134   6.196  17.185  0.7566  0.2647  2.6864
19498TIP3    H279986   3.223   6.076  17.164 -1.1144 -0.4649 -2.6586
19499TIP3   OH279987   2.103   5.177  16.829  0.2918 -0.0491  0.5174
19499TIP3    H179988   2.134   5.190  16.919  1.1975  0.8472  0.0962
19499TIP3    H279989   2.156   5.104  16.796 -0.1677 -0.4999  0.7519
19500TIP3   OH279990   6.177   5.421  12.030  0.6712  0.5798 -0.6464
19500TIP3    H179991   6.089   5.435  12.066 -0.1889 -2.2826 -1.2864
19500TIP3    H279992   6.161   5.383  11.944  2.5100 -0.6214 -0.5174
19501TIP3   OH279993   1.135   4.359   4.296  0.2596 -0.8928 -0.1146
19501TIP3    H179994   1.054   4.329   4.255 -0.0740 -0.4539  0.2153
19501TIP3    H279995   1.188   4.280   4.305 -0.6950 -1.4413  0.9385
19502TIP3   OH279996   2.242   2.072  13.628 -0.2256  0.4489  0.0288
19502TIP3    H179997   2.310   2.026  13.579  0.3736  2.4079 -1.0860
19502TIP3    H279998   2.161   2.054  13.580  0.3440  2.3076 -1.7893
19503TIP3   OH279999   2.001   5.524   2.405 -0.0003  0.6392 -0.2417
19503TIP3    H180000   2.088   5.496   2.377  1.0742  2.5961  0.9171
19503TIP3    H280001   1.990   5.486   2.493 -1.0821 -0.9995 -1.0341
19504TIP3   OH280002   0.252   2.164   4.879  0.5342 -0.4196 -0.1629
19504TIP3    H180003   0.182   2.130   4.824  0.8821  0.0219 -0.9055
19504TIP3    H280004   0.301   2.223   4.821  2.2066 -1.5873 -0.0026
19505TIP3   OH280005   2.312   5.895  17.263 -0.2859 -0.1048 -0.1165
19505TIP3    H180006   2.222   5.904  17.293 -0.6864 -1.7008 -0.7468
19505TIP3    H280007   2.316   5.947  17.182 -0.0594  1.6091  0.9515
19506TIP3   OH280008   6.308   5.577   4.181  0.1846  0.6841 -0.0292
19506TIP3    H180009   6.304   5.493   4.136  0.4747 -0.0964  1.3435
19506TIP3    H280010   6.282   5.641   4.115 -0.5817 -0.5328 -0.9560
19507TIP3   OH280011   1.715   3.055   3.476  0.3990  0.2117  0.3370
19507TIP3    H180012   1.714   3.149   3.496 -0.4904  0.0363  1.1730
19507TIP3    H280013   1.771   3.017   3.543  0.9550  0.1643 -0.1462
19508TIP3   OH280014   1.185   4.194   5.716  0.5650 -0.6134  0.3734
19508TIP3    H180015   1.102   4.241   5.722  1.1538  0.4885  0.1461
19508TIP3    H280016   1.183   4.155   5.629  0.1806 -0.8044  0.4634
19509TIP3   OH280017   6.800   3.975  11.542 -0.8428 -0.4904 -0.2578
19509TIP3    H180018   6.753   3.900  11.580 -1.0026 -0.5888 -0.6517
19509TIP3    H280019   6.789   4.045  11.607  1.1326 -1.4091  1.1527
19510TIP3   OH280020   5.340   1.548   6.192  0.0439  0.9365 -0.2904
19510TIP3    H180021   5.366   1.531   6.101  0.3055  0.3621 -0.1147
19510TIP3    H280022   5.292   1.631   6.188 -1.5598  0.0132 -1.2430
19511TIP3   OH280023   0.681   5.203   3.727 -0.6848  0.1458 -0.0237
19511TIP3    H180024   0.646   5.217   3.816 -1.9523  0.6716 -0.5832
19511TIP3    H280025   0.713   5.289   3.700  0.2471 -0.1413  0.1280
19512TIP3   OH280026   2.062   4.432   5.601 -0.0643  0.3032  0.2002
19512TIP3    H180027   2.158   4.428   5.601 -0.0545 -0.2106  1.9239
19512TIP3    H280028   2.037   4.409   5.691 -1.8383 -0.4415 -0.4462
19513TIP3   OH280029   6.101   2.112  13.334  0.7268 -0.0865 -0.0292
19513TIP3    H180030   6.118   2.197  13.374  0.5044 -1.2931  2.8855
19513TIP3    H280031   6.186   2.067  13.337  0.8879  0.0657 -1.7207
19514TIP3   OH280032   1.295   1.253   4.019  0.0003  0.9640  0.3302
19514TIP3    H180033   1.379   1.275   4.059 -0.0368  0.9863  0.3964
19514TIP3    H280034   1.318   1.213   3.935  0.0634  1.3906  0.1427
19515TIP3   OH280035   6.587   5.539  10.864  0.1564 -0.7531  0.6906
19515TIP3    H180036   6.600   5.588  10.783 -1.1719 -0.0335  0.8856
19515TIP3    H280037   6.672   5.545  10.909 -0.6314  4.2068  2.1602
19516TIP3   OH280038   1.906   2.135   2.840 -0.0964  0.6644  0.0533
19516TIP3    H180039   1.878   2.211   2.789  1.1910  0.9178 -0.3205
19516TIP3    H280040   1.845   2.066   2.815 -0.1707  1.0879 -1.0017
19517TIP3   OH280041   3.161   2.001  12.698  0.3065 -0.2021 -0.3549
19517TIP3    H180042   3.116   1.919  12.681  0.0339  0.0825 -1.0572
19517TIP3    H280043   3.188   2.032  12.611  0.3517  0.4748 -0.1078
19518TIP3   OH280044   0.346   5.626   6.259 -0.1097 -0.2947  0.7614
19518TIP3    H180045   0.411   5.652   6.324 -1.1271  0.2476  1.5850
19518TIP3    H280046   0.271   5.595   6.311 -0.9466  0.1722 -0.1458
19519TIP3   OH280047   1.866   0.806  13.483 -0.0283  0.0711 -0.3488
19519TIP3    H180048   1.897   0.891  13.453  0.3372 -0.2747 -0.9978
19519TIP3    H280049   1.789   0.787  13.429  0.7826 -0.6685 -1.2948
19520TIP3   OH280050   0.985   4.201   3.377 -0.1592 -0.1264  0.1883
19520TIP3    H180051   1.050   4.147   3.333 -0.1416 -0.0538  0.1247
19520TIP3    H280052   0.999   4.289   3.340 -1.6539 -0.4906 -1.3594
19521TIP3   OH280053   5.502   4.049   5.633  0.1799 -0.3148  0.1636
19521TIP3    H180054   5.434   4.094   5.685  1.8724  0.5984  1.6952
19521TIP3    H280055   5.504   4.097   5.551  0.0585  0.6960  0.7293
19522TIP3   OH280056   4.295   1.724  16.282  0.0945 -0.2005  0.3404
19522TIP3    H180057   4.229   1.685  16.225  0.2520  0.3509 -0.2328
19522TIP3    H280058   4.355   1.770  16.223  0.4558  0.1021  0.9220
19523TIP3   OH280059   3.035   3.449   1.353 -0.2428  0.3873  0.0319
19523TIP3    H180060   2.948   3.456   1.392 -0.2462 -0.3727  0.1823
19523TIP3    H280061   3.026   3.492   1.268 -0.2314  2.0660  0.8465
19524TIP3   OH280062   3.329   2.050   5.213  0.2537 -0.0956  0.3338
19524TIP3    H180063   3.358   2.107   5.284  0.5818 -1.0862  1.0150
19524TIP3    H280064   3.242   2.021   5.239  0.3649 -0.4443  0.3187
19525TIP3   OH280065   6.163   3.249  12.347 -0.8709 -0.5124 -0.5690
19525TIP3    H180066   6.165   3.335  12.305 -1.5928 -0.2127 -0.0112
19525TIP3    H280067   6.227   3.255  12.418 -0.0612 -0.8338 -1.2573
19526TIP3   OH280068   6.623   1.034  10.531 -0.3482 -0.4043 -0.0780
19526TIP3    H180069   6.602   1.077  10.614 -0.0193 -0.3181 -0.0387
19526TIP3    H280070   6.674   1.099  10.483 -0.3251 -0.5463 -0.2449
19527TIP3   OH280071   0.317   6.322  14.050 -0.4195  0.5738 -0.2193
19527TIP3    H180072   0.411   6.341  14.057 -0.3061 -0.2884  0.7187
19527TIP3    H280073   0.302   6.249  14.110 -1.6497  0.5293 -0.5503
19528TIP3   OH280074   3.663   0.037  13.757  0.5552 -0.1103 -0.5445
19528TIP3    H180075   3.703   0.067  13.838  1.3675 -0.3018 -0.8643
19528TIP3    H280076   3.710  -0.043  13.735 -1.5325 -1.6719  0.2719
19529TIP3   OH280077   0.246   6.180  12.599  0.0972 -0.0240 -0.2323
19529TIP3    H180078   0.295   6.184  12.517 -1.1255 -2.0095 -1.1482
19529TIP3    H280079   0.225   6.087  12.609 -2.2153  0.5537  0.8685
19530TIP3   OH280080   1.156   1.257   3.531  0.1760 -0.4127  0.1059
19530TIP3    H180081   1.132   1.271   3.623 -0.0339 -0.2466  0.0275
19530TIP3    H280082   1.073   1.264   3.484  0.5147  1.3904 -0.3172
19531TIP3   OH280083   3.996   1.708  15.301  0.3416  0.3019 -0.1188
19531TIP3    H180084   4.079   1.744  15.269  0.4311 -0.2160 -0.4974
19531TIP3    H280085   3.952   1.677  15.221 -0.2837  0.7039  0.0610
19532TIP3   OH280086   4.797   0.070   6.123  0.3500 -0.0326 -0.4315
19532TIP3    H180087   4.876   0.043   6.076  1.4945  0.5579  1.0736
19532TIP3    H280088   4.813   0.162   6.145 -0.7787  0.0953 -0.1276
19533TIP3   OH280089   5.139   2.062  17.050 -0.9331  0.2743  0.3192
19533TIP3    H180090   5.162   2.035  17.139 -0.4682  0.2516  0.1964
19533TIP3    H280091   5.073   1.999  17.022  0.5908 -1.1684 -0.1944
19534TIP3   OH280092   4.522   0.239  14.407  0.3398 -0.4257  0.6564
19534TIP3    H180093   4.438   0.214  14.370 -0.2966  1.2021  0.9297
19534TIP3    H280094   4.538   0.174  14.476  0.7396 -2.4891 -1.2505
19535TIP3   OH280095   6.176   3.846  15.060  0.1983  0.3729  0.2906
19535TIP3    H180096   6.155   3.754  15.078  1.3602  0.0725  0.1651
19535TIP3    H280097   6.255   3.842  15.006  1.6001  1.4948  2.1785
19536TIP3   OH280098   5.981   0.869  15.291 -0.1673 -0.1713  0.5454
19536TIP3    H180099   5.979   0.965  15.284 -0.4488 -0.2273 -0.2574
19536TIP3    H280100   6.065   0.850  15.333  1.0160  0.3134 -1.4808
19537TIP3   OH280101   4.366   5.801   3.314 -0.2503  0.4248 -0.0434
19537TIP3    H180102   4.418   5.770   3.240 -0.0587 -0.2797  0.3793
19537TIP3    H280103   4.372   5.896   3.309  0.6334  0.3643 -0.3247
19538TIP3   OH280104   5.053   5.780   2.124 -0.6612  0.6044  0.4180
19538TIP3    H180105   5.114   5.847   2.155  1.2712  0.5945 -2.8746
19538TIP3    H280106   4.966   5.817   2.140  0.2585  2.1900  2.0913
19539TIP3   OH280107   5.188   1.831   6.179 -0.1066  0.2904  0.3046
19539TIP3    H180108   5.192   1.877   6.263 -0.0851 -1.8763  1.5634
19539TIP3    H280109   5.095   1.807   6.169  0.3158 -2.0258  1.2588
19540TIP3   OH280110   5.908   1.506  13.262 -0.6721  0.1605  0.1540
19540TIP3    H180111   5.985   1.505  13.320 -0.1092  0.8810 -0.5602
19540TIP3    H280112   5.937   1.461  13.183 -0.6369  1.2985 -0.5157
19541TIP3   OH280113   2.739   0.254  15.411 -0.2804  0.0124  0.0529
19541TIP3    H180114   2.738   0.330  15.470  1.2168 -0.1708  0.3707
19541TIP3    H280115   2.743   0.179  15.469  0.5020 -0.1991 -0.2597
19542TIP3   OH280116   5.670   0.128  11.558  0.5128 -0.0065  0.0345
19542TIP3    H180117   5.747   0.096  11.510  0.3190 -0.0611 -0.2392
19542TIP3    H280118   5.671   0.222  11.544 -0.9130 -0.2514 -2.1300
19543TIP3   OH280119   3.156   5.162   5.661  0.1910 -0.6399  0.1472
19543TIP3    H180120   3.238   5.189   5.704  0.6645  1.2237 -1.7315
19543TIP3    H280121   3.087   5.204   5.713  0.7830  2.0289 -1.0231
19544TIP3   OH280122   3.192   0.553  15.133  0.1684 -0.1818 -0.1499
19544TIP3    H180123   3.171   0.494  15.061  1.0381 -1.4141  0.5662
19544TIP3    H280124   3.288   0.559  15.132  0.1761 -0.0178  0.7591
19545TIP3   OH280125   4.199   6.256  16.999 -0.0812  0.1635  0.1781
19545TIP3    H180126   4.248   6.255  17.081 -1.2386  0.3653  0.8834
19545TIP3    H280127   4.158   6.170  16.994 -1.2581  0.6745  0.6013
19546TIP3   OH280128   1.745   6.634  10.617 -0.1767 -0.3524 -0.2005
19546TIP3    H180129   1.827   6.679  10.596 -0.7828  0.4067 -0.9997
19546TIP3    H280130   1.771   6.542  10.630  0.7837 -0.1405 -0.5415
19547TIP3   OH280131   4.376   4.400   4.046  0.4805  0.0264  0.3845
19547TIP3    H180132   4.444   4.454   4.086 -0.2316  1.5805 -0.3891
19547TIP3    H280133   4.355   4.446   3.964 -2.0598  0.0776  0.9838
19548TIP3   OH280134   1.921   0.782   2.937  0.1201 -0.2134  0.2272
19548TIP3    H180135   1.887   0.760   2.851  0.0678 -0.7314  0.3760
19548TIP3    H280136   1.992   0.843   2.920 -0.0144 -0.1679 -0.1719
19549TIP3   OH280137   0.858   5.381   5.107  0.1248 -0.3526  0.3582
19549TIP3    H180138   0.880   5.314   5.043 -2.0641 -1.9785  1.1755
19549TIP3    H280139   0.834   5.333   5.186  1.8385  1.5477  2.1668
19550TIP3   OH280140   5.330   2.817   2.599 -0.3436 -0.1190 -0.3830
19550TIP3    H180141   5.381   2.756   2.652 -0.3809  0.6836  0.6095
19550TIP3    H280142   5.276   2.762   2.544 -0.6989 -0.9950  0.8071
19551TIP3   OH280143   1.622   1.515   1.801 -0.1584 -0.3170  0.5014
19551TIP3    H180144   1.617   1.604   1.836  0.8286 -0.2680  0.5299
19551TIP3    H280145   1.540   1.504   1.753 -0.1500  0.7268  0.2161
19552TIP3   OH280146   3.563   2.211  14.610  0.1173 -0.2323  0.5022
19552TIP3    H180147   3.636   2.273  14.599 -0.6668  0.9036  1.4314
19552TIP3    H280148   3.604   2.133  14.647  1.1176 -0.2521 -0.5735
19553TIP3   OH280149   5.879   6.008  10.831  0.0805  0.0075 -0.1804
19553TIP3    H180150   5.885   6.052  10.916 -0.3644  0.5691 -0.4352
19553TIP3    H280151   5.815   6.059  10.782  0.2033 -0.4186 -0.7951
19554TIP3   OH280152   1.497   5.120  11.935  0.1601  0.4336  0.2714
19554TIP3    H180153   1.493   5.148  12.026  1.0766  0.4915  0.3022
19554TIP3    H280154   1.568   5.056  11.933 -1.0126 -0.9120 -0.0589
19555TIP3   OH280155   2.117   1.872   0.698  0.3197  0.1466 -0.1067
19555TIP3    H180156   2.181   1.929   0.656 -0.9230  1.2626 -0.5498
19555TIP3    H280157   2.046   1.865   0.635  1.1918 -3.5297 -0.9594
19556TIP3   OH280158   4.472   1.712   3.531  0.2926  0.1305 -0.2677
19556TIP3    H180159   4.516   1.647   3.476  1.4196  0.3775  0.3133
19556TIP3    H280160   4.409   1.754   3.473 -0.4595 -1.4610 -0.6725
19557TIP3   OH280161   4.338   2.191  12.782 -0.4684  0.6959 -0.5558
19557TIP3    H180162   4.393   2.115  12.796  0.2683  1.4072  0.5434
19557TIP3    H280163   4.300   2.178  12.695 -1.6690 -1.7197  0.2383
19558TIP3   OH280164   3.534   1.858  13.262 -0.4951  0.6406  0.6062
19558TIP3    H180165   3.557   1.932  13.318  0.6242  0.6562  0.1708
19558TIP3    H280166   3.604   1.795  13.277 -0.7118  0.2399 -0.0345
19559TIP3   OH280167   5.957   5.549  11.290 -0.4241  0.0265 -0.7355
19559TIP3    H180168   5.928   5.477  11.234 -0.1467  0.0389 -0.8970
19559TIP3    H280169   6.052   5.550  11.280 -0.3690  0.0284 -0.2647
19560TIP3   OH280170   3.833   4.450   0.778  0.2076 -1.0237 -0.2087
19560TIP3    H180171   3.866   4.364   0.804 -0.5957 -1.9448 -2.0453
19560TIP3    H280172   3.754   4.431   0.726 -1.8908  0.9487  1.9598
19561TIP3   OH280173   5.909   0.439   1.151  1.0452  0.0208 -0.5678
19561TIP3    H180174   5.884   0.380   1.222 -1.9115  1.8785  0.1328
19561TIP3    H280175   5.987   0.484   1.183 -0.5424  1.2350  1.8919
19562TIP3   OH280176   1.806   2.931   1.143 -0.0794  0.2750  0.1606
19562TIP3    H180177   1.752   3.010   1.140 -0.6670 -0.1533 -1.2633
19562TIP3    H280178   1.795   2.891   1.057  0.2230 -1.3568  0.8476
19563TIP3   OH280179   5.765   0.433   0.480 -0.4148 -0.0428 -0.0189
19563TIP3    H180180   5.732   0.503   0.537 -0.8023 -2.0667  2.4549
19563TIP3    H280181   5.856   0.422   0.507 -0.7267 -1.3244  0.5745
19564TIP3   OH280182   4.035   0.284  12.818 -0.0388 -0.1039 -0.7363
19564TIP3    H180183   4.069   0.258  12.904 -0.5101  0.6896 -0.2975
19564TIP3    H280184   4.054   0.377  12.811  2.2489 -0.6320 -2.5969
19565TIP3   OH280185   5.041   1.870   2.827  0.1546 -0.5663  0.3837
19565TIP3    H180186   5.120   1.906   2.787  0.7126 -0.4887  1.4988
19565TIP3    H280187   4.970   1.894   2.767  0.9629 -0.5762 -0.5946
19566TIP3   OH280188   3.656   2.065   2.043 -0.2862 -0.0442 -0.1062
19566TIP3    H180189   3.632   2.121   2.117 -0.1803 -0.5694  0.3346
19566TIP3    H280190   3.676   2.126   1.972  0.3139  0.4948  0.5127
19567TIP3   OH280191   4.044   2.807   2.664 -0.2511  0.4538  0.0265
19567TIP3    H180192   4.032   2.717   2.696 -1.1731  1.0785  1.5581
19567TIP3    H280193   3.979   2.817   2.594  1.1980 -0.6534 -1.5789
19568TIP3   OH280194   2.283   5.356   6.550 -0.2284  0.0108 -0.0349
19568TIP3    H180195   2.275   5.448   6.526 -0.6309 -0.3686 -1.4023
19568TIP3    H280196   2.373   5.333   6.526 -0.4588 -0.2219 -0.7002
19569TIP3   OH280197   4.538   3.869  11.743  0.2256 -0.7777  0.1627
19569TIP3    H180198   4.554   3.907  11.830 -0.6202  0.7989 -0.3279
19569TIP3    H280199   4.447   3.840  11.747 -0.5509  1.3138 -0.8391
19570TIP3   OH280200   3.200   5.614  15.436  0.3538  0.3372 -0.0490
19570TIP3    H180201   3.270   5.676  15.457  1.9483 -1.6533  0.8528
19570TIP3    H280202   3.140   5.619  15.510  0.6874  0.5320  0.2096
19571TIP3   OH280203   4.070   0.036   3.235  0.3584  0.3663 -0.2047
19571TIP3    H180204   4.033   0.014   3.150 -0.4286 -0.4001  0.3027
19571TIP3    H280205   4.033  -0.030   3.294  0.2829  1.3360  0.8627
19572TIP3   OH280206   5.392   5.513  11.292  0.2680 -0.0705 -0.1951
19572TIP3    H180207   5.478   5.486  11.324 -0.5459  0.7052  2.9316
19572TIP3    H280208   5.410   5.587  11.235  1.7167 -0.4250 -0.2255
19573TIP3   OH280209   6.001   4.023   1.942  0.4994 -0.0368  0.4954
19573TIP3    H180210   6.028   3.936   1.914  1.4241 -0.1618  1.7064
19573TIP3    H280211   5.914   4.010   1.980  0.1567 -0.2234 -0.3343
19574TIP3   OH280212   1.763   6.074   6.445 -0.0584 -0.3285  0.4307
19574TIP3    H180213   1.857   6.066   6.427  0.1364  0.7820  0.9061
19574TIP3    H280214   1.728   6.123   6.371 -0.2291 -0.5070  0.3891
19575TIP3   OH280215   1.676   6.594   6.021  0.0976  0.4346  0.0364
19575TIP3    H180216   1.654   6.540   5.945 -1.7675  1.1087  0.0392
19575TIP3    H280217   1.606   6.575   6.084 -0.0289  2.0650  0.4263
19576TIP3   OH280218   0.613   6.052   1.340 -0.0679  0.8801 -0.1977
19576TIP3    H180219   0.620   6.146   1.354 -2.6634  1.0725  0.3836
19576TIP3    H280220   0.541   6.042   1.278  1.0228 -0.6946 -1.3000
19577TIP3   OH280221   2.916   0.480  11.876  0.2721 -0.6488  0.2268
19577TIP3    H180222   3.004   0.468  11.912  0.7148 -1.6621 -1.1301
19577TIP3    H280223   2.922   0.449  11.786 -1.3672 -0.2932 -0.0354
19578TIP3   OH280224   4.327   5.496  16.684 -0.0596  0.0230  1.0572
19578TIP3    H180225   4.295   5.449  16.761 -0.5282  1.7958  1.9985
19578TIP3    H280226   4.411   5.455  16.664 -1.0712 -2.1271  0.9378
19579TIP3   OH280227   5.746   3.502   0.721  0.2244 -0.6411 -0.2616
19579TIP3    H180228   5.811   3.493   0.790  1.0721  1.0494 -0.7718
19579TIP3    H280229   5.779   3.573   0.666 -0.8570 -1.3489 -1.9184
19580TIP3   OH280230   5.377   0.712  12.522 -0.2531 -0.2738 -0.0556
19580TIP3    H180231   5.327   0.729  12.602  0.8052  0.8205  0.4216
19580TIP3    H280232   5.363   0.790  12.468 -0.0592 -0.5102 -0.4535
19581TIP3   OH280233   6.813   2.736   3.201  0.5627  0.2778 -0.2229
19581TIP3    H180234   6.772   2.650   3.197 -2.3454  1.4293  1.8212
19581TIP3    H280235   6.832   2.750   3.293 -2.6035  3.2081  0.1894
19582TIP3   OH280236   1.169   3.374   0.678 -0.3817  0.6337 -0.6778
19582TIP3    H180237   1.235   3.421   0.627 -0.0311  2.1411  1.0609
19582TIP3    H280238   1.208   3.288   0.694 -0.1609  0.4275 -2.1973
19583TIP3   OH280239   4.920   1.094  15.643 -0.2796  0.2613  0.3132
19583TIP3    H180240   4.911   0.999  15.648  0.1057  0.0998 -1.5491
19583TIP3    H280241   4.930   1.122  15.734 -0.7258 -1.4355  0.9111
19584TIP3   OH280242   0.989   5.727   3.835  0.1455  0.2212  0.0091
19584TIP3    H180243   0.897   5.753   3.833 -0.0759 -0.5249  0.1426
19584TIP3    H280244   1.010   5.718   3.928  0.0897 -0.4860 -0.0401
19585TIP3   OH280245   2.138   2.070  11.969 -0.1171 -0.3400 -0.3887
19585TIP3    H180246   2.073   2.124  11.924 -1.2990 -0.2044  1.3997
19585TIP3    H280247   2.170   2.126  12.040  0.2184 -1.2420  0.1823
19586TIP3   OH280248   5.504   0.945  13.289 -0.4524  0.1357  0.1737
19586TIP3    H180249   5.447   1.022  13.292 -0.8336 -0.1412  0.2679
19586TIP3    H280250   5.590   0.977  13.315 -0.7663  0.3862  0.9185
19587TIP3   OH280251   1.595   3.052  17.053 -0.1154 -0.1421  0.6612
19587TIP3    H180252   1.660   3.103  17.101  0.0433 -0.3119  0.6278
19587TIP3    H280253   1.610   3.074  16.961 -1.3433  1.2763  0.7590
19588TIP3   OH280254   2.872   0.907   2.530  0.2479 -0.0570 -0.1011
19588TIP3    H180255   2.950   0.853   2.541  0.4208  0.4741  1.5656
19588TIP3    H280256   2.819   0.889   2.608 -0.7741  0.4381 -0.6528
19589TIP3   OH280257   5.912   0.488  11.267 -0.1510 -0.1162 -0.5538
19589TIP3    H180258   5.915   0.488  11.171  0.0912 -2.3525 -0.5877
19589TIP3    H280259   6.004   0.484  11.293 -0.2343  0.0992 -0.2233
19590TIP3   OH280260   5.526   2.325   5.946  0.5962  0.2008 -0.1166
19590TIP3    H180261   5.522   2.239   5.905 -0.3401 -0.8777  2.0947
19590TIP3    H280262   5.591   2.315   6.015  1.6667  1.7889 -0.8265
19591TIP3   OH280263   0.421   0.112  14.237 -0.1841  0.2004  0.1436
19591TIP3    H180264   0.403   0.160  14.156  2.2803 -0.5971 -0.9833
19591TIP3    H280265   0.409   0.020  14.212 -0.1352 -0.0122  0.9013
19592TIP3   OH280266   1.223   0.088   2.129  0.3155 -0.3247  0.0595
19592TIP3    H180267   1.212   0.081   2.224 -0.7239  1.7864  0.1519
19592TIP3    H280268   1.158   0.027   2.093 -0.4471  0.0783  0.7124
19593TIP3   OH280269   5.590   6.344  10.909  0.2600 -0.0652  0.0885
19593TIP3    H180270   5.511   6.396  10.916  0.5524  0.4117 -0.1197
19593TIP3    H280271   5.652   6.385  10.969  0.5841  0.0077 -0.2858
19594TIP3   OH280272   2.135   6.787  12.600 -0.0223 -0.2467  0.0787
19594TIP3    H180273   2.054   6.736  12.598 -0.6402  0.6906 -2.0749
19594TIP3    H280274   2.204   6.722  12.612 -0.8030 -1.6378 -2.3236
19595TIP3   OH280275   3.387   0.319  13.158 -0.4004 -0.7133 -0.4050
19595TIP3    H180276   3.363   0.363  13.239  2.5053  0.9264 -0.3043
19595TIP3    H280277   3.438   0.243  13.186  2.6919  1.1256 -0.4967
19596TIP3   OH280278   5.398   3.765  10.977  0.1442  0.6105 -0.7110
19596TIP3    H180279   5.357   3.685  10.944  2.9361 -0.5910 -1.5195
19596TIP3    H280280   5.382   3.829  10.907 -2.9455  1.1974  0.3557
19597TIP3   OH280281   3.487   6.342   3.162  0.0663 -0.0548 -0.0985
19597TIP3    H180282   3.483   6.362   3.068 -0.1627  1.3271  0.1794
19597TIP3    H280283   3.581   6.340   3.181  0.1194 -0.5851 -0.4043
19598TIP3   OH280284   6.496   0.410  12.882  0.3286  0.3159  0.6691
19598TIP3    H180285   6.467   0.498  12.907  1.7608  0.4582  1.9427
19598TIP3    H280286   6.426   0.377  12.825 -0.4684  2.0772  0.5759
19599TIP3   OH280287   2.787   5.194  14.896 -0.5419 -0.3124 -0.4037
19599TIP3    H180288   2.796   5.099  14.889  0.5127 -0.1487 -1.6620
19599TIP3    H280289   2.734   5.218  14.820 -2.2925 -0.0486  0.8475
19600TIP3   OH280290   4.176   5.137  14.269  0.7432  0.0980  0.2124
19600TIP3    H180291   4.169   5.225  14.234  3.4081  0.2084 -0.2616
19600TIP3    H280292   4.123   5.138  14.348 -1.1559  1.3957 -0.9958
19601TIP3   OH280293   1.194   2.748  12.169  0.5933  0.0985 -0.3801
19601TIP3    H180294   1.275   2.709  12.135  0.9657 -0.4171  1.0451
19601TIP3    H280295   1.169   2.812  12.101  1.5596 -0.5332 -1.3769
19602TIP3   OH280296   2.061   6.388  14.930 -0.0046 -0.0499  0.3251
19602TIP3    H180297   2.038   6.369  14.839 -1.2610  0.1213  0.5789
19602TIP3    H280298   1.977   6.386  14.977  0.0426  3.5866  0.8346
19603TIP3   OH280299   1.595   2.728  13.519  0.0082 -0.0960 -0.2443
19603TIP3    H180300   1.555   2.729  13.432  2.2135 -0.9335 -1.3542
19603TIP3    H280301   1.574   2.813  13.557  0.3648  0.9676 -2.3007
19604TIP3   OH280302   0.640   1.195   0.800  0.1024 -0.2163  0.5368
19604TIP3    H180303   0.603   1.244   0.727 -0.3475  1.9169  2.1045
19604TIP3    H280304   0.655   1.261   0.868 -0.5652 -2.2603  2.7922
19605TIP3   OH280305   5.948   0.063   1.716 -0.4854 -0.0504 -0.0341
19605TIP3    H180306   5.982  -0.015   1.759 -3.1553 -1.0148  0.4731
19605TIP3    H280307   6.024   0.100   1.670  0.8928 -2.8153 -0.1479
19606TIP3   OH280308   2.130   3.250  14.039 -0.2523  0.0019  0.2762
19606TIP3    H180309   2.133   3.179  14.104 -1.0086 -0.7185 -0.4431
19606TIP3    H280310   2.085   3.322  14.084 -1.2716 -0.6811  0.4009
19607TIP3   OH280311   6.465   4.813  14.820  0.1253 -0.9139 -0.5356
19607TIP3    H180312   6.513   4.893  14.842 -0.6493 -0.6203  0.1289
19607TIP3    H280313   6.485   4.753  14.892  0.3733 -1.1803 -0.8232
19608TIP3   OH280314   6.536   5.818  13.170 -0.0130 -0.1623  0.1337
19608TIP3    H180315   6.551   5.724  13.177 -1.5825 -0.4186  0.3318
19608TIP3    H280316   6.535   5.834  13.075 -0.6240 -0.5150  0.0718
19609TIP3   OH280317   5.049   1.033   0.321  0.0982 -0.5079  0.1392
19609TIP3    H180318   4.990   1.083   0.378 -1.2274 -2.0730  0.1894
19609TIP3    H280319   5.027   1.062   0.233  0.5574  0.2450  0.2620
19610TIP3   OH280320   4.606   1.328   1.482 -0.0583 -0.1576 -0.3519
19610TIP3    H180321   4.657   1.322   1.563 -0.5624 -0.1697 -0.0319
19610TIP3    H280322   4.552   1.249   1.481 -1.3625  0.6900  0.2083
19611TIP3   OH280323   1.333   0.268   4.408  0.2728 -0.4794 -0.2668
19611TIP3    H180324   1.299   0.207   4.473  0.6619  0.4744  0.8843
19611TIP3    H280325   1.421   0.237   4.389 -0.2953 -1.5048 -1.3485
19612TIP3   OH280326   3.040   1.927   1.745 -0.1435  0.5452 -0.1848
19612TIP3    H180327   3.052   1.907   1.652  1.6173 -0.4484  0.1943
19612TIP3    H280328   3.098   2.002   1.761  1.2424 -0.6092  0.4947
19613TIP3   OH280329   1.627   4.013   2.240 -0.9572 -0.0204 -0.3463
19613TIP3    H180330   1.616   3.939   2.300  1.4084  0.6911  1.1405
19613TIP3    H280331   1.590   4.088   2.287  1.0044  0.5635  0.3784
19614TIP3   OH280332   4.547   0.780   0.462 -1.1131 -0.4044 -0.5445
19614TIP3    H180333   4.553   0.688   0.487  1.8444 -0.0474  0.4403
19614TIP3    H280334   4.616   0.791   0.396  1.3168  1.8056  2.1016
19615TIP3   OH280335   4.537   3.503   6.245  0.4151 -0.2612 -0.0036
19615TIP3    H180336   4.450   3.526   6.278  0.9581  0.2172  1.1875
19615TIP3    H280337   4.543   3.408   6.256 -0.5470 -0.5552 -1.6585
19616TIP3   OH280338   1.188   2.491  12.394  0.8175 -0.0757  0.2581
19616TIP3    H180339   1.137   2.477  12.314  0.0052 -0.9210  0.8988
19616TIP3    H280340   1.276   2.461  12.372  0.9242  0.8754 -0.6935
19617TIP3   OH280341   5.170   0.705  12.732  0.6505  0.1291  0.1798
19617TIP3    H180342   5.184   0.793  12.768 -1.6041  1.0409 -0.9855
19617TIP3    H280343   5.184   0.646  12.807  2.0036  1.4625  1.0277
19618TIP3   OH280344   6.367   6.704  16.671  0.2298  0.1384  0.0246
19618TIP3    H180345   6.374   6.713  16.576  0.8767 -0.5764 -0.0087
19618TIP3    H280346   6.432   6.766  16.706  3.9867 -3.3152 -0.1742
19619TIP3   OH280347   0.040   1.281   5.612 -0.5145  0.5345  0.3411
19619TIP3    H180348   0.053   1.234   5.529 -2.6169 -1.7971  1.2059
19619TIP3    H280349   0.116   1.338   5.619  0.4078 -0.1479 -2.5411
19620TIP3   OH280350   3.920   0.474   3.953  0.3579 -0.2464 -0.4858
19620TIP3    H180351   3.957   0.536   4.016  0.2307  0.4784 -1.1166
19620TIP3    H280352   3.989   0.409   3.940  1.3488  0.9612 -1.4671
19621TIP3   OH280353   4.787   2.349  14.207 -0.0313  0.1411  0.1451
19621TIP3    H180354   4.761   2.438  14.185 -1.2770  0.1278  1.4542
19621TIP3    H280355   4.790   2.303  14.123 -0.4431  1.1318 -0.4255
19622TIP3   OH280356   5.883   3.375   2.136  0.3202  0.1282 -0.0925
19622TIP3    H180357   5.853   3.368   2.227  2.1198  1.1782  0.6264
19622TIP3    H280358   5.953   3.310   2.130 -0.1510 -0.3182 -0.9210
19623TIP3   OH280359   3.978   1.921   1.669  0.0174 -0.9655 -0.0595
19623TIP3    H180360   3.969   1.851   1.605 -0.7405 -1.0948  0.1819
19623TIP3    H280361   3.889   1.938   1.699  0.1252  0.3579 -0.3897
19624TIP3   OH280362   0.772   6.174  16.104  0.2786  0.3673  0.1532
19624TIP3    H180363   0.822   6.094  16.119 -0.7384 -0.8140 -2.2726
19624TIP3    H280364   0.686   6.144  16.074 -0.6942  2.3667  0.7580
19625TIP3   OH280365   4.972   5.062   3.062 -0.3407  0.3174  0.1396
19625TIP3    H180366   5.038   5.073   3.130  1.2337  0.3331 -1.3378
19625TIP3    H280367   5.016   5.085   2.981 -1.5079 -1.7664 -1.1960
19626TIP3   OH280368   2.465   6.182  14.015 -0.6484  0.6885  0.5024
19626TIP3    H180369   2.446   6.091  14.040 -1.4171  1.3998  2.8030
19626TIP3    H280370   2.549   6.201  14.057  0.5494  0.4780 -1.6741
19627TIP3   OH280371   4.951   5.206   4.983  0.1043  0.0636  0.5559
19627TIP3    H180372   4.928   5.147   4.911 -0.2716  0.7773  0.0803
19627TIP3    H280373   4.873   5.207   5.039 -0.4235  1.1641 -0.1642
19628TIP3   OH280374   4.646   5.764  11.542 -0.0392 -0.0818 -0.0847
19628TIP3    H180375   4.612   5.679  11.514 -2.4369  1.1505 -1.1330
19628TIP3    H280376   4.727   5.775  11.491  1.1078 -2.2880  1.1210
19629TIP3   OH280377   2.439   5.122  14.940  0.0971 -0.0359  0.0293
19629TIP3    H180378   2.474   5.185  14.876  0.3873  0.4616  0.6674
19629TIP3    H280379   2.480   5.039  14.917  1.1719  0.3952  0.3346
19630TIP3   OH280380   1.059   3.800   4.856 -0.8113 -0.2926  0.1062
19630TIP3    H180381   1.111   3.721   4.840 -1.0307 -0.6385  1.0800
19630TIP3    H280382   0.987   3.771   4.912  0.3045  0.9855  2.3267
19631TIP3   OH280383   1.136   5.338   5.167  0.0025  0.1503 -0.0392
19631TIP3    H180384   1.112   5.282   5.241  0.0878  0.5392  0.2805
19631TIP3    H280385   1.089   5.420   5.182  1.1271  0.7386  0.3338
19632TIP3   OH280386   3.538   3.332   3.237 -0.1491 -0.6634 -0.2704
19632TIP3    H180387   3.592   3.310   3.313 -0.6973  1.5586  0.8365
19632TIP3    H280388   3.601   3.347   3.167  0.4334 -1.5741  0.0413
19633TIP3   OH280389   6.745   0.206  11.581  0.1237  0.3592 -0.2397
19633TIP3    H180390   6.797   0.176  11.656  1.6678  0.2678 -1.2961
19633TIP3    H280391   6.725   0.297  11.601 -0.5203  0.0051  0.8192
19634TIP3   OH280392   5.418   0.234  12.857 -0.3957  0.0755 -0.2917
19634TIP3    H180393   5.413   0.191  12.772  0.3558  0.8790 -0.7519
19634TIP3    H280394   5.511   0.243  12.874 -0.4737 -1.7970  1.5294
19635TIP3   OH280395   4.885   3.557   3.888 -0.2806  0.1612  0.6629
19635TIP3    H180396   4.901   3.589   3.799  0.2695  3.3047  1.7792
19635TIP3    H280397   4.795   3.585   3.907 -1.3918 -2.8012  0.2842
19636TIP3   OH280398   0.343   3.659  16.673  0.0236 -0.3440  0.0264
19636TIP3    H180399   0.411   3.592  16.665 -0.0702 -0.5157  0.6477
19636TIP3    H280400   0.391   3.741  16.684  0.1518 -0.6854  2.3418
19637TIP3   OH280401   2.042   2.612  14.551  0.3333 -0.2056  0.1119
19637TIP3    H180402   2.063   2.524  14.518 -0.4036 -0.3487  0.0177
19637TIP3    H280403   1.953   2.604  14.586  0.7304  0.1947  1.2494
19638TIP3   OH280404   2.571   2.954  10.565  0.2730 -0.3203  0.2321
19638TIP3    H180405   2.546   3.041  10.595 -2.1438 -0.2450 -1.6261
19638TIP3    H280406   2.639   2.969  10.499 -0.0022  0.1636  0.0548
19639TIP3   OH280407   4.178   4.848  15.221  0.7343  0.7957 -0.5098
19639TIP3    H180408   4.262   4.811  15.194  0.1145  0.0958 -1.5367
19639TIP3    H280409   4.178   4.937  15.187  0.6268  0.4445 -1.4412
19640TIP3   OH280410   3.870   2.733  13.935 -0.2193 -0.1602 -0.0254
19640TIP3    H180411   3.889   2.823  13.961  0.8307 -0.7127  1.2181
19640TIP3    H280412   3.820   2.697  14.009 -2.7318  0.0468 -1.4997
19641TIP3   OH280413   2.117   5.513   5.586  0.4858 -0.7391  0.3810
19641TIP3    H180414   2.090   5.566   5.661  0.9760 -1.2148  0.9062
19641TIP3    H280415   2.212   5.526   5.581  0.3208  0.1384 -0.8303
19642TIP3   OH280416   5.652   0.052   0.711  0.1694  0.1697  0.2077
19642TIP3    H180417   5.712  -0.023   0.716  0.6253  0.2199 -2.9001
19642TIP3    H280418   5.581   0.022   0.654 -0.8137  1.3799  0.7595
19643TIP3   OH280419   4.313   6.069   2.648 -0.0214 -0.2372  0.1194
19643TIP3    H180420   4.381   6.057   2.714  0.1097 -1.7040 -0.2565
19643TIP3    H280421   4.336   6.150   2.604 -0.8335  1.5345  2.7097
19644TIP3   OH280422   0.789   1.350   3.870  0.0360 -0.4912  0.1701
19644TIP3    H180423   0.751   1.438   3.865  0.5367 -0.3207 -0.8244
19644TIP3    H280424   0.797   1.333   3.964 -1.0718  0.0737  0.3925
19645TIP3   OH280425   0.412   1.476   4.749 -0.0868 -0.1542  1.0229
19645TIP3    H180426   0.399   1.569   4.766 -1.0680 -0.1097  0.1402
19645TIP3    H280427   0.343   1.432   4.799 -0.0167 -0.3633  0.9393
19646TIP3   OH280428   4.732   0.143   4.456 -0.0215 -0.0265 -0.4201
19646TIP3    H180429   4.814   0.093   4.457 -0.5670 -0.9077  0.1817
19646TIP3    H280430   4.683   0.107   4.382  0.7390  1.5542 -1.7994
19647TIP3   OH280431   2.911   3.628   4.607 -0.0832  0.2343 -0.5476
19647TIP3    H180432   2.827   3.671   4.591  0.8093  1.6623 -1.5698
19647TIP3    H280433   2.970   3.698   4.634  1.3251 -0.3779 -1.8714
19648TIP3   OH280434   4.428   4.004   5.328  0.5529  0.5234  0.1655
19648TIP3    H180435   4.471   4.046   5.403  1.6846  0.8860 -0.6619
19648TIP3    H280436   4.449   3.911   5.337 -0.9404  0.2468  1.3294
19649TIP3   OH280437   0.886   1.825   0.282  0.1831 -0.2062  0.1956
19649TIP3    H180438   0.815   1.767   0.254  0.6869 -0.8736  0.2701
19649TIP3    H280439   0.917   1.866   0.201  0.3532 -0.6619  0.0224
19650TIP3   OH280440   1.040   6.428   0.808  0.0047  0.3125  0.7208
19650TIP3    H180441   1.040   6.432   0.903  1.3339  1.2200  0.7251
19650TIP3    H280442   1.070   6.515   0.780 -0.3511  0.0648 -0.5205
19651TIP3   OH280443   2.591   5.036   1.297 -0.6083 -0.4022  0.3660
19651TIP3    H180444   2.651   4.962   1.305  1.5323  1.1844 -0.3664
19651TIP3    H280445   2.639   5.102   1.249 -1.5218  2.4194  2.9742
19652TIP3   OH280446   6.699   6.246   5.506  0.3686 -0.2248 -0.0606
19652TIP3    H180447   6.621   6.192   5.494 -1.2710  2.0660 -0.3723
19652TIP3    H280448   6.711   6.249   5.601 -1.3860  1.2207  0.1839
19653TIP3   OH280449   6.499   4.952   1.624 -0.1071  0.1602  0.3243
19653TIP3    H180450   6.499   5.047   1.628  0.7053  0.2009 -0.3871
19653TIP3    H280451   6.407   4.927   1.638 -0.4152  1.0698 -0.0135
19654TIP3   OH280452   5.961   4.991   3.926 -0.5348  0.9490 -0.2051
19654TIP3    H180453   5.980   5.072   3.879  2.6519  0.2373 -0.3685
19654TIP3    H280454   5.945   4.927   3.857  1.2612  0.5487 -0.2991
19655TIP3   OH280455   4.996   4.859  12.001  0.9266  0.2372  0.0308
19655TIP3    H180456   5.090   4.842  12.002  1.2268  1.6106 -1.2040
19655TIP3    H280457   4.987   4.943  11.956 -0.8325  0.6066  0.9803
19656TIP3   OH280458   6.028   1.566   5.087 -0.0705  0.0965 -0.3792
19656TIP3    H180459   6.099   1.511   5.120  0.9035  1.2201 -0.5246
19656TIP3    H280460   5.979   1.592   5.165 -0.3245 -0.6837 -0.2764
19657TIP3   OH280461   4.897   0.628  13.807 -0.1418 -0.1512 -0.5276
19657TIP3    H180462   4.978   0.676  13.787 -0.0936 -0.3450 -0.8021
19657TIP3    H280463   4.855   0.679  13.876  0.6656 -0.5231  0.2602
19658TIP3   OH280464   2.759   6.403   4.134 -0.6104  0.8600 -0.4732
19658TIP3    H180465   2.675   6.414   4.177 -1.6496  1.7411 -2.5838
19658TIP3    H280466   2.761   6.311   4.108  0.7278 -0.1129  2.6692
19659TIP3   OH280467   6.518   4.995   4.801 -0.4663 -0.1250 -0.3787
19659TIP3    H180468   6.470   4.936   4.860  0.1719 -0.8845 -0.6069
19659TIP3    H280469   6.487   4.972   4.714 -0.1320 -0.2014 -0.4777
19660TIP3   OH280470   5.257   1.383   3.617 -0.1881 -0.2430  0.3632
19660TIP3    H180471   5.311   1.308   3.595 -1.3072 -0.7222 -0.9465
19660TIP3    H280472   5.291   1.415   3.701  1.8202 -0.7531 -0.2057
19661TIP3   OH280473   5.847   3.901  15.255 -0.4270  0.2030 -0.0341
19661TIP3    H180474   5.852   3.968  15.324 -1.7784 -0.4028  0.6930
19661TIP3    H280475   5.926   3.849  15.267 -0.5560  0.2170  0.9462
19662TIP3   OH280476   3.961   0.629  12.473  0.5061  0.3070 -0.0010
19662TIP3    H180477   3.870   0.634  12.505  0.2691  1.2097 -0.7572
19662TIP3    H280478   4.014   0.659  12.547  0.1531  0.1183  0.3303
19663TIP3   OH280479   2.541   1.811  13.082 -0.0037  0.1034 -0.2889
19663TIP3    H180480   2.512   1.847  12.999  0.2265 -0.2747 -0.5355
19663TIP3    H280481   2.477   1.744  13.104  0.6156 -0.6656 -0.7871
19664TIP3   OH280482   0.642   4.305   2.068  0.0261 -0.1826  0.1631
19664TIP3    H180483   0.584   4.375   2.100  0.5427 -0.0368  0.7938
19664TIP3    H280484   0.621   4.297   1.975  0.2042  1.0485  0.0094
19665TIP3   OH280485   5.353   3.736   5.372  0.4903  0.9301  0.6644
19665TIP3    H180486   5.313   3.697   5.450 -1.4463  0.7285 -0.3571
19665TIP3    H280487   5.432   3.778   5.404  0.5234 -0.3939  2.4868
19666TIP3   OH280488   3.273   3.952   4.390  0.6041  0.0777  0.1151
19666TIP3    H180489   3.249   4.030   4.440  0.0747  0.3658 -0.5748
19666TIP3    H280490   3.358   3.974   4.351  0.4379  0.3341 -0.1091
19667TIP3   OH280491   6.625   4.713  10.592 -0.0686  0.0583 -0.6331
19667TIP3    H180492   6.650   4.774  10.524 -0.8910  0.9224 -0.1902
19667TIP3    H280493   6.531   4.700  10.579 -0.4566  1.0368  0.9251
19668TIP3   OH280494   6.156   3.037  16.172 -0.4778 -0.5907 -0.4645
19668TIP3    H180495   6.101   3.114  16.157 -1.0624 -0.7819  0.6071
19668TIP3    H280496   6.146   3.018  16.266  1.9241 -0.2503 -0.0789
19669TIP3   OH280497   0.654   2.856  11.820 -0.0814 -0.1635  0.7590
19669TIP3    H180498   0.734   2.872  11.769 -1.5519 -0.9741 -1.9783
19669TIP3    H280499   0.602   2.935  11.809 -0.4472 -0.3721  0.9637
19670TIP3   OH280500   5.356   5.814   4.650  0.5387  0.2434 -0.1312
19670TIP3    H180501   5.340   5.849   4.562  0.9071 -0.6730 -0.5813
19670TIP3    H280502   5.447   5.838   4.669  0.3648  0.6962  0.1189
19671TIP3   OH280503   4.598   4.456  12.310 -0.3058  0.3847  0.2652
19671TIP3    H180504   4.522   4.399  12.302 -1.0751  1.3597  0.5113
19671TIP3    H280505   4.581   4.508  12.388  0.2854  1.1093 -0.0789
19672TIP3   OH280506   6.572   3.159  12.846 -0.2384  0.3701 -0.0013
19672TIP3    H180507   6.522   3.088  12.887 -0.9345  1.4346  1.0255
19672TIP3    H280508   6.545   3.155  12.754 -0.4024 -0.5825  0.0704
19673TIP3   OH280509   5.234   4.219  12.550 -0.4433  0.1854 -0.1089
19673TIP3    H180510   5.212   4.297  12.602 -2.6254 -0.1168 -0.4497
19673TIP3    H280511   5.155   4.203  12.498  0.5476 -1.3509 -1.2059
19674TIP3   OH280512   5.471   2.847  13.389  0.4888  0.1240  0.3072
19674TIP3    H180513   5.435   2.775  13.337  0.6596  0.6934 -0.6316
19674TIP3    H280514   5.397   2.882  13.437 -0.0013  0.5481 -0.7243
19675TIP3   OH280515   2.700   5.498   5.973 -0.2677  0.2661  0.4214
19675TIP3    H180516   2.745   5.444   6.038 -0.0339 -2.0251 -1.4806
19675TIP3    H280517   2.609   5.499   6.002 -0.5267 -2.2275 -0.0082
19676TIP3   OH280518   4.830   2.678   1.643  0.3083  0.1928  0.5122
19676TIP3    H180519   4.811   2.698   1.735  0.7802  1.0092  0.4408
19676TIP3    H280520   4.792   2.751   1.594  1.6391  0.6952  0.2046
19677TIP3   OH280521   1.642   5.322  14.516  0.3396  0.3901  0.4831
19677TIP3    H180522   1.559   5.276  14.507  1.4962 -1.8977  0.8798
19677TIP3    H280523   1.650   5.373  14.435 -0.8240 -0.3730 -0.1418
19678TIP3   OH280524   5.437   5.489  17.062  0.7026 -0.6151  0.8043
19678TIP3    H180525   5.472   5.565  17.109 -1.0374  1.1249 -0.5049
19678TIP3    H280526   5.377   5.448  17.123  0.3501  0.1371  0.9814
19679TIP3   OH280527   2.808   4.676  13.690 -0.5916  0.8555  0.5142
19679TIP3    H180528   2.733   4.633  13.731  1.0214  0.0112  2.7866
19679TIP3    H280529   2.787   4.769  13.695 -2.4948  0.5852 -1.1007
19680TIP3   OH280530   5.998   6.702  15.853 -0.4604 -0.3293  0.2425
19680TIP3    H180531   6.021   6.613  15.882 -0.1239 -0.4696 -0.4195
19680TIP3    H280532   5.930   6.688  15.787 -0.1764 -0.1217 -0.0977
19681TIP3   OH280533   4.826   6.142  15.546  0.1062 -0.7121  0.6649
19681TIP3    H180534   4.814   6.224  15.594 -1.6565 -0.3981 -0.2084
19681TIP3    H280535   4.875   6.166  15.468 -0.3501 -0.4888  0.4432
19682TIP3   OH280536   1.067   4.455   3.272 -0.3046 -0.4607 -0.0704
19682TIP3    H180537   1.129   4.484   3.205  1.0263 -0.6532  1.0268
19682TIP3    H280538   0.984   4.444   3.226 -0.5801  3.6187 -0.8925
19683TIP3   OH280539   2.796   1.397   1.384 -0.3790  0.3212  0.0333
19683TIP3    H180540   2.711   1.372   1.418 -0.2533 -0.7953 -0.4399
19683TIP3    H280541   2.857   1.384   1.457 -0.4556  0.1379  0.0628
19684TIP3   OH280542   3.094   1.730  16.053  0.6686 -0.2039 -0.0242
19684TIP3    H180543   3.059   1.818  16.069  1.1298  0.3431 -1.7617
19684TIP3    H280544   3.144   1.739  15.972  0.7262 -2.0807 -0.2366
19685TIP3   OH280545   2.836   5.037   4.368 -0.0375  0.4054 -0.4688
19685TIP3    H180546   2.753   5.044   4.416  1.0060  1.2350  1.3452
19685TIP3    H280547   2.811   5.042   4.276 -2.2193 -1.9199 -0.1082
19686TIP3   OH280548   6.588   1.590   4.578  0.1688 -0.3893  0.1557
19686TIP3    H180549   6.667   1.642   4.563 -0.2112  0.3151  0.5213
19686TIP3    H280550   6.593   1.565   4.670 -0.4315  0.3500  0.3950
19687TIP3   OH280551   1.319   0.630   2.020  0.1374 -0.0049  0.0428
19687TIP3    H180552   1.386   0.650   2.086  1.0661  0.9937 -1.1343
19687TIP3    H280553   1.304   0.536   2.028  0.3808  0.0564  1.5196
19688TIP3   OH280554   1.594   2.528   1.268 -0.4288 -0.2434  0.1436
19688TIP3    H180555   1.672   2.490   1.308  0.1887 -0.2185 -0.9954
19688TIP3    H280556   1.534   2.454   1.256  0.6394 -0.8690 -1.7729
19689TIP3   OH280557   1.391   4.851   0.875  0.5235  0.0138  0.0991
19689TIP3    H180558   1.319   4.868   0.936  0.9195 -1.7669  1.1160
19689TIP3    H280559   1.358   4.782   0.817  0.7708  0.4758 -0.6077
19690TIP3   OH280560   2.435   2.351   3.217 -0.2515 -0.7063  0.6215
19690TIP3    H180561   2.353   2.381   3.179 -1.2230 -3.0899  0.6643
19690TIP3    H280562   2.488   2.323   3.142  0.4437  0.5312  0.6185
19691TIP3   OH280563   1.564   4.426  17.084  0.3188 -0.2169 -0.2685
19691TIP3    H180564   1.640   4.482  17.066 -0.3067  0.0539 -2.3272
19691TIP3    H280565   1.587   4.378  17.163  2.9502 -0.6617 -1.2160
19692TIP3   OH280566   0.264   2.494   0.620  0.0026  0.2966  0.5196
19692TIP3    H180567   0.354   2.466   0.638 -0.4463 -1.3319  0.4306
19692TIP3    H280568   0.241   2.550   0.694  0.8917  0.2467  0.8420
19693TIP3   OH280569   0.935   2.283  15.663  0.8979 -0.7887  0.2944
19693TIP3    H180570   0.902   2.237  15.585  1.6182 -0.7421 -0.0438
19693TIP3    H280571   0.896   2.371  15.656  0.6671 -0.8972  0.1811
19694TIP3   OH280572   3.238   2.024  15.949 -0.1406  0.7274 -0.1152
19694TIP3    H180573   3.318   1.975  15.968 -0.7908 -0.6797 -0.8220
19694TIP3    H280574   3.191   2.028  16.033 -0.5527 -0.8123 -0.2387
19695TIP3   OH280575   2.330   5.568   2.778  0.3866  0.2842  0.6493
19695TIP3    H180576   2.326   5.600   2.868  0.8340 -0.4555  0.9422
19695TIP3    H280577   2.377   5.636   2.731  1.7633 -0.1144  1.3671
19696TIP3   OH280578   6.229   0.524  12.353  0.2861  0.4649  0.2852
19696TIP3    H180579   6.152   0.477  12.320  1.0915 -0.9456  0.3243
19696TIP3    H280580   6.203   0.616  12.354 -0.3987  0.3644 -2.4579
19697TIP3   OH280581   1.992   3.937  16.087  0.0656  0.1146  0.2400
19697TIP3    H180582   2.084   3.962  16.089  0.7498 -2.1040  0.0921
19697TIP3    H280583   1.991   3.849  16.126 -2.1349  0.4725  1.1443
19698TIP3   OH280584   5.064   4.405  15.295  0.0726  0.0822  0.2633
19698TIP3    H180585   5.061   4.429  15.388  0.1201  1.0018  0.0438
19698TIP3    H280586   5.106   4.319  15.293 -0.6824 -0.3252  1.1579
19699TIP3   OH280587   2.015   6.639  13.537  0.4609 -0.0581  0.1298
19699TIP3    H180588   2.060   6.683  13.609  1.2560  0.5060 -0.6824
19699TIP3    H280589   1.979   6.710  13.485 -0.6684 -0.4821  0.3051
19700TIP3   OH280590   5.524   2.682  12.632 -0.4073  0.7948 -0.4498
19700TIP3    H180591   5.451   2.643  12.585 -0.4039 -0.6984  0.7264
19700TIP3    H280592   5.482   2.734  12.701 -0.3706  0.6039 -0.2839
19701TIP3   OH280593   3.040   4.771  12.797  0.4600  0.1659  0.3125
19701TIP3    H180594   3.108   4.837  12.797 -0.7985  1.5319  1.8363
19701TIP3    H280595   3.025   4.752  12.704  0.8913  2.0017 -0.1667
19702TIP3   OH280596   0.813   4.257  11.227  0.1721  0.1063 -0.0441
19702TIP3    H180597   0.777   4.345  11.221  0.5591  0.3765  1.3631
19702TIP3    H280598   0.837   4.235  11.136 -0.6339  1.1271 -0.5210
19703TIP3   OH280599   0.123   3.181  12.527 -0.5033  0.2607  0.3328
19703TIP3    H180600   0.089   3.161  12.614  1.5691 -1.7481  0.7731
19703TIP3    H280601   0.079   3.118  12.469  2.3041 -2.4515  0.9274
19704TIP3   OH280602   1.735   5.544   5.416 -0.1485 -0.6696 -0.4360
19704TIP3    H180603   1.651   5.590   5.421 -0.0100 -0.1560 -2.0209
19704TIP3    H280604   1.744   5.500   5.500 -0.6076  1.6810  0.9465
19705TIP3   OH280605   2.175   0.725   5.327  0.1424 -0.2762  0.0694
19705TIP3    H180606   2.166   0.806   5.377 -1.0361 -0.6932  0.5761
19705TIP3    H280607   2.130   0.742   5.244  0.2208 -0.2888  0.0240
19706TIP3   OH280608   0.679   3.603   0.633  0.2508 -0.2840 -0.2349
19706TIP3    H180609   0.658   3.682   0.682 -0.3927  0.2898 -1.4084
19706TIP3    H280610   0.772   3.589   0.649  0.4842  0.9843 -0.3983
19707TIP3   OH280611   4.303   5.022  12.662 -0.2697 -0.2375  0.5422
19707TIP3    H180612   4.385   5.054  12.624 -1.3945  0.3418 -1.5457
19707TIP3    H280613   4.284   5.084  12.734  0.9229 -0.1928  0.8469
19708TIP3   OH280614   0.419   3.017   5.791 -0.2468 -0.3545  0.2166
19708TIP3    H180615   0.401   3.024   5.698 -3.9913  0.2612  0.8299
19708TIP3    H280616   0.424   2.922   5.808  1.6428 -0.4761 -0.6660
19709TIP3   OH280617   0.626   6.782   5.965  0.4803  0.1165 -0.5598
19709TIP3    H180618   0.566   6.834   6.019  0.9971 -0.1931  0.3389
19709TIP3    H280619   0.690   6.748   6.027  0.5517 -1.0295 -1.2357
19710TIP3   OH280620   0.443   0.930  15.548 -0.2758 -0.1870  0.1666
19710TIP3    H180621   0.362   0.887  15.576  0.0911 -0.2986  1.1023
19710TIP3    H280622   0.447   1.009  15.601 -0.1814  0.2429 -0.4701
19711TIP3   OH280623   1.087   0.188   5.693 -0.4972 -0.0338  0.5406
19711TIP3    H180624   1.133   0.154   5.616 -1.0894  0.1207  0.1175
19711TIP3    H280625   1.156   0.199   5.758 -0.2250 -1.6765  0.5740
19712TIP3   OH280626   3.101   1.245  11.412  0.1449 -0.3922 -0.0168
19712TIP3    H180627   3.016   1.268  11.450 -0.7295 -3.1723 -0.0752
19712TIP3    H280628   3.165   1.289  11.468 -1.2844  1.8795 -0.0534
19713TIP3   OH280629   2.409   2.658   2.432 -0.2112 -0.1931 -0.2149
19713TIP3    H180630   2.466   2.599   2.481 -1.3075 -0.0390  1.3238
19713TIP3    H280631   2.339   2.680   2.493 -2.4399 -1.0642 -2.2574
19714TIP3   OH280632   4.621   1.711   6.227 -0.4262 -0.2426 -0.1208
19714TIP3    H180633   4.611   1.617   6.213 -1.1668 -0.2915  0.6552
19714TIP3    H280634   4.596   1.725   6.319 -0.5479  0.7362 -0.2883
19715TIP3   OH280635   1.002   2.831   0.783 -0.4477 -0.2402  0.2868
19715TIP3    H180636   1.016   2.737   0.795 -1.6077 -0.6596 -1.2791
19715TIP3    H280637   0.949   2.857   0.858 -1.0405 -1.0800  0.1703
19716TIP3   OH280638   0.618   3.667  17.208 -0.4297 -0.7425 -0.0656
19716TIP3    H180639   0.527   3.695  17.221 -0.3210 -0.4094 -0.0138
19716TIP3    H280640   0.624   3.583  17.253 -0.3639 -0.1513  1.0580
19717TIP3   OH280641   0.289   5.080  13.419 -0.9123 -0.2017  0.3459
19717TIP3    H180642   0.282   5.142  13.346 -0.1043  0.1868  0.5832
19717TIP3    H280643   0.375   5.098  13.458 -0.3721 -1.9024  0.0416
19718TIP3   OH280644   6.179   0.887   4.809 -0.3148 -0.4614  0.5462
19718TIP3    H180645   6.211   0.952   4.872  0.4084 -1.4050  1.1853
19718TIP3    H280646   6.164   0.808   4.861 -2.4742 -0.4707  0.0375
19719TIP3   OH280647   0.822   4.021  14.699 -0.1074  0.4706  0.4214
19719TIP3    H180648   0.730   3.994  14.704  0.3017 -0.6817  2.9020
19719TIP3    H280649   0.870   3.938  14.699  0.9986  1.1087  1.1541
19720TIP3   OH280650   0.810   0.783   4.554  0.1952  0.0064 -0.3129
19720TIP3    H180651   0.905   0.791   4.551  0.1180  0.6207 -1.6204
19720TIP3    H280652   0.782   0.847   4.619  0.7247 -0.8685  0.8139
19721TIP3   OH280653   0.083   3.855  13.037 -0.6251  0.0471  0.5743
19721TIP3    H180654   0.077   3.816  12.949 -0.9739 -1.1302  1.1064
19721TIP3    H280655   0.177   3.870  13.050 -0.5544  0.0841  0.0787
19722TIP3   OH280656   5.900   1.394   5.716  1.0823 -0.1033 -0.0228
19722TIP3    H180657   5.941   1.366   5.634  2.0621  2.9299 -0.7198
19722TIP3    H280658   5.960   1.362   5.784  2.2848  0.4780 -0.7659
19723TIP3   OH280659   1.357   1.901  14.669  0.5632  0.2075  0.1887
19723TIP3    H180660   1.350   1.996  14.660  0.0876  0.1571  0.0269
19723TIP3    H280661   1.303   1.866  14.599  0.0482 -0.1816  0.7693
19724TIP3   OH280662   3.272   1.594  12.170 -0.2873  0.0744 -0.1389
19724TIP3    H180663   3.313   1.578  12.084  0.4872 -1.5972  0.4986
19724TIP3    H280664   3.196   1.536  12.171 -0.8428  0.7848 -0.0313
19725TIP3   OH280665   5.972   0.789   5.550 -0.1042 -0.1903 -0.4948
19725TIP3    H180666   6.052   0.748   5.519  0.0105  0.0300 -0.4889
19725TIP3    H280667   5.981   0.793   5.645 -0.7705 -1.5375 -0.3395
19726TIP3   OH280668   5.245   3.985   5.219 -0.3780  0.5186  0.5452
19726TIP3    H180669   5.326   3.951   5.181 -1.1222 -2.9392  1.6616
19726TIP3    H280670   5.273   4.051   5.282  1.5328 -0.1040  0.3961
19727TIP3   OH280671   2.666   2.280  11.640  0.1738  0.0640  0.4808
19727TIP3    H180672   2.756   2.299  11.613 -0.5309  0.4756 -1.7180
19727TIP3    H280673   2.634   2.362  11.677  0.3250  0.2584  0.1797
19728TIP3   OH280674   2.722   4.491   3.555  0.2390 -0.1186 -0.3100
19728TIP3    H180675   2.683   4.407   3.530  0.1270  0.2676 -1.5076
19728TIP3    H280676   2.768   4.473   3.637 -2.0290 -0.7121  0.9090
19729TIP3   OH280677   4.826   5.682  12.752  0.0530  0.2276  0.3420
19729TIP3    H180678   4.758   5.671  12.686 -0.7056  2.8850  0.5868
19729TIP3    H280679   4.908   5.684  12.702 -0.0613 -1.8458 -0.0511
19730TIP3   OH280680   4.481   0.323   1.670  0.4059  0.1314 -0.0396
19730TIP3    H180681   4.471   0.314   1.575 -0.4000 -1.7347  0.1767
19730TIP3    H280682   4.392   0.321   1.704  0.7227 -0.0869  0.8091
19731TIP3   OH280683   5.762   2.546  12.423  0.0708 -0.0991 -0.2568
19731TIP3    H180684   5.778   2.511  12.511 -0.1707 -1.2838 -0.6534
19731TIP3    H280685   5.668   2.567  12.423  0.0603 -0.1446 -0.2485
19732TIP3   OH280686   4.932   6.290   0.169 -0.6516  0.4737  0.2093
19732TIP3    H180687   4.965   6.289   0.259 -0.3968 -0.4397  0.1114
19732TIP3    H280688   4.902   6.200   0.153 -0.5917  0.5999 -0.6610
19733TIP3   OH280689   3.258   0.975   3.033 -0.1236  0.2306 -0.6276
19733TIP3    H180690   3.276   0.937   2.947  0.4852 -0.7868 -0.0687
19733TIP3    H280691   3.304   1.059   3.032  1.4067 -0.5709 -0.6575
19734TIP3   OH280692   1.587   2.266   4.624 -0.1805  0.0999 -0.0217
19734TIP3    H180693   1.683   2.269   4.623 -0.1958  0.5463 -0.5657
19734TIP3    H280694   1.561   2.310   4.544 -0.9090  2.1950  1.2856
19735TIP3   OH280695   5.890   5.019  11.108  0.2767 -0.4397  0.2212
19735TIP3    H180696   5.870   4.962  11.183 -0.8395  1.8455  1.7813
19735TIP3    H280697   5.976   5.056  11.129  0.1862 -0.1821  0.1376
19736TIP3   OH280698   2.300   4.808  14.602 -0.2896  0.4675 -0.2276
19736TIP3    H180699   2.240   4.880  14.619 -0.7498 -0.1569  0.9198
19736TIP3    H280700   2.253   4.730  14.633  0.8278 -0.1285  0.0101
19737TIP3   OH280701   0.861   1.991   2.482 -0.0487 -0.2526  0.0004
19737TIP3    H180702   0.771   1.958   2.477 -0.2777  0.3592 -0.0492
19737TIP3    H280703   0.895   1.980   2.393 -0.0992 -0.4210  0.0018
19738TIP3   OH280704   6.603   4.342  15.376  0.1266  0.8931 -0.0512
19738TIP3    H180705   6.561   4.267  15.334  1.8692  0.8132 -1.8169
19738TIP3    H280706   6.621   4.312  15.466  0.3259 -0.6318 -0.5669
19739TIP3   OH280707   6.452   4.233   5.883  0.3625 -0.1662  0.6729
19739TIP3    H180708   6.367   4.264   5.849  0.5264 -0.9093 -0.4847
19739TIP3    H280709   6.461   4.276   5.968 -0.1048  1.7635 -0.1928
19740TIP3   OH280710   5.470   4.539   4.358  0.0477 -0.2018  0.4604
19740TIP3    H180711   5.480   4.571   4.448 -1.9530 -0.7262  0.9287
19740TIP3    H280712   5.501   4.448   4.361 -1.6859 -0.8261  1.1332
19741TIP3   OH280713   4.092   6.426  11.212  0.7876 -0.6552  0.0568
19741TIP3    H180714   4.043   6.507  11.201  1.2064 -0.2218  1.2832
19741TIP3    H280715   4.115   6.400  11.123  1.7998  1.2915 -0.3099
19742TIP3   OH280716   0.063   2.803  16.130 -0.4851  0.0688  0.4488
19742TIP3    H180717   0.030   2.714  16.125 -1.6213  0.5021 -0.1576
19742TIP3    H280718   0.157   2.793  16.146 -0.7397 -1.2070  1.2860
19743TIP3   OH280719   3.488   5.741  13.274  0.3410 -0.2316 -0.8023
19743TIP3    H180720   3.574   5.760  13.236 -0.0345  0.8994 -1.1042
19743TIP3    H280721   3.478   5.646  13.264  1.6407 -0.4096 -0.5606
19744TIP3   OH280722   1.684   5.997  13.996  0.3185 -0.1308  0.1674
19744TIP3    H180723   1.658   5.924  13.941 -0.6088  0.3986 -0.1184
19744TIP3    H280724   1.642   5.980  14.080  1.6160 -0.8646  0.6916
19745TIP3   OH280725   1.696   0.144   4.395 -0.2713  0.0201 -0.3756
19745TIP3    H180726   1.657   0.219   4.441  1.6604  0.9923 -0.2218
19745TIP3    H280727   1.652   0.068   4.432 -0.5688  0.9422  1.2657
19746TIP3   OH280728   3.169   2.747  14.757  0.7975  0.8701  0.1167
19746TIP3    H180729   3.145   2.795  14.678  1.0634  0.4049 -0.2543
19746TIP3    H280730   3.167   2.813  14.826 -0.7769  1.0135 -0.0193
19747TIP3   OH280731   0.227   2.381  16.399 -0.4164  0.1396  0.0371
19747TIP3    H180732   0.288   2.415  16.464 -1.2896  1.3969  0.2418
19747TIP3    H280733   0.276   2.312  16.354  0.3464 -0.4568  1.7116
19748TIP3   OH280734   0.866   0.297   5.121  0.3161 -0.4591 -0.1363
19748TIP3    H180735   0.825   0.381   5.143  0.0674 -0.4748 -0.5224
19748TIP3    H280736   0.845   0.284   5.029 -1.1948 -1.8131  0.3511
19749TIP3   OH280737   2.286   5.863   1.655 -0.0290 -0.1362 -0.9114
19749TIP3    H180738   2.307   5.782   1.609  1.7706  0.1846 -0.7202
19749TIP3    H280739   2.253   5.835   1.741  0.7599 -0.6672 -0.7802
19750TIP3   OH280740   6.365   0.571   0.223 -0.6165 -0.2547  0.5111
19750TIP3    H180741   6.294   0.507   0.219 -0.1100 -0.8820  1.2331
19750TIP3    H280742   6.363   0.614   0.137 -2.7514  0.7463  1.0110
19751TIP3   OH280743   6.507   4.231   0.351  0.3638 -0.1270 -0.3494
19751TIP3    H180744   6.559   4.290   0.297 -1.3847  0.4294 -1.4759
19751TIP3    H280745   6.434   4.205   0.296  0.0641 -1.8641  0.7767
19752TIP3   OH280746   0.168   0.346   2.949  0.1123  0.4024  0.2970
19752TIP3    H180747   0.225   0.367   2.875 -0.3956  0.2734 -0.1357
19752TIP3    H280748   0.189   0.412   3.015 -0.0616  1.0654 -0.2963
19753TIP3   OH280749   6.679   6.402   5.081 -0.1632 -0.5105 -0.1661
19753TIP3    H180750   6.729   6.344   5.138  0.2987 -1.0749 -1.1174
19753TIP3    H280751   6.589   6.398   5.115 -0.1356 -1.7804 -0.1983
19754TIP3   OH280752   2.040   4.886   5.538 -0.6092  0.0628  0.4906
19754TIP3    H180753   2.037   4.956   5.604 -3.1871  0.6616 -0.1581
19754TIP3    H280754   1.995   4.923   5.462 -1.6495 -2.1441 -0.0460
19755TIP3   OH280755   1.747   4.317   1.326 -0.0799  0.0983 -0.1385
19755TIP3    H180756   1.823   4.346   1.275  0.3718  1.4963  1.2697
19755TIP3    H280757   1.775   4.234   1.365  0.5887  0.4293  0.0910
19756TIP3   OH280758   4.175   4.612   2.167 -0.0682 -0.3053  0.4647
19756TIP3    H180759   4.102   4.641   2.113  0.9249  1.9339  0.2551
19756TIP3    H280760   4.154   4.644   2.255  1.9486  3.0895 -0.1214
19757TIP3   OH280761   0.513   3.753  13.137  0.1046  0.4565 -0.3762
19757TIP3    H180762   0.477   3.707  13.061  1.1137  1.0671 -1.2564
19757TIP3    H280763   0.480   3.843  13.128  0.7557  0.6917 -0.4705
19758TIP3   OH280764   3.854   1.455   3.500  0.6272 -0.1989 -0.1222
19758TIP3    H180765   3.854   1.360   3.511 -0.9592 -0.1210  0.7217
19758TIP3    H280766   3.878   1.490   3.586 -1.3722  0.1875  0.3222
19759TIP3   OH280767   3.363   1.948  10.909  0.4632 -0.4513  0.1067
19759TIP3    H180768   3.339   2.028  10.863  0.0259 -0.8839 -0.4333
19759TIP3    H280769   3.298   1.941  10.980  0.9870  0.0838  0.6511
19760TIP3   OH280770   4.801   2.449  10.412  0.9852 -0.7831 -0.2479
19760TIP3    H180771   4.876   2.402  10.449  0.8561 -1.6187 -1.0120
19760TIP3    H280772   4.732   2.383  10.405  0.5583 -0.3017 -0.6486
19761TIP3   OH280773   4.815   3.969  15.924  0.7008 -0.4979  0.0194
19761TIP3    H180774   4.807   3.923  16.007 -1.5682  0.8352  0.6192
19761TIP3    H280775   4.903   4.006  15.925  0.9663 -1.1279  1.4873
19762TIP3   OH280776   6.398   0.417  14.582 -0.0851 -0.0610  0.1400
19762TIP3    H180777   6.376   0.457  14.498 -1.3300 -1.9692 -0.4984
19762TIP3    H280778   6.380   0.486  14.647 -1.3029  0.7169 -0.9699
19763TIP3   OH280779   1.973   4.142   1.112 -0.1643 -0.1408 -0.5387
19763TIP3    H180780   1.996   4.111   1.199 -0.9525  0.2559 -0.1728
19763TIP3    H280781   2.035   4.212   1.094  0.0122 -0.2360 -0.2978
19764TIP3   OH280782   3.600   5.583   1.987 -0.1711  0.5306 -0.2385
19764TIP3    H180783   3.679   5.616   2.030 -0.5520 -0.0892  0.9895
19764TIP3    H280784   3.583   5.499   2.029 -0.8529  0.1257 -1.2845
19765TIP3   OH280785   3.360   2.130  16.274  0.7341  0.2807 -0.0203
19765TIP3    H180786   3.424   2.105  16.207  1.1388 -2.0825  1.1743
19765TIP3    H280787   3.282   2.079  16.253  0.5935  0.1307  0.8485
19766TIP3   OH280788   2.303   5.041   4.743 -0.4649  0.1152  0.0434
19766TIP3    H180789   2.288   4.974   4.809 -1.3593  1.9602  1.8069
19766TIP3    H280790   2.396   5.062   4.752  0.0679 -1.4654 -1.1834
19767TIP3   OH280791   0.523   2.425  11.615 -0.3291 -0.1516 -0.1697
19767TIP3    H180792   0.544   2.418  11.709  0.3467 -1.3944 -0.3881
19767TIP3    H280793   0.556   2.512  11.590  1.3597 -0.5968  0.3198
19768TIP3   OH280794   0.047   1.267  16.929  0.2050 -0.1188  0.0430
19768TIP3    H180795  -0.046   1.269  16.950  0.4092  0.6728  0.9501
19768TIP3    H280796   0.064   1.176  16.906 -0.7150 -0.3558  0.2503
19769TIP3   OH280797   3.608   3.771   5.445  0.0651 -0.3933  0.6521
19769TIP3    H180798   3.572   3.688   5.478  0.2770 -0.5094  0.5922
19769TIP3    H280799   3.534   3.814   5.402 -0.1174 -0.4211  0.9324
19770TIP3   OH280800   0.339   1.999   6.027  0.4810 -0.3774  0.1477
19770TIP3    H180801   0.314   1.925   5.971  1.7801 -0.4214 -0.4323
19770TIP3    H280802   0.302   2.075   5.983  0.7012 -0.5111 -0.2858
19771TIP3   OH280803   1.825   4.362   4.231 -0.5558 -0.4141  0.2207
19771TIP3    H180804   1.784   4.308   4.299 -0.2038  1.3694  1.9160
19771TIP3    H280805   1.803   4.452   4.255  1.7561  0.4238 -0.5645
19772TIP3   OH280806   2.621   4.539  13.917 -0.4341  0.2969  0.7712
19772TIP3    H180807   2.664   4.481  13.855 -1.3279  1.3180 -0.8700
19772TIP3    H280808   2.536   4.497  13.934 -1.9730  1.9975 -2.0275
19773TIP3   OH280809   4.024   6.278   4.868  0.3328  0.2451 -0.4929
19773TIP3    H180810   4.106   6.291   4.916  0.9647  0.8127 -1.6753
19773TIP3    H280811   3.982   6.364   4.867 -0.1628  0.0132 -0.1152
19774TIP3   OH280812   4.185   4.077   5.194 -0.4062 -0.0307 -0.3192
19774TIP3    H180813   4.123   4.080   5.267 -1.2429 -1.1699 -0.9497
19774TIP3    H280814   4.269   4.057   5.234 -1.0459 -1.6936  0.2601
19775TIP3   OH280815   1.201   2.657  15.375 -0.6899 -0.7197  0.3705
19775TIP3    H180816   1.137   2.664  15.304  0.2393  1.3905 -0.3365
19775TIP3    H280817   1.181   2.731  15.432 -0.3412 -1.4114  1.4091
19776TIP3   OH280818   2.926   6.073  10.872 -0.1261  0.1372  0.1121
19776TIP3    H180819   2.897   5.984  10.855 -0.5314  0.2481  0.2011
19776TIP3    H280820   2.904   6.088  10.964 -3.8364  1.6826 -0.8424
19777TIP3   OH280821   1.015   0.527   5.731 -0.0604 -0.3167  0.7690
19777TIP3    H180822   1.006   0.434   5.708 -0.7998  0.2389 -1.5502
19777TIP3    H280823   1.074   0.562   5.664 -1.0886  1.1703  0.5838
19778TIP3   OH280824   4.905   4.510   1.082  0.3608  0.1514  0.3896
19778TIP3    H180825   4.900   4.516   1.177  1.1262 -2.7212  0.7089
19778TIP3    H280826   4.818   4.483   1.055  0.2740  0.5063  0.3058
19779TIP3   OH280827   1.437   2.832  12.893 -0.2431 -0.3700  0.3049
19779TIP3    H180828   1.387   2.913  12.882 -1.7105 -1.2439  0.2444
19779TIP3    H280829   1.514   2.859  12.943 -0.7440  1.0465  0.3825
19780TIP3   OH280830   3.745   3.527  17.028  0.0384 -0.2211 -0.0166
19780TIP3    H180831   3.777   3.513  17.117  0.0207  0.2208  0.0664
19780TIP3    H280832   3.710   3.443  17.000  0.7351 -0.5562  0.1108
19781TIP3   OH280833   5.636   4.687  10.249 -0.2941 -1.0771  0.0031
19781TIP3    H180834   5.572   4.739  10.296  1.0205 -1.2703  2.1144
19781TIP3    H280835   5.677   4.749  10.189 -0.7186 -0.3718  0.4230
19782TIP3   OH280836   3.635   0.296   3.287  0.4449 -0.3661 -0.0975
19782TIP3    H180837   3.617   0.390   3.289 -1.9185 -0.7568  2.3586
19782TIP3    H280838   3.701   0.283   3.355  0.3474 -0.5708 -0.0422
19783TIP3   OH280839   4.262   4.517  12.065 -0.1076  0.2498  0.0764
19783TIP3    H180840   4.198   4.495  12.132 -0.8291 -0.2510 -0.7606
19783TIP3    H280841   4.275   4.612  12.075 -0.2219  0.1841  0.8973
19784TIP3   OH280842   6.697   2.543  16.180 -0.0288 -0.5458 -0.8482
19784TIP3    H180843   6.735   2.536  16.092  0.5226 -1.3707 -0.5547
19784TIP3    H280844   6.612   2.584  16.167  0.4416  0.2020 -1.6632
19785TIP3   OH280845   1.261   2.721  17.229  0.4574 -0.1536 -0.1694
19785TIP3    H180846   1.349   2.745  17.201  0.3319  0.6237  0.0878
19785TIP3    H280847   1.205   2.744  17.155  0.4024 -0.1813 -0.1363
19786TIP3   OH280848   5.240   6.570   0.052  0.6825  0.0100 -0.5857
19786TIP3    H180849   5.286   6.583  -0.030  0.8741 -0.5743 -0.5722
19786TIP3    H280850   5.304   6.529   0.110  0.5066  0.2852 -0.1849
19787TIP3   OH280851   5.499   2.775  14.589  0.0256  0.3178 -0.6402
19787TIP3    H180852   5.431   2.840  14.570 -0.9942 -0.6380 -0.3522
19787TIP3    H280853   5.451   2.698  14.619  1.3359  0.3659  1.8297
19788TIP3   OH280854   1.882   2.417  12.122  0.2458  0.3084 -0.1257
19788TIP3    H180855   1.814   2.462  12.173 -0.8137  0.5887 -1.7204
19788TIP3    H280856   1.835   2.347  12.076  1.3326 -0.4853 -0.0593
19789TIP3   OH280857   6.074   1.023   4.282 -0.1758  0.5300 -0.4190
19789TIP3    H180858   6.095   1.048   4.193 -0.1149  0.1911 -0.5000
19789TIP3    H280859   6.012   1.090   4.312 -0.3883  0.5061 -0.8001
19790TIP3   OH280860   1.616   0.433   4.430  0.0989  0.3635  1.0725
19790TIP3    H180861   1.675   0.508   4.427  1.9198 -0.9583  1.9333
19790TIP3    H280862   1.528   0.472   4.430  0.9288  2.3976 -0.2703
19791TIP3   OH280863   2.631   5.012  13.913  0.4028 -0.3981  0.2790
19791TIP3    H180864   2.538   4.989  13.913  0.2027  0.3742  0.0922
19791TIP3    H280865   2.633   5.101  13.950  1.1159 -0.5913  0.7115
19792TIP3   OH280866   3.138   5.959  10.716  0.2691 -0.0696 -0.4773
19792TIP3    H180867   3.091   6.015  10.777 -1.7367 -1.4362 -0.6504
19792TIP3    H280868   3.183   5.895  10.771  0.6067  0.2620 -0.3643
19793TIP3   OH280869   1.342   1.251  16.635 -0.0353 -0.2977  0.1034
19793TIP3    H180870   1.255   1.239  16.673 -0.4375  1.0884 -0.2939
19793TIP3    H280871   1.391   1.301  16.702 -0.7856  2.2583 -1.1248
19794TIP3   OH280872   3.263   2.016   4.402 -0.0944  0.1002  0.0937
19794TIP3    H180873   3.205   2.045   4.472 -0.5451 -1.8911  0.6260
19794TIP3    H280874   3.267   2.089   4.341 -0.4315  1.5473  1.7336
19795TIP3   OH280875   1.303   1.969  12.027  0.1986 -0.9419 -0.5241
19795TIP3    H180876   1.351   1.939  11.949  0.8498 -0.0626 -0.4708
19795TIP3    H280877   1.298   2.064  12.017 -0.4591 -0.9070  0.0976
19796TIP3   OH280878   5.424   3.593  12.233 -0.8722 -0.3055 -0.2893
19796TIP3    H180879   5.510   3.616  12.197 -1.7693  1.8814 -1.1793
19796TIP3    H280880   5.431   3.499  12.252  1.8576 -0.1153  0.1333
19797TIP3   OH280881   5.346   4.620   1.742 -1.0985  0.7750  0.0390
19797TIP3    H180882   5.394   4.574   1.673 -1.7891 -0.3949  0.3106
19797TIP3    H280883   5.334   4.709   1.708  0.0682  0.6988 -0.6012
19798TIP3   OH280884   4.210   3.841  11.201 -0.3245  0.1476 -0.0102
19798TIP3    H180885   4.191   3.868  11.112 -0.6562 -0.7953 -0.2421
19798TIP3    H280886   4.286   3.783  11.193  0.0385  0.5577  0.4005
19799TIP3   OH280887   2.437   3.239   4.203 -0.1156  0.1514  0.3999
19799TIP3    H180888   2.485   3.317   4.174 -1.0815 -0.1569 -2.3427
19799TIP3    H280889   2.494   3.200   4.269  1.8347  1.5591 -0.3367
19800TIP3   OH280890   0.105   2.227  11.421 -0.2077 -1.1896 -0.6010
19800TIP3    H180891   0.050   2.191  11.489  0.6989 -2.9675 -0.7553
19800TIP3    H280892   0.178   2.166  11.413  1.9023  1.0987 -0.3118
19801TIP3   OH280893   0.861   4.505   0.202  0.7881 -0.3778 -0.3628
19801TIP3    H180894   0.806   4.574   0.163 -0.7785  0.0812  2.3895
19801TIP3    H280895   0.906   4.466   0.127 -0.4755  1.7043 -2.3695
19802TIP3   OH280896   5.597   3.241  17.038  0.4526 -0.3325  0.1312
19802TIP3    H180897   5.537   3.290  17.094  1.8662  0.2660  1.1996
19802TIP3    H280898   5.672   3.299  17.026  0.5945 -0.8257 -1.6510
19803TIP3   OH280899   3.256   3.631  15.507 -0.0938 -0.1999  0.7934
19803TIP3    H180900   3.182   3.571  15.499  0.5778 -1.0120  0.5817
19803TIP3    H280901   3.331   3.575  15.527  1.1192  0.1966 -2.1844
19804TIP3   OH280902   5.547   5.322   1.020 -0.0174  0.1244  0.3620
19804TIP3    H180903   5.592   5.342   1.102  1.0492 -1.1677  0.1143
19804TIP3    H280904   5.462   5.287   1.048  1.0756 -2.1721  1.0286
19805TIP3   OH280905   2.470   6.622  17.267  0.4422  0.5004 -0.7022
19805TIP3    H180906   2.407   6.659  17.329  0.0177 -1.9060  0.4499
19805TIP3    H280907   2.517   6.697  17.233  1.2160  2.0205  3.1428
19806TIP3   OH280908   1.761   4.293  12.250 -0.4840  0.0942 -0.6030
19806TIP3    H180909   1.669   4.276  12.271 -0.0989 -2.4574 -0.7648
19806TIP3    H280910   1.769   4.268  12.158  0.3254  0.5871 -0.6723
19807TIP3   OH280911   5.092   0.535  11.911 -0.1010 -0.7864 -0.2120
19807TIP3    H180912   5.162   0.530  11.846  1.1923 -4.1810  1.1916
19807TIP3    H280913   5.136   0.561  11.992 -0.9616 -0.4206  0.1521
19808TIP3   OH280914   0.973   5.231  11.392 -0.1895  1.0456 -0.0150
19808TIP3    H180915   0.940   5.245  11.481 -0.5463  1.5900 -0.2314
19808TIP3    H280916   0.911   5.278  11.336 -0.0307  0.6103 -0.5613
19809TIP3   OH280917   1.792   0.053  13.109  0.1357  0.0148  0.3830
19809TIP3    H180918   1.804   0.148  13.121  1.2017  0.2659 -2.0551
19809TIP3    H280919   1.700   0.043  13.086  0.6337  0.9114 -2.3101
19810TIP3   OH280920   2.708   1.230  12.404 -0.8066  0.4351  0.3726
19810TIP3    H180921   2.672   1.145  12.379 -0.9025  0.8081 -0.8072
19810TIP3    H280922   2.743   1.216  12.492  2.9741 -2.0061 -1.2719
19811TIP3   OH280923   2.325   0.937  16.592  0.2206 -0.0963  0.2611
19811TIP3    H180924   2.347   1.030  16.591 -0.8608  0.1894 -0.7222
19811TIP3    H280925   2.385   0.897  16.655  2.7070  0.7536 -1.4114
19812TIP3   OH280926   0.932   6.419  12.883 -0.2289 -0.1307  0.1592
19812TIP3    H180927   0.976   6.464  12.811 -0.0215 -1.4094 -0.5463
19812TIP3    H280928   0.862   6.368  12.841  0.6120 -1.8082  0.6885
19813TIP3   OH280929   6.522   3.111   4.554  0.3952 -0.0456 -0.2979
19813TIP3    H180930   6.486   3.045   4.495  0.0554 -0.7971  0.7214
19813TIP3    H280931   6.467   3.106   4.632  1.8458 -0.2741  0.7597
19814TIP3   OH280932   6.138   1.613  13.459  0.0032 -0.0854 -0.4179
19814TIP3    H180933   6.211   1.653  13.507 -0.3339 -1.8813  1.7318
19814TIP3    H280934   6.172   1.528  13.431 -1.4924 -1.3939  1.5038
19815TIP3   OH280935   2.722   2.094  16.046 -0.6201  0.6806 -0.0566
19815TIP3    H180936   2.764   2.094  15.960  0.4005  2.0751  0.4112
19815TIP3    H280937   2.735   2.182  16.079 -1.4143  0.3003  1.3446
19816TIP3   OH280938   1.206   2.869   1.760  0.0760 -0.2682  0.2988
19816TIP3    H180939   1.136   2.806   1.780  0.3446 -0.7469 -0.2103
19816TIP3    H280940   1.175   2.915   1.682 -0.9840  1.6115  1.7618
19817TIP3   OH280941   1.704   0.839   1.883 -0.0023 -0.0417 -0.0212
19817TIP3    H180942   1.753   0.827   1.802 -0.1821 -0.0225 -0.1325
19817TIP3    H280943   1.668   0.928   1.877  0.6962  0.2867  0.4643
19818TIP3   OH280944   2.624   6.639  15.463 -0.6318  0.2598  0.7398
19818TIP3    H180945   2.635   6.558  15.414  0.2141  0.2329  0.9535
19818TIP3    H280946   2.616   6.707  15.396  0.0397  0.1644  0.5517
19819TIP3   OH280947   3.530   2.038   0.044 -0.0047 -0.2237 -0.1370
19819TIP3    H180948   3.569   2.068  -0.038 -0.8528  0.2848 -0.3621
19819TIP3    H280949   3.563   1.948   0.054  0.3678 -0.1759 -0.8602
19820TIP3   OH280950   1.240   2.705  11.253  0.2929  0.0003 -0.3391
19820TIP3    H180951   1.271   2.690  11.342  1.1506 -2.3121 -0.9561
19820TIP3    H280952   1.222   2.799  11.249  1.4199  0.3677  1.8796
19821TIP3   OH280953   5.777   5.266  13.966  0.7724  0.3519  0.1436
19821TIP3    H180954   5.714   5.327  14.002  0.8898 -0.6713  2.2346
19821TIP3    H280955   5.725   5.192  13.936  0.8054  0.5604 -0.4505
19822TIP3   OH280956   0.579   6.274  12.757  0.2986 -0.1216  0.7064
19822TIP3    H180957   0.529   6.205  12.801  0.1299  0.0396  0.7700
19822TIP3    H280958   0.517   6.346  12.748 -0.2068 -0.7596 -1.3876
19823TIP3   OH280959   2.130   3.219   0.619  0.4651  0.1951  0.6216
19823TIP3    H180960   2.035   3.228   0.614 -0.0298 -3.0859  1.4830
19823TIP3    H280961   2.163   3.267   0.543 -1.6909  2.6181  1.0692
19824TIP3   OH280962   6.070   1.885  13.931 -0.7635  0.1013  0.1796
19824TIP3    H180963   5.996   1.861  13.876 -0.7903 -1.9067  0.9936
19824TIP3    H280964   6.114   1.956  13.884 -0.6338 -1.6668 -2.5597
19825TIP3   OH280965   0.279   5.143  12.973  0.1763  0.0856  0.1029
19825TIP3    H180966   0.268   5.055  12.938 -2.6788  0.4788 -0.2052
19825TIP3    H280967   0.224   5.145  13.051  0.7436  1.4139  0.5013
19826TIP3   OH280968   2.150   6.379  16.319 -0.2068  0.3851  0.3035
19826TIP3    H180969   2.137   6.286  16.300 -0.6600  0.4772  0.1417
19826TIP3    H280970   2.064   6.410  16.347 -0.0265  0.7276  0.4843
19827TIP3   OH280971   2.728   3.642  13.393 -0.0934 -0.6497  0.2748
19827TIP3    H180972   2.669   3.597  13.332 -0.5028 -0.2858  0.3998
19827TIP3    H280973   2.703   3.609  13.479  0.5248 -1.2078  0.2440
19828TIP3   OH280974   0.512   2.291  15.893  0.1276  0.5248  0.7468
19828TIP3    H180975   0.436   2.346  15.874  1.0348  1.3910 -0.5569
19828TIP3    H280976   0.478   2.202  15.895 -0.6539  0.6978 -1.7464
19829TIP3   OH280977   4.908   0.059  13.794 -0.4585  0.2596  0.0687
19829TIP3    H180978   4.838  -0.000  13.767 -0.8714  1.0172 -0.5672
19829TIP3    H280979   4.864   0.126  13.846 -0.0863  0.3480  0.2785
19830TIP3   OH280980   6.698   3.264  13.773 -0.2073  0.0972 -0.4009
19830TIP3    H180981   6.719   3.194  13.834 -0.3540  0.2299 -0.1931
19830TIP3    H280982   6.652   3.221  13.701  0.8977 -0.2229 -0.9415
19831TIP3   OH280983   4.916   3.516   4.165  0.1879  0.0695  0.1473
19831TIP3    H180984   4.891   3.534   4.075 -0.2330 -0.5128  0.1397
19831TIP3    H280985   4.853   3.450   4.195 -0.3084  0.9937  1.1985
19832TIP3   OH280986   6.340   3.235  14.163 -0.1770 -0.3239 -0.3588
19832TIP3    H180987   6.344   3.328  14.142  0.2902  0.4915  2.7571
19832TIP3    H280988   6.429   3.213  14.192 -0.4674 -1.5520 -0.3161
19833TIP3   OH280989   1.367   2.668  14.189 -0.5947  0.3448 -0.1720
19833TIP3    H180990   1.352   2.642  14.098 -0.0371  0.5808 -0.3368
19833TIP3    H280991   1.369   2.764  14.186 -1.6627  0.3902  0.2697
19834TIP3   OH280992   2.077   0.124   2.234  0.5588 -0.3460 -0.6407
19834TIP3    H180993   2.058   0.191   2.169  0.5048  1.5497  1.2468
19834TIP3    H280994   1.991   0.098   2.267  0.7039  1.2896  1.1376
19835TIP3   OH280995   0.881   2.917  11.209  0.0270  0.2878 -0.0443
19835TIP3    H180996   0.834   2.988  11.165  0.6174  0.7752  0.0985
19835TIP3    H280997   0.893   2.851  11.142 -1.5359 -0.1846  0.1073
19836TIP3   OH280998   4.065   4.131   1.428  0.0006 -0.1122  0.0303
19836TIP3    H180999   3.998   4.097   1.370  0.2411 -0.2993 -0.1363
19836TIP3    H281000   4.040   4.099   1.515  0.5670 -1.2551 -0.2045
19837TIP3   OH281001   0.654   0.213   4.316 -0.2924  0.2638  0.2267
19837TIP3    H181002   0.664   0.172   4.402  1.7110 -1.0117 -0.5168
19837TIP3    H281003   0.588   0.159   4.271 -1.2787  0.8811  0.9091
19838TIP3   OH281004   6.028   1.056   5.504 -0.1124 -0.6297  0.3006
19838TIP3    H181005   5.943   1.086   5.537 -1.1850 -1.0085 -1.9057
19838TIP3    H281006   6.015   0.963   5.484 -0.2630 -0.0270 -2.9923
19839TIP3   OH281007   5.441   5.745   5.429  0.1426 -0.0803  0.0409
19839TIP3    H181008   5.363   5.771   5.478  0.9326 -0.6558  1.6618
19839TIP3    H281009   5.410   5.675   5.371 -0.6441  0.0688  0.2679
19840TIP3   OH281010   3.116   0.045   4.974  0.0193  0.3152  0.4559
19840TIP3    H181011   3.172  -0.012   4.922 -0.2930  0.6089 -0.2092
19840TIP3    H281012   3.033   0.047   4.926 -0.2532  0.6345  0.9355
19841TIP3   OH281013   3.687   4.883   2.983 -0.1488  0.1557  0.1019
19841TIP3    H181014   3.750   4.896   3.054 -1.3655 -0.0566  1.2582
19841TIP3    H281015   3.741   4.872   2.905  1.2597 -0.3679  1.1071
19842TIP3   OH281016   3.938   1.201  15.197  0.1117 -0.7238  0.3099
19842TIP3    H181017   3.879   1.129  15.174 -0.1532 -0.2320 -0.5717
19842TIP3    H281018   3.908   1.229  15.283 -0.0923 -1.3419  0.4493
19843TIP3   OH281019   0.722   3.079   3.831 -0.2119  0.6920 -0.9091
19843TIP3    H181020   0.709   3.122   3.746 -0.0650 -0.3920 -1.5002
19843TIP3    H281021   0.671   2.999   3.825  0.9520 -0.1015 -0.5295
19844TIP3   OH281022   1.008   5.146   0.632  0.6451 -0.4793  0.0050
19844TIP3    H181023   1.032   5.137   0.725  2.1132  0.9064 -0.1920
19844TIP3    H281024   1.014   5.057   0.597  1.3212 -0.8386  0.9694
19845TIP3   OH281025   4.248   1.959  12.456 -0.0402 -0.2545  0.0601
19845TIP3    H181026   4.218   2.044  12.486  0.4528  0.4523 -1.3425
19845TIP3    H281027   4.326   1.977  12.404 -0.6997 -1.3826 -1.4171
19846TIP3   OH281028   3.620   2.863   6.473 -0.7163 -0.0106 -0.1099
19846TIP3    H181029   3.573   2.946   6.477  0.6726  0.7647  1.9972
19846TIP3    H281030   3.581   2.809   6.542 -1.2290 -0.9157 -1.0874
19847TIP3   OH281031   6.705   1.568   0.959  0.2950 -1.0754  0.0667
19847TIP3    H181032   6.624   1.617   0.944  1.2362  0.0195 -1.7383
19847TIP3    H281033   6.700   1.494   0.899  1.3167 -0.0994 -1.2838
19848TIP3   OH281034   0.456   3.298  16.423 -0.6228  0.2265  0.0800
19848TIP3    H181035   0.360   3.299  16.434 -0.9025  2.3631 -1.9397
19848TIP3    H281036   0.470   3.327  16.333  1.9510 -0.6827  0.1200
19849TIP3   OH281037   3.555   5.138  14.385 -0.0807 -0.5585  0.0635
19849TIP3    H181038   3.584   5.172  14.470  1.0309  1.9308 -1.1930
19849TIP3    H281039   3.637   5.119  14.339 -0.6410 -0.8073 -0.8405
19850TIP3   OH281040   6.621   3.938   5.261  0.1305  0.0201  0.6790
19850TIP3    H181041   6.618   3.845   5.235 -0.9252  0.7255 -2.1679
19850TIP3    H281042   6.547   3.948   5.320 -1.9251 -0.4008 -1.6289
19851TIP3   OH281043   0.766   1.875  15.951 -0.0404 -0.3219  0.4123
19851TIP3    H181044   0.845   1.850  15.999 -0.9550 -1.9631  1.1672
19851TIP3    H281045   0.796   1.938  15.886  1.7542 -0.3360  1.1675
19852TIP3   OH281046   0.123   0.005  13.521 -0.4637 -0.5694 -0.9093
19852TIP3    H181047   0.197  -0.000  13.460 -0.4440 -1.3717 -0.8290
19852TIP3    H281048   0.149   0.072  13.584  1.0489 -2.1393  0.2171
19853TIP3   OH281049   0.971   1.490  15.813 -0.0234  0.2448 -0.2197
19853TIP3    H181050   0.929   1.565  15.770 -0.8921 -0.6588 -1.0098
19853TIP3    H281051   1.015   1.527  15.890 -0.4535  1.5524 -0.5868
19854TIP3   OH281052   4.252   3.243   2.768  0.6197 -0.1848 -0.4294
19854TIP3    H181053   4.326   3.222   2.710  0.7349  1.3944 -0.8997
19854TIP3    H281054   4.176   3.202   2.725  0.6053  1.4332 -2.0624
19855TIP3   OH281055   4.280   6.818   4.354  0.7652  0.1616 -0.1023
19855TIP3    H181056   4.300   6.789   4.265  0.0357  1.5226 -0.7347
19855TIP3    H281057   4.352   6.877   4.376  1.3124 -0.7049  0.5009
19856TIP3   OH281058   4.759   4.369   5.077  0.0610 -0.8418 -0.3410
19856TIP3    H181059   4.666   4.353   5.096 -0.7735  2.1987 -1.2852
19856TIP3    H281060   4.779   4.312   5.003  0.2496 -4.5638  2.2417
19857TIP3   OH281061   1.980   0.596  17.170  0.4108  0.2357  0.4467
19857TIP3    H181062   1.930   0.577  17.090  0.7392  0.5283  0.1638
19857TIP3    H281063   2.000   0.689  17.163  1.8576 -0.0706  0.0414
19858TIP3   OH281064   5.153   4.794   5.085  0.1383  0.1013  0.0984
19858TIP3    H181065   5.059   4.804   5.073  0.3095  0.3384 -1.1984
19858TIP3    H281066   5.182   4.880   5.115  0.1809  0.6211 -1.3290
19859TIP3   OH281067   1.853   3.214  10.882 -0.0925 -0.1772  0.0345
19859TIP3    H181068   1.888   3.302  10.865  1.5557 -0.6762  0.6164
19859TIP3    H281069   1.931   3.160  10.898 -1.1389 -1.4425  1.1009
19860TIP3   OH281070   6.539   0.945   6.096  0.1389 -0.3125 -0.1283
19860TIP3    H181071   6.626   0.965   6.062  0.1249  0.2537  0.1592
19860TIP3    H281072   6.516   1.021   6.151 -0.8625 -0.0687 -0.8404
19861TIP3   OH281073   6.414   1.523  16.864 -0.3009  0.3282 -0.1016
19861TIP3    H181074   6.335   1.470  16.875 -0.1125  0.2046  0.6985
19861TIP3    H281075   6.440   1.509  16.773  0.9166 -2.6070  0.5830
19862TIP3   OH281076   2.851   4.871  12.328  0.1451 -0.6954 -0.0690
19862TIP3    H181077   2.898   4.894  12.247 -1.4665  0.6188 -0.6823
19862TIP3    H281078   2.851   4.952  12.379  0.3794 -1.2765  0.8770
19863TIP3   OH281079   6.046   5.188  15.678  0.0479  0.2857 -0.4727
19863TIP3    H181080   6.067   5.228  15.762  1.7115 -0.1850 -0.6392
19863TIP3    H281081   6.097   5.238  15.614  1.7419 -1.6704 -0.7569
19864TIP3   OH281082   1.543   3.499  15.210  1.3414 -0.3452  0.7018
19864TIP3    H181083   1.571   3.433  15.273  1.7975 -0.8229  0.0043
19864TIP3    H281084   1.458   3.468  15.179  1.4977 -0.5385  0.4677
19865TIP3   OH281085   4.594   6.556  14.103  0.5595 -0.3841  0.2994
19865TIP3    H181086   4.508   6.516  14.087 -0.0596  0.3871  1.5436
19865TIP3    H281087   4.583   6.647  14.078  0.5137  0.0931  1.9333
19866TIP3   OH281088   4.679   3.264  12.006 -0.4657 -0.1964  0.5145
19866TIP3    H181089   4.665   3.193  12.069 -0.3566  0.6252  1.4958
19866TIP3    H281090   4.665   3.344  12.057 -0.0323  0.4972 -0.4304
19867TIP3   OH281091   3.266   4.170  14.854  0.4107  0.3568 -0.3867
19867TIP3    H181092   3.189   4.192  14.801  0.3714  1.9907  0.2905
19867TIP3    H281093   3.341   4.194  14.800  0.4234 -0.0501 -0.5530
19868TIP3   OH281094   6.341   6.438  17.194 -0.0620 -0.3235  0.5067
19868TIP3    H181095   6.402   6.444  17.120 -0.9815 -0.8552 -0.3226
19868TIP3    H281096   6.376   6.498  17.259 -0.8810  2.6129 -1.5534
19869TIP3   OH281097   1.206   2.651   5.751  0.1917  0.1152  0.2324
19869TIP3    H181098   1.156   2.715   5.700  0.2504  0.0488  0.0908
19869TIP3    H281099   1.146   2.622   5.819 -0.0870 -0.2343 -0.1579
19870TIP3   OH281100   0.341   5.920  14.653 -0.3817  0.5059  0.4485
19870TIP3    H181101   0.395   5.859  14.702 -0.2266 -2.1457 -2.6717
19870TIP3    H281102   0.403   5.975  14.606 -0.2976 -0.9403 -1.2541
19871TIP3   OH281103   4.169   6.543  11.481 -0.3566 -0.0392 -0.0758
19871TIP3    H181104   4.228   6.468  11.484  0.8093  0.8615  0.2793
19871TIP3    H281105   4.088   6.510  11.520  0.2376 -1.0221  0.3935
19872TIP3   OH281106   6.281   4.211   3.671  0.3842 -0.1709  0.0761
19872TIP3    H181107   6.291   4.180   3.581  0.7132 -0.7410  0.3112
19872TIP3    H281108   6.306   4.137   3.726 -0.4797 -0.0519  0.6490
19873TIP3   OH281109   3.060   1.319  15.315 -0.0847 -0.5969 -0.5804
19873TIP3    H181110   3.086   1.227  15.317  0.9039 -0.3281 -0.3789
19873TIP3    H281111   2.968   1.319  15.343  0.8716 -1.2056  3.0461
19874TIP3   OH281112   2.761   4.232  16.072 -0.4741  0.2411 -0.7258
19874TIP3    H181113   2.712   4.214  16.152 -2.3936  3.2017 -1.0773
19874TIP3    H281114   2.851   4.245  16.100 -0.2922 -2.6881  0.3290
19875TIP3   OH281115   0.602   3.139  11.495  0.3580  0.1094  0.2688
19875TIP3    H181116   0.532   3.194  11.459 -2.0067  0.2898  4.4578
19875TIP3    H281117   0.591   3.054  11.453 -2.4268  0.1674  0.6992
19876TIP3   OH281118   6.639   5.053   5.086  0.0877 -0.2935 -0.2544
19876TIP3    H181119   6.692   4.977   5.063  0.4347 -0.8608  2.1741
19876TIP3    H281120   6.581   5.023   5.156 -1.1922  1.1777 -0.6004
19877TIP3   OH281121   0.420   0.860   4.413 -0.1358  0.1652 -0.0224
19877TIP3    H181122   0.334   0.879   4.449 -0.2556  0.0397 -0.2441
19877TIP3    H281123   0.437   0.769   4.438  0.8551  0.8172  1.8900
19878TIP3   OH281124   1.216   3.484  16.825  0.0439 -0.3212 -0.1457
19878TIP3    H181125   1.166   3.446  16.897  0.7638 -3.5439 -1.1589
19878TIP3    H281126   1.162   3.556  16.793 -1.0389  0.1559  2.5231
19879TIP3   OH281127   3.012   3.993  16.152 -0.4864  1.1526 -0.0632
19879TIP3    H181128   3.031   3.952  16.236  1.5405  0.8140 -0.6342
19879TIP3    H281129   3.010   4.087  16.171 -0.6125  1.0473  0.4595
19880TIP3   OH281130   3.310   0.052   1.389  0.4733  0.4940 -0.0635
19880TIP3    H181131   3.389   0.049   1.442 -0.5579  1.0892  1.5857
19880TIP3    H281132   3.342   0.056   1.299  2.2762 -1.6155  0.3885
19881TIP3   OH281133   1.436   0.440  11.650 -0.0585  0.1987 -0.5947
19881TIP3    H181134   1.489   0.518  11.667  0.3855 -0.0810 -0.6844
19881TIP3    H281135   1.468   0.407  11.566 -0.4408  0.0773 -0.6977
19882TIP3   OH281136   1.711   5.015   2.238 -0.1269  0.6961 -0.2135
19882TIP3    H181137   1.627   5.057   2.219 -0.4091  0.6840  0.9414
19882TIP3    H281138   1.751   5.071   2.305 -0.6261 -0.9522  1.5670
19883TIP3   OH281139   1.151   0.041  17.100  0.1883  0.7624  0.4191
19883TIP3    H181140   1.150   0.115  17.161 -1.7888  0.3925  0.9236
19883TIP3    H281141   1.165   0.080  17.014  1.4760  1.4500  0.9139
19884TIP3   OH281142   0.704   4.476   1.716 -0.0704  0.4166 -0.5265
19884TIP3    H181143   0.763   4.531   1.767  1.7892 -1.1550 -0.8208
19884TIP3    H281144   0.732   4.386   1.737 -1.7408 -0.3659 -1.4467
19885TIP3   OH281145   0.792   5.573   3.344 -0.4287 -0.3399  0.3251
19885TIP3    H181146   0.816   5.502   3.283  0.6121  1.0593 -0.9850
19885TIP3    H281147   0.698   5.582   3.334 -0.4636 -1.0257 -0.0686
19886TIP3   OH281148   6.746   2.187   3.735  0.0364 -0.1179 -0.2295
19886TIP3    H181149   6.659   2.208   3.770  0.4755 -0.2124  0.9458
19886TIP3    H281150   6.729   2.165   3.644 -1.0488  0.8196 -0.2903
19887TIP3   OH281151   1.529   3.267   5.075  0.7542 -0.4268 -0.0873
19887TIP3    H181152   1.497   3.355   5.058  1.2957  0.0559  1.2197
19887TIP3    H281153   1.551   3.267   5.169  0.8960 -1.9042 -0.0901
19888TIP3   OH281154   4.892   1.686   5.140 -0.0409 -0.4903  0.2320
19888TIP3    H181155   4.886   1.650   5.229 -0.9830 -0.8906  0.0220
19888TIP3    H281156   4.871   1.779   5.150 -3.0370 -1.0589  0.0963
19889TIP3   OH281157   2.905   4.872   3.353  0.2981  0.1545  0.2224
19889TIP3    H181158   2.986   4.907   3.316 -0.9681  0.6472 -2.2775
19889TIP3    H281159   2.880   4.801   3.294 -0.6524 -0.5874  1.4619
19890TIP3   OH281160   0.899   3.282  16.836 -0.1855 -0.6218 -0.2200
19890TIP3    H181161   0.968   3.220  16.862  1.9229  1.8427  0.4666
19890TIP3    H281162   0.875   3.326  16.918 -1.6663 -0.5439 -0.6858
19891TIP3   OH281163   1.123   4.259  11.487 -0.6679  0.4221 -0.0059
19891TIP3    H181164   1.160   4.210  11.560  1.2000 -1.3531 -1.9597
19891TIP3    H281165   1.031   4.269  11.508  0.0020  1.1339  3.1221
19892TIP3   OH281166   4.780   4.913   1.267 -0.6625  0.1584 -0.2490
19892TIP3    H181167   4.872   4.924   1.245 -1.0513  3.0586 -0.8715
19892TIP3    H281168   4.779   4.850   1.339  1.5729 -1.5018 -1.5567
19893TIP3   OH281169   2.957   6.693  15.342 -0.5993  0.4910 -0.3497
19893TIP3    H181170   2.900   6.709  15.268 -2.1474 -0.2551  0.6302
19893TIP3    H281171   2.914   6.736  15.416  1.5673  2.3421 -0.0553
19894TIP3   OH281172   5.399   0.589  16.438  0.4459 -0.2752  0.3085
19894TIP3    H181173   5.364   0.657  16.495 -1.1748 -0.1336 -0.7939
19894TIP3    H281174   5.394   0.626  16.350 -1.8147 -2.2509 -0.5126
19895TIP3   OH281175   3.948   0.144   2.464 -0.0237 -0.4823 -0.2317
19895TIP3    H181176   4.005   0.076   2.500 -1.1859 -1.2304  0.2353
19895TIP3    H281177   3.879   0.097   2.419  0.7823  0.4345 -2.5601
19896TIP3   OH281178   0.829   4.176  13.595 -0.0775  0.5284 -0.2306
19896TIP3    H181179   0.783   4.260  13.604 -0.0879  0.4803  0.1960
19896TIP3    H281180   0.888   4.188  13.521 -0.3227  0.8032 -0.3824
19897TIP3   OH281181   0.870   6.319  15.810 -0.2206 -0.7657  0.3898
19897TIP3    H181182   0.899   6.374  15.738  0.1582 -0.2160  0.9528
19897TIP3    H281183   0.836   6.380  15.875 -1.0334 -1.2885  0.4723
19898TIP3   OH281184   0.175   4.388  17.182 -0.3541  0.3830  0.7540
19898TIP3    H181185   0.179   4.474  17.141 -1.2293  0.4323  0.7466
19898TIP3    H281186   0.084   4.379  17.209 -1.0439 -1.7219 -1.8325
19899TIP3   OH281187   5.845   0.790  12.373  0.3607 -0.3647 -0.0648
19899TIP3    H181188   5.848   0.767  12.466  2.1146  1.6712  0.4637
19899TIP3    H281189   5.758   0.763  12.345 -0.1026 -1.3352  2.0747
19900TIP3   OH281190   1.837   6.023  16.601 -0.1708  0.1064 -0.2230
19900TIP3    H181191   1.822   5.938  16.643  0.6108 -0.5965 -1.3435
19900TIP3    H281192   1.831   6.006  16.507  3.1535  0.6009 -0.6328
19901TIP3   OH281193   0.652   6.112  13.565  0.0281  0.1590  0.3858
19901TIP3    H181194   0.730   6.143  13.612  0.9405  0.3298 -1.1644
19901TIP3    H281195   0.625   6.034  13.613  1.8463 -0.5733  0.3177
19902TIP3   OH281196   5.401   4.488   3.216 -0.0489 -0.2482 -0.1169
19902TIP3    H181197   5.473   4.440   3.174  0.3697  0.3940 -0.1510
19902TIP3    H281198   5.418   4.478   3.310 -0.4542 -0.8920 -0.1078
19903TIP3   OH281199   1.538   6.543  12.738  0.1717  0.5625 -0.2745
19903TIP3    H181200   1.599   6.601  12.693 -0.3959  1.2841 -0.1321
19903TIP3    H281201   1.454   6.560  12.697  0.0391 -0.3389 -0.3916
19904TIP3   OH281202   5.160   3.675   1.219  0.4550 -0.3839  0.4225
19904TIP3    H181203   5.124   3.732   1.150 -0.4878  1.4526  2.3045
19904TIP3    H281204   5.255   3.686   1.212  0.3374  0.3425 -0.1332
19905TIP3   OH281205   3.988   2.340  12.783 -0.1509  0.3641  0.0230
19905TIP3    H181206   3.911   2.384  12.747  0.0361  0.1428 -0.6687
19905TIP3    H281207   4.017   2.396  12.855 -0.5062  0.8416 -0.2070
19906TIP3   OH281208   2.435   2.180   5.334  0.5494 -0.3411  0.4775
19906TIP3    H181209   2.479   2.164   5.250  0.4577  0.2615  0.3060
19906TIP3    H281210   2.503   2.220   5.389 -0.0680  1.7284 -0.1845
19907TIP3   OH281211   0.599   1.744  12.579  0.0261  0.1443  0.4400
19907TIP3    H181212   0.657   1.679  12.540 -0.6565 -0.1735 -0.0759
19907TIP3    H281213   0.657   1.804  12.625  0.6511 -0.9388  1.0875
19908TIP3   OH281214   3.559   5.617   2.624 -0.4042 -0.5565 -0.1555
19908TIP3    H181215   3.525   5.631   2.535  2.5449 -0.0819 -1.3206
19908TIP3    H281216   3.503   5.670   2.679 -0.3591  1.8348 -2.2158
19909TIP3   OH281217   3.560   2.924   2.785 -0.3625  0.6190 -0.6691
19909TIP3    H181218   3.507   2.993   2.746  0.2403  1.1708 -0.5262
19909TIP3    H281219   3.626   2.971   2.836  1.1651 -0.0016 -1.9989
19910TIP3   OH281220   3.257   2.166   4.966  0.0191 -0.3356 -0.1822
19910TIP3    H181221   3.302   2.111   5.030  1.3013 -0.5368 -1.2220
19910TIP3    H281222   3.251   2.251   5.008  0.7299 -0.4955  0.2595
19911TIP3   OH281223   4.522   6.740  13.237 -0.6550  0.3928 -0.3680
19911TIP3    H181224   4.446   6.791  13.266 -0.3982  0.2582  0.5876
19911TIP3    H281225   4.484   6.664  13.193 -1.1578 -0.7158  1.8556
19912TIP3   OH281226   4.492   5.619  11.131  0.0478  0.4076  0.0544
19912TIP3    H181227   4.556   5.674  11.086 -0.9282  1.4769 -0.0782
19912TIP3    H281228   4.416   5.677  11.145 -0.5874 -0.5936  0.9088
19913TIP3   OH281229   6.733   5.262   4.184  0.3960 -0.2183  0.2299
19913TIP3    H181230   6.692   5.324   4.125 -1.6979 -0.0543  1.7570
19913TIP3    H281231   6.698   5.177   4.158 -0.5908 -0.1372  1.2250
19914TIP3   OH281232   0.463   3.100   1.988  0.5526  0.3681  0.3845
19914TIP3    H181233   0.524   3.082   2.060 -0.2711 -1.9716  0.5641
19914TIP3    H281234   0.518   3.136   1.919  2.1664 -1.4784  0.6188
19915TIP3   OH281235   2.730   3.149  11.630 -0.9567 -0.3651 -0.2372
19915TIP3    H181236   2.641   3.180  11.645 -0.8898  0.0009 -0.5788
19915TIP3    H281237   2.761   3.122  11.717 -2.2403 -2.8231 -0.4597
19916TIP3   OH281238   5.953   6.245  15.290  0.1353  0.0138  0.0958
19916TIP3    H181239   5.973   6.186  15.363  2.1093  0.4723 -0.0031
19916TIP3    H281240   5.974   6.195  15.212 -5.5515 -1.8940 -0.6099
19917TIP3   OH281241   6.520   0.883   0.267  0.2870 -0.4082  0.1563
19917TIP3    H181242   6.461   0.944   0.222 -0.3317 -1.9858 -1.2441
19917TIP3    H281243   6.595   0.874   0.208  0.3626 -1.0068  0.3372
19918TIP3   OH281244   2.851   0.920  13.247 -0.4840  0.6396  0.1140
19918TIP3    H181245   2.898   0.989  13.199 -1.4596  1.2655  0.0225
19918TIP3    H281246   2.773   0.964  13.279 -1.1795 -0.4686 -0.0457
19919TIP3   OH281247   6.558   3.971   0.745  0.4519 -0.6854 -0.7162
19919TIP3    H181248   6.555   3.910   0.819 -0.2146 -1.4629 -1.3780
19919TIP3    H281249   6.532   3.919   0.669 -0.9940  0.6197 -1.1633
19920TIP3   OH281250   5.161   5.320  12.933  0.1516 -0.6861  0.6472
19920TIP3    H181251   5.176   5.359  12.847  0.5044 -1.6749  0.2531
19920TIP3    H281252   5.230   5.357  12.989  0.0469 -0.2047  0.4661
19921TIP3   OH281253   4.999   0.447   1.518 -0.2658 -0.1928 -0.0613
19921TIP3    H181254   5.028   0.405   1.600 -0.0861 -0.8570 -0.4523
19921TIP3    H281255   5.005   0.540   1.535 -0.1692 -0.3253  0.6667
19922TIP3   OH281256   6.205   5.016  11.117  0.0805  0.0102 -0.2979
19922TIP3    H181257   6.282   5.072  11.128  1.0551 -1.4562  0.6543
19922TIP3    H281258   6.241   4.927  11.108 -1.4897 -0.6771 -0.0704
19923TIP3   OH281259   6.175   0.355   3.402 -0.3487  0.6167 -0.4147
19923TIP3    H181260   6.253   0.376   3.351 -0.5864  1.5481 -0.4131
19923TIP3    H281261   6.204   0.362   3.493 -0.4803  1.1984 -0.4108
19924TIP3   OH281262   3.475   5.262   1.476 -0.6162  0.5158  0.0880
19924TIP3    H181263   3.526   5.342   1.463 -2.1047  1.2512 -1.6311
19924TIP3    H281264   3.392   5.292   1.511 -0.8636 -0.3901  0.3123
19925TIP3   OH281265   5.607   5.549   4.434  0.3660 -0.6700 -0.3319
19925TIP3    H181266   5.590   5.633   4.393 -0.4780 -0.8003 -0.2521
19925TIP3    H281267   5.701   5.550   4.452  0.6573 -0.3851 -1.7408
19926TIP3   OH281268   2.751   2.788  15.506  0.4143 -0.6173  0.4329
19926TIP3    H181269   2.687   2.860  15.507  0.4545 -0.4797  3.8548
19926TIP3    H281270   2.833   2.830  15.480  0.3155  0.5044  1.8074
19927TIP3   OH281271   1.689   2.959   0.494  0.0407 -0.1117  0.3419
19927TIP3    H181272   1.760   3.022   0.498 -0.3101  0.2400  1.7031
19927TIP3    H281273   1.632   2.990   0.423  0.7821  0.0852 -0.1731
19928TIP3   OH281274   5.307   5.363  13.490 -0.0449 -0.4673 -0.5338
19928TIP3    H181275   5.276   5.444  13.449  0.2212  0.5840  1.2340
19928TIP3    H281276   5.401   5.375  13.499 -0.0944 -0.6746  0.3529
19929TIP3   OH281277   6.806   6.660   0.223  0.7305  0.9437  0.3028
19929TIP3    H181278   6.852   6.606   0.160  0.6655  1.5493 -0.2751
19929TIP3    H281279   6.845   6.636   0.308 -0.0842 -0.8096  0.2217
19930TIP3   OH281280   0.551   1.076  11.817 -0.4720  0.2593 -0.1811
19930TIP3    H181281   0.548   1.168  11.842 -0.4580 -0.3264  2.3384
19930TIP3    H281282   0.465   1.059  11.778 -0.9047  1.1103  0.3537
19931TIP3   OH281283   4.702   2.942   1.240 -0.0927 -0.3100  0.0247
19931TIP3    H181284   4.670   3.031   1.258  0.6635 -0.4369  2.2269
19931TIP3    H281285   4.783   2.956   1.191 -0.1036  0.2017  0.1479
19932TIP3   OH281286   5.210   0.065  13.183 -0.1539  0.4400 -0.3897
19932TIP3    H181287   5.209   0.135  13.249  0.4195  1.2399 -1.2019
19932TIP3    H281288   5.194   0.111  13.100  1.8579 -0.1351 -1.1532
19933TIP3   OH281289   6.340   4.545   2.959 -0.6450 -0.0670  0.5616
19933TIP3    H181290   6.347   4.640   2.951  0.2770 -0.1763 -0.1654
19933TIP3    H281291   6.429   4.516   2.977 -0.6234 -0.9157 -0.7707
19934TIP3   OH281292   5.429   2.510   3.580 -0.3750  0.1653  0.1069
19934TIP3    H181293   5.507   2.490   3.632  0.3080  0.4099 -0.7743
19934TIP3    H281294   5.395   2.425   3.553 -0.4359  0.0536  0.5408
19935TIP3   OH281295   1.143   3.963   1.787 -0.0234 -0.9246  0.0577
19935TIP3    H181296   1.108   3.883   1.748 -1.4948 -0.3869  0.2305
19935TIP3    H281297   1.069   4.001   1.834  1.0369 -0.2085  1.2051
19936TIP3   OH281298   2.962   6.485   4.993 -0.5327  0.0802 -0.2794
19936TIP3    H181299   2.929   6.395   5.000 -0.4785  0.1198  0.5504
19936TIP3    H281300   3.056   6.475   4.982 -0.5376  0.0334 -0.2801
19937TIP3   OH281301   1.753   4.221   2.753  0.4219  0.3065  0.2862
19937TIP3    H181302   1.672   4.233   2.804  0.4928  2.0390  0.0486
19937TIP3    H281303   1.723   4.206   2.664  0.3454 -0.5387  0.4464
19938TIP3   OH281304   5.259   2.645   4.778 -0.0671 -0.2500 -0.2270
19938TIP3    H181305   5.265   2.688   4.692  0.0876 -0.1706 -0.1759
19938TIP3    H281306   5.306   2.704   4.837  0.9720 -0.9702 -0.3263
19939TIP3   OH281307   5.866   4.473   4.791 -0.4958  0.5174 -0.4260
19939TIP3    H181308   5.894   4.401   4.848 -0.6688  1.7762  1.3505
19939TIP3    H281309   5.947   4.501   4.747 -0.0278  0.4901  0.3833
19940TIP3   OH281310   2.399   0.364   2.536 -0.1360  0.3805 -0.0045
19940TIP3    H181311   2.332   0.360   2.469  1.4054 -0.4714 -1.5794
19940TIP3    H281312   2.434   0.453   2.531 -1.9372  1.2585  1.7176
19941TIP3   OH281313   0.386   3.105  15.859 -0.7372  0.3530 -0.3509
19941TIP3    H181314   0.345   3.189  15.838 -0.1353  0.8562  0.4592
19941TIP3    H281315   0.395   3.105  15.954  0.0378 -0.2732 -0.4084
19942TIP3   OH281316   5.102   5.445   6.498 -0.2393  0.0814 -0.6226
19942TIP3    H181317   5.058   5.361   6.512 -2.1064  1.0273 -0.4968
19942TIP3    H281318   5.178   5.442   6.556 -1.8477 -0.4054  1.5733
19943TIP3   OH281319   6.583   2.161   0.670  0.1521 -0.3125  0.6544
19943TIP3    H181320   6.489   2.159   0.649 -0.1209 -0.3022  1.8168
19943TIP3    H281321   6.597   2.250   0.704  0.3191 -0.6814  1.5861
19944TIP3   OH281322   6.456   3.707  15.936  0.2201 -0.1273 -0.0459
19944TIP3    H181323   6.397   3.758  15.880 -0.1514  0.9390  1.2732
19944TIP3    H281324   6.537   3.702  15.885 -0.3162  0.2367 -0.9691
19945TIP3   OH281325   3.635   4.651  17.241 -0.0849  0.1220 -0.0554
19945TIP3    H181326   3.549   4.654  17.199 -0.6463  1.0054  1.1107
19945TIP3    H281327   3.616   4.641  17.335  1.0574  0.9420  0.2857
19946TIP3   OH281328   1.758   4.514  14.144 -0.0670  0.3990 -0.4458
19946TIP3    H181329   1.678   4.538  14.098 -0.1575  0.6209 -0.1690
19946TIP3    H281330   1.809   4.595  14.148  0.6777  0.0090 -1.6335
19947TIP3   OH281331   5.244   4.418  13.954 -0.2554  0.3366  0.3068
19947TIP3    H181332   5.232   4.337  14.004 -0.3676  1.6747  2.5957
19947TIP3    H281333   5.177   4.415  13.886  0.6509 -2.0924 -0.5654
19948TIP3   OH281334   0.285   4.254   2.925  0.1518 -0.3022 -0.5713
19948TIP3    H181335   0.265   4.161   2.920 -1.0220 -0.2586  1.8383
19948TIP3    H281336   0.355   4.261   2.990  0.6844  0.4563 -1.2056
19949TIP3   OH281337   0.286   6.126  14.262 -0.2044 -0.1805 -0.1277
19949TIP3    H181338   0.359   6.066  14.279 -0.1056  0.1000  0.4472
19949TIP3    H281339   0.214   6.069  14.234  0.0452 -0.5185 -0.0843
19950TIP3   OH281340   5.048   0.915  13.877  0.0874  0.1324 -0.8519
19950TIP3    H181341   5.083   0.832  13.911  0.3502  0.9171  0.8717
19950TIP3    H281342   4.957   0.916  13.905  0.3386  0.8410 -0.0092
19951TIP3   OH281343   5.407   4.512   2.533 -0.2188  0.1489  0.2100
19951TIP3    H181344   5.449   4.514   2.447  1.5259 -0.9896  0.9646
19951TIP3    H281345   5.326   4.462   2.519  0.3399 -0.5407 -0.6603
19952TIP3   OH281346   2.681   5.045   4.092  0.0785  0.2125 -0.8629
19952TIP3    H181347   2.670   5.033   3.997  0.3174 -0.0209 -0.8616
19952TIP3    H281348   2.702   5.138   4.102 -2.2174  0.7913 -0.8350
19953TIP3   OH281349   5.702   6.594  13.893  0.1370  0.0405 -0.4977
19953TIP3    H181350   5.714   6.650  13.970 -0.0882 -1.7401  0.8891
19953TIP3    H281351   5.786   6.598  13.847  1.2344 -0.9761  1.3234
19954TIP3   OH281352   1.042   1.039   4.528  0.3982 -0.4819  0.9479
19954TIP3    H181353   0.951   1.063   4.512  0.8463  0.7673  0.1838
19954TIP3    H281354   1.089   1.122   4.538  1.9906 -0.9436 -1.7293
19955TIP3   OH281355   2.699   5.560   6.856 -0.3554  0.3668 -0.0411
19955TIP3    H181356   2.749   5.494   6.903  0.0438  0.0518 -0.8828
19955TIP3    H281357   2.610   5.524   6.851  0.2418 -0.9816 -2.0459
19956TIP3   OH281358   0.324   1.226   5.195 -0.1136  0.0605  0.8585
19956TIP3    H181359   0.354   1.143   5.158 -3.0259 -0.2296 -1.1143
19956TIP3    H281360   0.391   1.290   5.168  0.5200 -1.0940 -0.4054
19957TIP3   OH281361   4.364   2.449   2.724 -0.0428  0.4363  0.8059
19957TIP3    H181362   4.432   2.446   2.657  0.3451  1.0028  1.1718
19957TIP3    H281363   4.401   2.502   2.794 -1.6406  2.5787  0.1426
19958TIP3   OH281364   4.766   4.493  11.367  0.3732  0.3770 -0.3850
19958TIP3    H181365   4.758   4.585  11.343  1.4778  0.6553  0.2546
19958TIP3    H281366   4.781   4.447  11.285 -0.0997  0.7737 -0.6958
19959TIP3   OH281367   5.513   6.624  13.645  0.0376 -0.0913  0.2192
19959TIP3    H181368   5.551   6.622  13.733 -0.0428 -1.1976  0.2444
19959TIP3    H281369   5.588   6.623  13.586  0.0712 -0.5217  0.2712
19960TIP3   OH281370   6.573   5.469   4.732 -0.0256 -0.9684  0.1555
19960TIP3    H181371   6.612   5.399   4.784 -0.8564 -1.1961  0.4920
19960TIP3    H281372   6.481   5.444   4.723  0.1157 -0.9789 -1.5045
19961TIP3   OH281373   0.041   2.503  14.339 -0.2452  0.4325  0.3926
19961TIP3    H181374   0.037   2.424  14.392  1.7318 -0.4440 -0.7066
19961TIP3    H281375   0.100   2.482  14.267 -1.4978  2.1529 -1.2332
19962TIP3   OH281376   2.573   4.780   5.805  0.2980  0.4052 -0.1251
19962TIP3    H181377   2.571   4.826   5.721 -0.5607  0.4240 -0.0990
19962TIP3    H281378   2.609   4.845   5.866  0.3646  0.5887 -0.3540
19963TIP3   OH281379   6.542   3.217  13.305 -0.1895 -0.0909 -0.0097
19963TIP3    H181380   6.508   3.259  13.384 -0.7465 -0.2294 -0.1739
19963TIP3    H281381   6.548   3.288  13.241 -0.6856 -0.1687 -0.1448
19964TIP3   OH281382   5.467   0.582  16.021 -0.2979 -0.1067 -0.2138
19964TIP3    H181383   5.548   0.632  16.024  0.6551 -1.5586 -0.3134
19964TIP3    H281384   5.440   0.587  15.930  1.4856 -2.2213 -0.9640
19965TIP3   OH281385   6.203   1.338   4.167 -0.6301 -0.3145  0.0440
19965TIP3    H181386   6.215   1.285   4.246  1.2507 -0.0672 -0.0426
19965TIP3    H281387   6.181   1.425   4.200 -0.0980 -0.2718  0.2848
19966TIP3   OH281388   6.209   0.912   2.701  0.0507 -0.0920 -0.2028
19966TIP3    H181389   6.289   0.964   2.702  0.0433 -0.0833  0.2597
19966TIP3    H281390   6.227   0.839   2.760 -0.5838  0.3829  0.6022
19967TIP3   OH281391   3.697   4.552  11.660 -0.0287  0.4330  0.2876
19967TIP3    H181392   3.674   4.639  11.691 -1.6885 -0.5255  1.9862
19967TIP3    H281393   3.737   4.509  11.736  0.2309 -0.4578 -0.3316
19968TIP3   OH281394   2.989   0.160  11.623  0.2509 -0.2634  0.3346
19968TIP3    H181395   2.954   0.091  11.566 -0.4665  0.3662  0.0000
19968TIP3    H281396   2.922   0.228  11.623 -0.1211 -0.5735  2.5586
19969TIP3   OH281397   4.747   2.809   1.880  0.6788  0.1057  0.1900
19969TIP3    H181398   4.661   2.801   1.839  0.0676 -1.2055  1.5903
19969TIP3    H281399   4.727   2.837   1.970  1.9000  2.0487 -0.0763
19970TIP3   OH281400   4.951   6.551   0.055 -0.3551 -0.5793  0.5575
19970TIP3    H181401   5.046   6.560   0.066 -0.5492  0.4848  1.4900
19970TIP3    H281402   4.938   6.458   0.038  0.8872 -0.6777  0.0256
19971TIP3   OH281403   0.651   4.420  15.407  0.1813 -0.5623 -0.8729
19971TIP3    H181404   0.563   4.430  15.372 -0.7391 -2.0509  0.8637
19971TIP3    H281405   0.696   4.365  15.342 -0.7239 -1.2374 -0.9491
19972TIP3   OH281406   5.147   6.482  12.584 -0.0068 -0.0415  0.0275
19972TIP3    H181407   5.086   6.409  12.570  0.9009 -0.8778  0.3601
19972TIP3    H281408   5.103   6.538  12.647 -1.3895  0.5140 -1.3575
19973TIP3   OH281409   2.433   3.801  14.230  0.3183 -0.1050 -0.2820
19973TIP3    H181410   2.357   3.855  14.253  0.4258 -1.1890  3.3386
19973TIP3    H281411   2.508   3.854  14.255  0.5577 -0.4978 -0.1596
19974TIP3   OH281412   0.519   3.432   3.911 -0.3562 -0.2710  0.1069
19974TIP3    H181413   0.435   3.468   3.938 -0.8222 -1.8884  0.9366
19974TIP3    H281414   0.502   3.394   3.825 -0.5257 -0.7671  0.3589
19975TIP3   OH281415   0.500   2.420  16.159 -1.1351  0.2096 -0.1566
19975TIP3    H181416   0.473   2.508  16.186 -1.3165  0.0395  0.2179
19975TIP3    H281417   0.557   2.435  16.084 -1.4330  0.6291 -0.3032
19976TIP3   OH281418   3.981   4.730   6.131 -0.2163 -0.2323 -0.8369
19976TIP3    H181419   3.911   4.665   6.120 -0.2040 -0.5463  0.6893
19976TIP3    H281420   3.998   4.731   6.225 -0.7333  2.5150 -0.6821
19977TIP3   OH281421   2.309   6.784   6.019  0.0511 -0.7335  0.0580
19977TIP3    H181422   2.217   6.774   6.044 -0.5343 -0.0522 -1.7222
19977TIP3    H281423   2.357   6.781   6.103 -1.6596 -0.1251  1.1071
19978TIP3   OH281424   2.206   4.918  14.167 -0.2295  0.1923 -0.7009
19978TIP3    H181425   2.285   4.877  14.202 -1.6815 -2.4460 -0.2263
19978TIP3    H281426   2.226   4.935  14.075  1.3224  0.8584 -0.2724
19979TIP3   OH281427   4.986   4.599   4.690 -1.0823 -0.1814 -0.8888
19979TIP3    H181428   4.931   4.532   4.650 -1.0466 -1.3557  0.9024
19979TIP3    H281429   4.966   4.679   4.642 -1.6664 -1.3216 -2.6054
19980TIP3   OH281430   2.660   6.664   0.490  0.1895 -0.0713  0.2064
19980TIP3    H181431   2.607   6.601   0.539 -0.9350  0.6245 -0.0813
19980TIP3    H281432   2.655   6.634   0.399  1.8141 -1.0409  0.4053
19981TIP3   OH281433   2.990   5.825   3.683 -0.8309 -0.1816 -0.3155
19981TIP3    H181434   2.911   5.770   3.678 -0.0989 -1.1787 -1.5920
19981TIP3    H281435   3.054   5.770   3.730  0.4883 -1.2744 -3.1581
19982TIP3   OH281436   6.421   3.710   2.774 -0.1549 -0.1143 -0.2607
19982TIP3    H181437   6.346   3.690   2.829  0.5178  1.1303  1.2073
19982TIP3    H281438   6.446   3.627   2.734 -1.3785 -0.8228  0.4160
19983TIP3   OH281439   5.386   1.899   5.090  0.2002 -0.0198 -0.1224
19983TIP3    H181440   5.375   1.806   5.109  0.5242  0.1579  0.9670
19983TIP3    H281441   5.301   1.926   5.055 -0.4114 -0.3650  1.0643
19984TIP3   OH281442   0.823   6.470  14.107  0.0246  0.2098 -0.1504
19984TIP3    H181443   0.874   6.407  14.159 -0.7918  0.0120  0.4275
19984TIP3    H281444   0.889   6.518  14.057  0.8070  0.1417  0.7801
19985TIP3   OH281445   1.193   6.685  13.436 -0.0769 -0.3039  0.6656
19985TIP3    H181446   1.104   6.711  13.411  0.1311 -0.4231 -0.2239
19985TIP3    H281447   1.188   6.590  13.442 -0.4349 -0.2004  2.3326
19986TIP3   OH281448   6.426   5.671   0.560  0.2235 -0.3725 -0.2975
19986TIP3    H181449   6.416   5.576   0.557 -0.1156 -0.3758  0.5472
19986TIP3    H281450   6.350   5.705   0.514 -1.5873 -0.4749  2.3754
19987TIP3   OH281451   3.386   4.213  11.752  0.6529  0.1162  0.6464
19987TIP3    H181452   3.428   4.265  11.684 -0.1074  0.2853  0.2958
19987TIP3    H281453   3.373   4.274  11.824  1.3087 -0.0215  0.8846
19988TIP3   OH281454   6.303   1.369   4.672 -0.1519  0.2358 -0.2373
19988TIP3    H181455   6.319   1.334   4.585 -1.4459 -0.3003 -0.2823
19988TIP3    H281456   6.218   1.413   4.665  1.1298  2.9036 -0.0194
19989TIP3   OH281457   5.089   5.125   2.828  0.1029  0.4226 -0.0216
19989TIP3    H181458   5.011   5.090   2.786  0.0574  0.7852 -0.2419
19989TIP3    H281459   5.159   5.065   2.803 -0.4822 -1.2521  2.0467
19990TIP3   OH281460   1.361   2.085   4.680 -0.1546 -0.1190 -0.2528
19990TIP3    H181461   1.376   2.054   4.591  0.5687 -0.2219 -0.1033
19990TIP3    H281462   1.436   2.141   4.699 -1.4924  1.9009 -0.5756
19991TIP3   OH281463   4.204   2.483  12.623 -0.0650  0.2611  0.0137
19991TIP3    H181464   4.231   2.482  12.715 -0.8633  1.0235  0.2691
19991TIP3    H281465   4.118   2.524  12.624  0.3701  1.2676 -1.1936
19992TIP3   OH281466   4.960   2.930   2.921 -0.4756  0.1765  0.3468
19992TIP3    H181467   5.052   2.924   2.947 -0.1022  0.3799 -0.8818
19992TIP3    H281468   4.944   2.851   2.871 -0.7128  0.5714 -0.2110
19993TIP3   OH281469   0.964   2.498  15.000 -0.0834  0.1210  0.5895
19993TIP3    H181470   0.904   2.433  15.037 -0.3563 -0.0648 -0.1694
19993TIP3    H281471   0.908   2.556  14.948  0.0533  1.3793  1.7845
19994TIP3   OH281472   4.149   6.721   2.450  0.0830  0.3247 -0.3290
19994TIP3    H181473   4.229   6.760   2.416  1.4433 -2.0486 -0.1075
19994TIP3    H281474   4.104   6.687   2.373 -0.1128  0.6029 -0.3391
19995TIP3   OH281475   5.789   2.446   5.795  0.2363 -0.1014  0.6426
19995TIP3    H181476   5.705   2.406   5.818  0.9259 -3.2872 -1.6425
19995TIP3    H281477   5.769   2.498   5.717 -0.0038  1.2017  1.5440
19996TIP3   OH281478   3.259   2.348  16.443 -0.0061 -0.1878  0.2266
19996TIP3    H181479   3.267   2.309  16.356  0.0024  0.5251 -0.0983
19996TIP3    H281480   3.176   2.315  16.477  0.0733 -0.6029  0.0174
19997TIP3   OH281481   3.477   4.848   4.651  0.1146  0.7978  1.0188
19997TIP3    H181482   3.387   4.819   4.638  0.2654  1.0318 -0.7181
19997TIP3    H281483   3.518   4.837   4.566  1.2508  2.3842  1.3307
19998TIP3   OH281484   2.586   0.054   4.948  0.2477  0.6823 -0.0864
19998TIP3    H181485   2.622   0.142   4.940  1.4536  0.3938  1.5993
19998TIP3    H281486   2.663  -0.003   4.956 -0.5352 -0.3137  0.6133
19999TIP3   OH281487   0.665   1.257  16.743 -0.0952  0.2824 -0.2780
19999TIP3    H181488   0.619   1.224  16.820 -0.4929  0.1409 -0.5692
19999TIP3    H281489   0.721   1.327  16.775  2.3206 -1.9332  0.7473
20000TIP3   OH281490   1.227   4.485  17.080  0.2480 -0.0996  0.1938
20000TIP3    H181491   1.306   4.431  17.075  0.3314 -0.1275  1.4338
20000TIP3    H281492   1.165   4.432  17.132 -0.6280 -0.1159 -0.8316
20001TIP3   OH281493   6.176   2.674   2.052 -0.2797  0.1196  0.5713
20001TIP3    H181494   6.225   2.629   1.983 -1.8921  1.2456 -1.4338
20001TIP3    H281495   6.200   2.766   2.042 -1.6347  0.4877  0.5204
20002TIP3   OH281496   5.528   0.162  15.059  0.4181 -0.0998  0.0582
20002TIP3    H181497   5.544   0.075  15.096  1.1919 -0.2569 -0.6134
20002TIP3    H281498   5.583   0.165  14.981 -0.2147  0.6968 -0.3707
20003TIP3   OH281499   4.473   2.517  15.763 -0.3814 -0.6307 -0.2754
20003TIP3    H181500   4.517   2.436  15.790 -0.9802 -0.6130  0.8027
20003TIP3    H281501   4.402   2.486  15.706 -1.0583 -0.9491  0.7097
20004TIP3   OH281502   1.252   6.486  14.432  0.5512  0.2716  1.0207
20004TIP3    H181503   1.283   6.522  14.349 -1.5645  0.7057  0.3572
20004TIP3    H281504   1.170   6.533  14.450 -0.5883 -1.8650  1.8296
20005TIP3   OH281505   0.742   2.620  11.529 -0.9266  0.5595  0.6960
20005TIP3    H181506   0.797   2.601  11.605 -0.3504 -1.9038 -0.2604
20005TIP3    H281507   0.801   2.663  11.467 -0.8723  0.6963  0.8416
20006TIP3   OH281508   3.830   3.518  12.681 -0.2029 -0.6491 -0.4450
20006TIP3    H181509   3.829   3.459  12.756  0.1470  0.5277  0.5078
20006TIP3    H281510   3.906   3.575  12.695  0.4081 -0.9729 -2.1587
20007TIP3   OH281511   4.835   1.445  14.599  0.1677 -0.2574  0.0348
20007TIP3    H181512   4.779   1.521  14.580 -4.2368 -2.2439  3.1827
20007TIP3    H281513   4.796   1.374  14.548 -1.6384 -2.0893  3.5882
20008TIP3   OH281514   3.742   0.163  12.312 -0.1849  0.4604  0.3284
20008TIP3    H181515   3.817   0.206  12.354 -1.0428  0.2092  2.2186
20008TIP3    H281516   3.762   0.167  12.219  2.7722 -0.6612  0.7958
20009TIP3   OH281517   5.746   0.121   2.727 -0.3248 -0.3393 -0.7135
20009TIP3    H181518   5.818   0.182   2.743 -0.7767  0.1636 -0.5695
20009TIP3    H281519   5.789   0.036   2.717  0.2000 -0.2494  0.5883
20010TIP3   OH281520   4.727   1.468  15.346 -0.0261 -0.1703 -0.0214
20010TIP3    H181521   4.695   1.392  15.395 -1.1353 -0.7665 -1.5650
20010TIP3    H281522   4.822   1.465  15.357  0.0988 -2.5327 -0.9807
20011TIP3   OH281523   6.300   1.072  11.638  0.2203  0.3537 -0.1204
20011TIP3    H181524   6.320   0.985  11.673 -2.4095  0.0274  0.8002
20011TIP3    H281525   6.286   1.126  11.715 -0.2635  1.0535 -0.6882
20012TIP3   OH281526   4.695   0.424   4.437  0.7300 -0.0259 -0.8975
20012TIP3    H181527   4.689   0.329   4.435  1.0507 -0.0462 -0.9035
20012TIP3    H281528   4.785   0.442   4.462  0.4690  0.2737 -0.1377
20013TIP3   OH281529   1.835   2.162   0.887 -0.3517 -0.5707  0.3735
20013TIP3    H181530   1.917   2.123   0.918 -0.7141 -1.0417  0.7555
20013TIP3    H281531   1.800   2.207   0.964 -0.1668  0.1284  0.0559
20014TIP3   OH281532   1.342   6.670   3.291  0.5691 -0.6375  0.0920
20014TIP3    H181533   1.282   6.729   3.245 -1.2346 -1.3452  1.4367
20014TIP3    H281534   1.374   6.611   3.222  1.5215  1.1430 -1.0620
20015TIP3   OH281535   2.748   0.757  16.899  0.0598 -0.1394  0.1425
20015TIP3    H181536   2.820   0.695  16.885  0.5229  0.0801  1.4726
20015TIP3    H281537   2.757   0.820  16.827  1.3761  0.0393  0.4402
20016TIP3   OH281538   1.426   5.733  14.042  0.1657 -0.2132 -0.1520
20016TIP3    H181539   1.505   5.687  14.014  1.1123  1.5863 -0.5968
20016TIP3    H281540   1.388   5.768  13.961  0.4343  1.2040  0.2946
20017TIP3   OH281541   1.411   3.352  14.433 -0.1710  0.4693 -0.5684
20017TIP3    H181542   1.436   3.274  14.483  0.9456  2.0104  1.4584
20017TIP3    H281543   1.343   3.393  14.487 -1.5066  0.4038 -2.1352
20018TIP3   OH281544   0.922   3.026  14.819  0.2573  0.2555  0.4899
20018TIP3    H181545   0.951   3.116  14.806  1.8532 -0.0120  1.8482
20018TIP3    H281546   0.940   2.983  14.735  2.3295  0.5355  0.7224
20019TIP3   OH281547   0.391   3.876  15.453 -0.3148  0.6335  0.2057
20019TIP3    H181548   0.399   3.814  15.525 -0.8580 -0.0437 -0.3106
20019TIP3    H281549   0.479   3.913  15.443  0.0466 -0.1572  0.4234
20020TIP3   OH281550   4.510   4.462   1.954  0.1624 -0.3152 -0.1518
20020TIP3    H181551   4.542   4.548   1.931 -0.1225 -0.8955 -3.0505
20020TIP3    H281552   4.587   4.415   1.987  0.7994  0.3788 -0.6325
20021TIP3   OH281553   4.646   1.303   5.278  0.2549  0.1962 -0.1322
20021TIP3    H181554   4.689   1.357   5.211 -0.0489 -0.1577 -0.6121
20021TIP3    H281555   4.598   1.237   5.229 -1.3020  0.9026  0.3769
20022TIP3   OH281556   3.561   1.507  12.578  0.2546  0.5911 -0.0950
20022TIP3    H181557   3.551   1.419  12.614  0.9380 -0.4270 -2.2295
20022TIP3    H281558   3.644   1.538  12.614 -0.4806  0.8204  1.4849
20023TIP3   OH281559   3.285   4.023   3.107  0.3031  0.1802  0.1538
20023TIP3    H181560   3.322   3.936   3.121 -1.8220 -0.6672  1.0823
20023TIP3    H281561   3.195   4.007   3.078 -0.0017  2.0763 -0.1403
20024TIP3   OH281562   1.260   5.205  17.309 -0.0284 -0.0381  0.0073
20024TIP3    H181563   1.284   5.149  17.235 -0.4246  0.7007 -0.6939
20024TIP3    H281564   1.176   5.170  17.339 -0.1958  0.0809 -0.3237
20025TIP3   OH281565   1.584   0.285   3.623 -0.6291  0.7048 -0.2496
20025TIP3    H181566   1.516   0.221   3.604  0.2608 -0.2764 -0.1756
20025TIP3    H281567   1.598   0.279   3.717  0.5130 -0.0985 -0.4506
20026TIP3   OH281568   3.282   2.919  16.503 -0.2512  0.3139 -0.1731
20026TIP3    H181569   3.355   2.869  16.540 -1.5428 -2.3221 -0.8938
20026TIP3    H281570   3.280   2.894  16.411 -2.0928  0.2139 -0.1511
20027TIP3   OH281571   4.028   2.774  13.262  0.3946 -0.0143  0.2562
20027TIP3    H181572   4.048   2.751  13.352  0.0088  0.0120  0.3536
20027TIP3    H281573   3.937   2.804  13.265  0.4103  0.0802 -0.1237
20028TIP3   OH281574   3.614   1.595   4.060 -0.0610 -0.3845  0.3821
20028TIP3    H181575   3.607   1.666   3.996  2.8030 -1.4723 -1.3517
20028TIP3    H281576   3.688   1.621   4.116 -0.6629 -0.8288  1.4074
20029TIP3   OH281577   1.265   5.524   3.738  0.0044  0.8444  0.3750
20029TIP3    H181578   1.352   5.547   3.705  0.3095  2.1330  1.9669
20029TIP3    H281579   1.271   5.535   3.833 -1.6387  0.0281  0.6196
20030TIP3   OH281580   4.049   5.257  14.496 -0.2535  0.4583 -0.1164
20030TIP3    H181581   3.975   5.316  14.505 -0.8613 -0.0560 -1.4668
20030TIP3    H281582   4.016   5.172  14.526  0.0171  0.3796 -0.0332
20031TIP3   OH281583   2.482   3.077  12.451 -0.5296  0.2328  0.0042
20031TIP3    H181584   2.541   3.088  12.526  1.2527  0.1234 -1.3119
20031TIP3    H281585   2.402   3.040  12.488  0.7695 -1.0499  1.6803
20032TIP3   OH281586   0.568   4.220   4.928 -0.6459  0.0306  0.9064
20032TIP3    H181587   0.565   4.247   5.020 -1.6360  2.0365  0.3567
20032TIP3    H281588   0.500   4.273   4.886  0.3566 -0.2224 -1.1368
20033TIP3   OH281589   2.621   5.262  14.023  0.0073 -0.8817 -0.2803
20033TIP3    H181590   2.715   5.279  14.026  0.2038 -1.8918  1.8005
20033TIP3    H281591   2.582   5.342  13.989  1.5797 -0.1925 -0.5116
20034TIP3   OH281592   6.455   4.527  11.081 -0.0484 -0.2067  0.2244
20034TIP3    H181593   6.478   4.521  10.988  0.9317  0.5131  0.4079
20034TIP3    H281594   6.538   4.515  11.127 -0.3890  0.2692  0.9804
20035TIP3   OH281595   5.127   2.873   0.553  0.3400 -0.1520  0.5463
20035TIP3    H181596   5.191   2.941   0.530 -0.3043  1.2466  2.6711
20035TIP3    H281597   5.180   2.798   0.578  1.1351  0.5115  0.8890
20036TIP3   OH281598   3.877   0.099  16.666  0.4237  0.0996  0.5782
20036TIP3    H181599   3.943   0.138  16.609 -1.7086  0.9001 -1.5568
20036TIP3    H281600   3.824   0.045  16.607 -0.3718 -1.1362  2.3333
20037TIP3   OH281601   5.017   3.497  15.593  0.4983  0.1514  0.0072
20037TIP3    H181602   5.089   3.560  15.583  0.1774  1.0175  2.5127
20037TIP3    H281603   4.938   3.548  15.576  0.3257  0.0280  0.4240
20038TIP3   OH281604   4.210   4.614  13.951 -0.0393  0.0335 -0.2953
20038TIP3    H181605   4.138   4.673  13.974 -0.5281 -0.6563 -0.0440
20038TIP3    H281606   4.204   4.542  14.014 -1.4170 -1.9195 -2.5080
20039TIP3   OH281607   2.417   1.646  11.371 -0.0627 -0.0538 -0.1548
20039TIP3    H181608   2.504   1.683  11.356  0.0449  0.2522  1.1556
20039TIP3    H281609   2.401   1.659  11.464 -1.9342  0.8103 -0.5513
20040TIP3   OH281610   1.963   4.171  10.963 -0.1624  0.0928  0.0698
20040TIP3    H181611   1.951   4.088  10.916  0.2922  0.2181 -0.2766
20040TIP3    H281612   2.029   4.217  10.912  1.2250 -0.2682  1.4868
20041TIP3   OH281613   1.372   0.514  13.005  0.2722  0.0628  0.2171
20041TIP3    H181614   1.461   0.481  12.989 -0.4592 -0.2812 -4.8896
20041TIP3    H281615   1.315   0.441  12.982 -1.2743  1.6986 -1.5276
20042TIP3   OH281616   6.092   4.139  15.150 -0.3690 -0.5317 -0.2150
20042TIP3    H181617   6.057   4.178  15.070  0.0847 -0.4315 -0.3718
20042TIP3    H281618   6.104   4.046  15.127 -1.2920 -0.7348  0.1027
20043TIP3   OH281619   1.121   0.251   1.909 -0.3966 -0.4476 -0.2927
20043TIP3    H181620   1.192   0.266   1.971 -0.5290 -0.0478 -0.2349
20043TIP3    H281621   1.131   0.159   1.883  0.4724 -0.2422 -0.7088
20044TIP3   OH281622   2.801   0.048  15.163  0.3126  0.4673 -0.1650
20044TIP3    H181623   2.760   0.129  15.195 -4.1793 -1.6838  0.2658
20044TIP3    H281624   2.756   0.030  15.080  1.4557 -1.4453 -0.4210
20045TIP3   OH281625   0.181   0.003   4.264  0.0432 -1.0282 -0.2351
20045TIP3    H181626   0.195   0.077   4.205 -0.0568 -1.9923 -1.5001
20045TIP3    H281627   0.103   0.026   4.314 -0.9686 -0.9865 -1.7855
20046TIP3   OH281628   3.931   1.626  11.604  0.0023  0.3081 -0.0746
20046TIP3    H181629   3.905   1.564  11.672 -0.0998  0.4057 -0.0248
20046TIP3    H281630   3.868   1.698  11.611  0.1847  0.4662 -0.0639
20047TIP3   OH281631   1.987   5.144  14.314 -0.4154 -0.0016  0.6148
20047TIP3    H181632   2.011   5.217  14.371  0.6590 -0.4445  0.7615
20047TIP3    H281633   1.965   5.073  14.375 -0.6078 -0.0659  0.4709
20048TIP3   OH281634   5.924   5.004   2.825  0.0810  0.2927  0.5803
20048TIP3    H181635   5.931   5.098   2.843 -2.7203  0.4984  1.0971
20048TIP3    H281636   5.945   4.995   2.733 -1.2550  1.7340  0.0863
20049TIP3   OH281637   4.415   4.103   5.714  0.2080 -0.6105 -0.2469
20049TIP3    H181638   4.489   4.142   5.668 -0.8642 -0.0331 -1.5759
20049TIP3    H281639   4.366   4.178   5.747  0.8074 -1.0082  1.6752
20050TIP3   OH281640   1.593   0.262   3.900  0.0752  0.0346  0.0708
20050TIP3    H181641   1.601   0.323   3.973  0.7244 -0.6080  0.5579
20050TIP3    H281642   1.566   0.179   3.941  0.5324 -0.3574 -0.3978
20051TIP3   OH281643   4.040   4.415  14.788  0.3329  0.3518  0.4836
20051TIP3    H181644   4.125   4.455  14.770 -0.2423  0.7062 -1.7276
20051TIP3    H281645   3.986   4.487  14.821  0.1983  0.7288 -0.5171
20052TIP3   OH281646   5.922   2.478   5.237 -0.1154 -0.6604 -0.5041
20052TIP3    H181647   5.865   2.544   5.198  0.0707 -0.2218 -0.0532
20052TIP3    H281648   5.862   2.414   5.275 -0.3302  0.1718  0.5969
20053TIP3   OH281649   1.161   4.587   0.234  0.1374  0.3135  0.3661
20053TIP3    H181650   1.254   4.573   0.215  0.3115  1.6399  0.1084
20053TIP3    H281651   1.123   4.609   0.149 -0.1379  1.0689  0.6730
20054TIP3   OH281652   1.844   4.491   4.664  0.6384 -0.2004 -0.1509
20054TIP3    H181653   1.929   4.519   4.698 -0.1505  2.4979 -0.1606
20054TIP3    H281654   1.801   4.573   4.637 -1.7851 -1.5147 -0.5527
20055TIP3   OH281655   4.932   1.450  16.683 -0.2080 -0.0330 -0.3483
20055TIP3    H181656   4.929   1.366  16.636  0.2190 -0.3893  0.2415
20055TIP3    H281657   4.916   1.426  16.775 -0.5054  0.5885 -0.2301
20056TIP3   OH281658   4.917   5.302  16.190  0.3960 -0.3802  0.4520
20056TIP3    H181659   4.988   5.276  16.247 -0.2493 -2.2287  0.4892
20056TIP3    H281660   4.848   5.333  16.249  0.6764  0.1344  0.5065
20057TIP3   OH281661   5.767   6.008  12.901 -0.3359 -0.4278 -0.2640
20057TIP3    H181662   5.803   6.055  12.977 -1.6163  0.7889 -0.3606
20057TIP3    H281663   5.831   6.023  12.831  0.0951 -0.2347  0.1673
20058TIP3   OH281664   4.623   0.751  13.676  0.8298 -0.0994  0.1575
20058TIP3    H181665   4.673   0.673  13.653  2.1384  0.8797 -0.3953
20058TIP3    H281666   4.551   0.718  13.729  1.2216 -1.7091 -0.2612
20059TIP3   OH281667   0.078   1.570  11.580  0.3195 -0.5536 -0.3284
20059TIP3    H181668   0.127   1.644  11.544  2.4862 -2.0730 -0.6534
20059TIP3    H281669   0.002   1.561  11.522  0.1032  1.2551 -0.3820
20060TIP3   OH281670   4.978   1.572   0.494  0.1858  0.3696  0.1495
20060TIP3    H181671   5.002   1.518   0.570  0.9985 -0.1158 -0.4416
20060TIP3    H281672   4.953   1.509   0.427 -1.0247  0.8130  0.1538
20061TIP3   OH281673   5.534   2.055  11.692 -0.2944 -0.2374  0.4673
20061TIP3    H181674   5.505   2.103  11.769 -0.5331  0.8723 -0.2926
20061TIP3    H281675   5.564   2.123  11.631  0.8124 -1.1497 -0.0409
20062TIP3   OH281676   2.769   4.516   6.014  0.0998 -0.7933 -0.5682
20062TIP3    H181677   2.768   4.598   6.062  0.3307 -0.9095 -0.3625
20062TIP3    H281678   2.790   4.450   6.079 -2.2672 -1.3433 -0.2517
20063TIP3   OH281679   4.212   2.614  16.425  0.1431  1.0257  0.1709
20063TIP3    H181680   4.124   2.611  16.462  0.2916  0.9790  0.5266
20063TIP3    H281681   4.241   2.523  16.426  0.2863  1.0717  0.2794
20064TIP3   OH281682   5.996   3.590  15.003  0.1728 -0.3449 -0.3415
20064TIP3    H181683   6.034   3.585  14.915  1.9831 -2.1568  0.4625
20064TIP3    H281684   6.070   3.574  15.062 -1.0945  0.2722  1.5028
20065TIP3   OH281685   3.947   5.755  13.314 -0.0693  0.6653  0.3401
20065TIP3    H181686   3.932   5.727  13.404 -1.2171 -1.5965 -0.4951
20065TIP3    H281687   4.020   5.702  13.284  0.8836  2.0168  0.1442
20066TIP3   OH281688   4.799   4.278  15.748  0.5021  0.4126  0.2242
20066TIP3    H181689   4.835   4.205  15.798  0.3443 -0.9442 -1.5387
20066TIP3    H281690   4.824   4.356  15.798  0.5705 -0.8195  2.2347
20067TIP3   OH281691   6.377   2.459  15.098 -0.0073 -0.0987 -0.5365
20067TIP3    H181692   6.396   2.441  15.006  1.5254 -1.4615 -0.0200
20067TIP3    H281693   6.283   2.477  15.100  0.0540  0.7296 -2.4481
20068TIP3   OH281694   6.421   2.315   3.906  0.3887 -0.2627 -0.3571
20068TIP3    H181695   6.351   2.375   3.932  1.4585  0.5533  0.7517
20068TIP3    H281696   6.430   2.329   3.812  0.3852  1.0983 -0.1813
20069TIP3   OH281697   5.224   2.885   3.026 -0.0808 -0.3612  0.0622
20069TIP3    H181698   5.238   2.790   3.018 -0.7778 -0.4797  0.2470
20069TIP3    H281699   5.307   2.923   2.997  1.1180 -1.0873  2.2589
20070TIP3   OH281700   6.391   1.707   2.016  0.3239  0.0824  0.4691
20070TIP3    H181701   6.340   1.696   2.096  1.6305  0.8189  1.4379
20070TIP3    H281702   6.473   1.746   2.045  1.0540 -0.1645 -1.1742
20071TIP3   OH281703   2.916   0.542  12.538 -1.0588 -0.1712 -0.0442
20071TIP3    H181704   2.840   0.589  12.502 -0.2522  1.1166 -0.1426
20071TIP3    H281705   2.941   0.593  12.615 -0.0614 -0.3460 -0.2371
20072TIP3   OH281706   6.131   3.278   5.812  0.7009  0.0825 -0.5387
20072TIP3    H181707   6.172   3.307   5.731  1.0808 -0.5296 -0.5709
20072TIP3    H281708   6.060   3.341   5.827  0.8775  0.4289 -1.1315
20073TIP3   OH281709   4.807   2.767  12.349  0.3361 -0.2051 -0.6878
20073TIP3    H181710   4.791   2.806  12.435  2.3210 -0.1280 -0.2939
20073TIP3    H281711   4.728   2.717  12.330 -0.0273 -0.4767  1.3306
20074TIP3   OH281712   1.510   6.499  13.429  0.2583 -0.9645 -0.0676
20074TIP3    H181713   1.419   6.515  13.406  0.7426 -0.4451 -1.6941
20074TIP3    H281714   1.511   6.505  13.525 -1.4029 -0.9843 -0.0146
20075TIP3   OH281715   3.730   4.862  17.107 -0.5890 -0.0842 -0.0893
20075TIP3    H181716   3.683   4.783  17.131 -0.5219  0.3012  1.4064
20075TIP3    H281717   3.687   4.932  17.157  2.4295  0.0830  2.5785
20076TIP3   OH281718   0.395   4.374  11.154 -0.6990 -0.0819  0.0898
20076TIP3    H181719   0.416   4.434  11.082  0.1829  1.2985  1.4295
20076TIP3    H281720   0.407   4.286  11.116  0.5051  0.6090 -1.2331
20077TIP3   OH281721   5.405   3.156  16.754 -0.0033  0.2643 -0.0945
20077TIP3    H181722   5.349   3.197  16.687  1.0590  1.2463 -0.4313
20077TIP3    H281723   5.433   3.074  16.714 -1.2788 -0.2933  0.1276
20078TIP3   OH281724   0.384   4.783  12.198  0.4234 -0.1993 -0.0254
20078TIP3    H181725   0.476   4.763  12.183  0.2885  0.8770 -2.8912
20078TIP3    H281726   0.385   4.864  12.250  1.2223  1.2653 -2.1729
20079TIP3   OH281727   6.524   6.306   1.317  0.2432  0.5376  0.3107
20079TIP3    H181728   6.616   6.330   1.322 -0.0371  1.9577 -0.6831
20079TIP3    H281729   6.509   6.249   1.393  1.8707  0.4703  0.5993
20080TIP3   OH281730   2.814   6.666  12.868  0.1037 -0.0471 -0.4316
20080TIP3    H181731   2.881   6.733  12.879  2.0860 -2.2226  1.7104
20080TIP3    H281732   2.848   6.608  12.800  0.2052 -0.9126  0.3400
20081TIP3   OH281733   2.241   1.998  13.277  0.0903  0.2652  0.0162
20081TIP3    H181734   2.207   1.909  13.272  1.4569 -0.2830 -0.0372
20081TIP3    H281735   2.303   1.995  13.349  1.8531  0.5447 -1.4181
20082TIP3   OH281736   4.372   0.717   6.277  0.4814 -0.2500  0.2577
20082TIP3    H181737   4.399   0.669   6.355  1.2981  0.5973  0.5134
20082TIP3    H281738   4.370   0.651   6.208  1.8824 -0.6129  0.5322
20083TIP3   OH281739   2.059   3.665   2.646 -0.3267  0.4577  0.9395
20083TIP3    H181740   1.968   3.661   2.617 -0.8593 -1.9222  2.6600
20083TIP3    H281741   2.109   3.636   2.569 -1.3032 -1.0833  0.8243
20084TIP3   OH281742   2.530   0.164  10.695  0.0467 -0.1942 -0.4824
20084TIP3    H181743   2.479   0.103  10.643  1.7870 -0.8370 -1.5397
20084TIP3    H281744   2.607   0.113  10.723  0.2365  0.7683  0.8682
20085TIP3   OH281745   3.106   2.155   4.586 -0.0099 -0.1777  0.1647
20085TIP3    H181746   3.074   2.229   4.535 -1.0665 -1.6352 -1.4194
20085TIP3    H281747   3.037   2.138   4.649  0.3959  0.3912  0.7708
20086TIP3   OH281748   5.190   3.903  11.852 -0.8388  0.3876  0.1698
20086TIP3    H181749   5.169   3.826  11.904 -0.4066 -1.0762 -1.6999
20086TIP3    H281750   5.161   3.881  11.763  0.9164  1.6253 -0.7877
20087TIP3   OH281751   0.040   4.406  10.309  0.2604 -0.6905 -0.2365
20087TIP3    H181752   0.111   4.455  10.268  1.1332  1.5170  3.5122
20087TIP3    H281753  -0.037   4.461  10.298  0.3572 -0.4072  0.4749
20088TIP3   OH281754   5.033   3.745  16.102 -0.2098  0.4886 -0.2599
20088TIP3    H181755   5.008   3.748  16.195  0.2155 -3.3528  0.1471
20088TIP3    H281756   4.953   3.718  16.057  0.0945  0.3405 -0.7148
20089TIP3   OH281757   3.794   6.109  16.389 -0.3671 -0.3740  0.1677
20089TIP3    H181758   3.727   6.056  16.433 -0.0975  0.2609  1.3971
20089TIP3    H281759   3.876   6.083  16.431  0.0533 -0.5452 -0.7495
20090TIP3   OH281760   2.504   6.006  16.955  0.2496  0.1570  0.0065
20090TIP3    H181761   2.525   6.055  16.876 -1.1806  0.4533 -0.2026
20090TIP3    H281762   2.409   6.012  16.964 -0.0096 -2.5238  0.0004
20091TIP3   OH281763   1.408   0.474   2.780 -0.2260 -0.2303 -0.4763
20091TIP3    H181764   1.363   0.523   2.711  0.8319 -0.5661 -1.4322
20091TIP3    H281765   1.350   0.400   2.798 -2.2569  1.7132  1.5735
20092TIP3   OH281766   2.669   2.459  16.120  0.1608 -0.6768 -0.3226
20092TIP3    H181767   2.600   2.398  16.097  1.5271 -2.3920 -0.1426
20092TIP3    H281768   2.666   2.527  16.053 -1.8251 -0.5402 -0.1514
20093TIP3   OH281769   3.810   0.682   4.323 -0.7082  0.5599  0.3977
20093TIP3    H181770   3.887   0.671   4.267 -1.8494  0.0914 -1.1609
20093TIP3    H281771   3.736   0.677   4.262 -1.9557  1.5325  1.7658
20094TIP3   OH281772   5.988   6.394   2.581  0.1040 -1.1192  0.1621
20094TIP3    H181773   6.063   6.352   2.538  0.2181 -0.6147 -0.1456
20094TIP3    H281774   6.015   6.485   2.592  0.4706 -1.4484  2.2553
20095TIP3   OH281775   6.573   3.839   4.440  0.0393  0.1271 -0.2450
20095TIP3    H181776   6.481   3.840   4.467  0.0824  0.3107 -0.1081
20095TIP3    H281777   6.622   3.850   4.522  0.1745  0.4675 -0.3741
20096TIP3   OH281778   2.077   2.807   5.960  0.8364  0.5990  0.1887
20096TIP3    H181779   2.043   2.765   6.039 -0.0548  1.2213  0.1525
20096TIP3    H281780   2.077   2.901   5.980  0.9124  0.7381 -0.4311
20097TIP3   OH281781   5.657   6.281   2.222  0.1074  0.1864 -0.3521
20097TIP3    H181782   5.614   6.356   2.264 -1.5684 -0.2984 -1.1186
20097TIP3    H281783   5.620   6.204   2.265  0.2890 -0.2473 -0.9526
20098TIP3   OH281784   4.598   4.751   4.415  0.0518  0.0768 -0.2386
20098TIP3    H181785   4.655   4.821   4.446 -0.7677  0.7098 -0.1372
20098TIP3    H281786   4.624   4.674   4.466  0.3270  0.5352  0.3161
20099TIP3   OH281787   6.490   3.415   1.655 -0.4893  0.1716  0.0145
20099TIP3    H181788   6.419   3.439   1.715  0.0536  0.0129  0.7295
20099TIP3    H281789   6.506   3.495   1.604 -0.7296  0.4113  0.3135
20100TIP3   OH281790   3.561   2.823  17.149 -0.1430  0.3774 -0.3935
20100TIP3    H181791   3.509   2.743  17.147 -0.5876  0.6676 -1.7007
20100TIP3    H281792   3.642   2.801  17.103  0.5085  0.1984  0.7954
20101TIP3   OH281793   6.388   4.212   2.628 -0.1970  0.4877  0.2331
20101TIP3    H181794   6.381   4.119   2.608  0.1644  0.9687 -2.6233
20101TIP3    H281795   6.481   4.231   2.625 -0.2864  0.9989  0.5207
20102TIP3   OH281796   0.113   0.330   1.836  0.8177  0.8061 -0.0815
20102TIP3    H181797   0.073   0.275   1.768 -0.3918  0.2074  1.0633
20102TIP3    H281798   0.207   0.316   1.825  0.5879 -0.5859 -0.5833
20103TIP3   OH281799   4.370   0.311  17.192 -0.2264 -0.0150 -0.0264
20103TIP3    H181800   4.462   0.318  17.165  0.0221  1.9954  1.1567
20103TIP3    H281801   4.365   0.226  17.236  1.2395  0.1271  0.4725
20104TIP3   OH281802   4.872   2.230  16.737  0.4366 -0.1219  0.1380
20104TIP3    H181803   4.820   2.177  16.797  0.5133 -0.5889 -0.2005
20104TIP3    H281804   4.939   2.270  16.792 -0.6491  0.9912  0.6887
20105TIP3   OH281805   6.063   6.044   0.295 -0.1079 -0.5850 -0.3709
20105TIP3    H181806   6.034   6.025   0.205 -1.8321  0.9333 -0.1950
20105TIP3    H281807   5.983   6.066   0.342  0.9448  0.1947  1.1410
20106TIP3   OH281808   2.708   6.692  16.252 -0.0051 -0.0890 -0.2430
20106TIP3    H181809   2.645   6.699  16.323  0.1485 -1.3530  0.0366
20106TIP3    H281810   2.658   6.711  16.173 -0.5938 -0.4227  0.0418
20107TIP3   OH281811   2.743   5.684   3.050 -0.3795 -0.0744  0.2750
20107TIP3    H181812   2.731   5.690   3.145  2.2638 -0.4743  0.7321
20107TIP3    H281813   2.774   5.771   3.025  0.5521 -0.4422  0.1040
20108TIP3   OH281814   5.719   2.861  10.547 -0.3507 -0.5791  0.5159
20108TIP3    H181815   5.730   2.768  10.527 -1.4141 -0.5995 -0.0624
20108TIP3    H281816   5.632   2.882  10.513 -0.5695  0.3699  1.6111
20109TIP3   OH281817   0.108   3.315   3.570 -0.2573  0.1276  0.0222
20109TIP3    H181818   0.065   3.399   3.553  2.9197  2.2326  1.4382
20109TIP3    H281819   0.049   3.269   3.629 -2.1654  1.2342 -0.9225
20110TIP3   OH281820   0.860   5.720  12.487 -0.0115  0.7537  0.0333
20110TIP3    H181821   0.940   5.762  12.518  2.0448 -0.2004 -3.4121
20110TIP3    H281822   0.865   5.631  12.520  0.8444  0.4526 -0.8716
20111TIP3   OH281823   1.897   6.186   2.017 -0.0959 -0.4848  0.6158
20111TIP3    H181824   1.931   6.126   1.951  0.2618 -1.0314  1.2861
20111TIP3    H281825   1.861   6.129   2.086  0.1959  0.0646  1.2354
20112TIP3   OH281826   0.196   1.549  15.640  0.0430 -0.5636  0.1524
20112TIP3    H181827   0.236   1.588  15.717  1.3986 -0.0253 -0.7857
20112TIP3    H281828   0.231   1.459  15.638 -0.0093 -0.5845  0.1815
20113TIP3   OH281829   5.490   3.791  15.706 -0.0591 -0.2627  0.2474
20113TIP3    H181830   5.568   3.739  15.685 -1.0691 -1.4877 -0.5804
20113TIP3    H281831   5.506   3.875  15.664  1.0628 -0.2867  0.5768
20114TIP3   OH281832   2.547   6.163   3.373 -0.6160 -0.4594 -0.2143
20114TIP3    H181833   2.636   6.194   3.390 -0.6863  0.4262 -1.3660
20114TIP3    H281834   2.490   6.231   3.410 -0.7969 -0.2787 -0.8163
20115TIP3   OH281835   0.598   2.152   5.966 -0.3347 -0.0948  0.2143
20115TIP3    H181836   0.570   2.224   6.022 -0.6734 -0.8211  1.0069
20115TIP3    H281837   0.575   2.073   6.015  2.2427 -0.7728  0.4810
20116TIP3   OH281838   1.724   4.340  17.289 -0.4028  0.4856  0.2826
20116TIP3    H181839   1.801   4.394  17.268  0.0969 -0.6690 -0.9809
20116TIP3    H281840   1.716   4.346  17.384  2.0183 -0.3349  0.6119
20117TIP3   OH281841   6.187   0.866   1.022  0.4883  0.6375  0.5337
20117TIP3    H181842   6.113   0.808   1.002  0.6808  0.6713 -0.3362
20117TIP3    H281843   6.263   0.809   1.026  0.8272  0.9067 -1.2445
20118TIP3   OH281844   2.067   3.712  13.098 -0.2653  0.0272  0.7389
20118TIP3    H181845   2.133   3.767  13.055  2.3488 -0.7283  3.4782
20118TIP3    H281846   2.011   3.775  13.144  0.4936  0.5981  0.9160
20119TIP3   OH281847   3.166   4.008   5.983 -0.4646  0.1571 -0.1155
20119TIP3    H181848   3.201   4.091   5.954  0.8245 -0.7340 -1.2201
20119TIP3    H281849   3.232   3.973   6.043 -1.2954  0.1936  0.8635
20120TIP3   OH281850   5.249   4.535   1.010  0.2109  0.4387  0.0638
20120TIP3    H181851   5.199   4.601   1.057 -0.6938 -0.6728  0.7200
20120TIP3    H281852   5.183   4.485   0.962  0.9926  0.7023 -1.3103
20121TIP3   OH281853   0.504   3.192   2.758  0.6893  0.2009 -0.7946
20121TIP3    H181854   0.455   3.213   2.679 -1.3574  0.2689  0.4372
20121TIP3    H281855   0.464   3.112   2.791  1.3005  0.3462  0.3540
20122TIP3   OH281856   6.546   2.308   3.214 -0.0788  0.1776 -0.0115
20122TIP3    H181857   6.518   2.217   3.205  2.9844 -0.7900 -1.2245
20122TIP3    H281858   6.468   2.359   3.193 -1.4542 -2.1642 -1.1061
20123TIP3   OH281859   0.166   2.387  12.858  0.2146 -0.0296  0.2355
20123TIP3    H181860   0.181   2.330  12.782 -0.6470  0.5168 -0.3632
20123TIP3    H281861   0.142   2.327  12.929  1.3869 -0.5810  0.1902
20124TIP3   OH281862   0.531   4.729   6.044 -0.1964 -0.1686 -0.1690
20124TIP3    H181863   0.530   4.820   6.075 -0.2692 -0.7729  1.7405
20124TIP3    H281864   0.442   4.714   6.012 -0.5305  0.1040  0.6047
20125TIP3   OH281865   2.940   4.840  11.617 -0.1933  0.5473 -0.0555
20125TIP3    H181866   3.029   4.850  11.650  1.5656 -1.6496 -3.5514
20125TIP3    H281867   2.907   4.761  11.661  0.2815  0.3240 -0.0935
20126TIP3   OH281868   6.374   1.038   0.103  0.7868 -0.0077 -0.7417
20126TIP3    H181869   6.444   1.005   0.046  0.2528 -1.1828 -0.7358
20126TIP3    H281870   6.296   1.038   0.047  0.5610  0.2445 -0.4300
20127TIP3   OH281871   5.988   5.133  17.075  0.2306 -0.6755  0.2669
20127TIP3    H181872   6.025   5.060  17.027  2.6824 -0.6051  1.8960
20127TIP3    H281873   6.053   5.203  17.068 -1.2466  0.7675  0.2253
20128TIP3   OH281874   2.643   2.575  15.867 -0.1261 -0.4407  0.4800
20128TIP3    H181875   2.567   2.617  15.827 -1.2559 -1.8301  1.0882
20128TIP3    H281876   2.695   2.544  15.792 -0.9625 -0.8321  0.0364
20129TIP3   OH281877   4.791   1.944  11.448  0.3306 -0.1037 -0.3599
20129TIP3    H181878   4.803   1.902  11.533  1.2163 -0.1124 -0.4869
20129TIP3    H281879   4.759   2.032  11.470 -0.7059 -0.5367 -0.0674
20130TIP3   OH281880   5.794   3.577  12.575  0.1875  0.1844  0.1785
20130TIP3    H181881   5.885   3.607  12.575  0.2048  0.1663  1.2702
20130TIP3    H281882   5.799   3.482  12.578  0.1789  0.1999  2.4501
20131TIP3   OH281883   4.778   3.511   1.690  0.0786 -0.1094 -0.5578
20131TIP3    H181884   4.750   3.552   1.772 -0.5970  1.6350 -1.6011
20131TIP3    H281885   4.708   3.447   1.671 -0.0822 -0.0761 -0.1041
20132TIP3   OH281886   3.116   2.028  11.860  0.0571  0.1702  0.1506
20132TIP3    H181887   3.102   2.108  11.810 -0.2844  0.3265  0.4943
20132TIP3    H281888   3.032   1.983  11.857  0.3091 -0.2838 -0.2272
20133TIP3   OH281889   0.587   1.837   3.015 -0.4810  0.1434  0.0879
20133TIP3    H181890   0.541   1.758   3.042 -0.5727  0.2590  0.2685
20133TIP3    H281891   0.655   1.806   2.955 -1.4697  0.0718 -1.0364
20134TIP3   OH281892   2.389   2.416  16.061 -0.0726 -0.2426 -0.3757
20134TIP3    H181893   2.379   2.508  16.040  1.6841 -0.2129 -1.2414
20134TIP3    H281894   2.335   2.403  16.139  0.5220  1.7721  0.4249
20135TIP3   OH281895   6.796   0.955   6.014  0.2781  0.0230 -0.2649
20135TIP3    H181896   6.847   0.965   6.094  0.6972 -0.1713 -0.4977
20135TIP3    H281897   6.843   1.007   5.949  1.3313 -1.7202 -0.9739
20136TIP3   OH281898   4.893   0.274   3.617  0.2491 -0.1233 -0.2947
20136TIP3    H181899   4.904   0.351   3.673 -2.3577 -0.0532  0.2934
20136TIP3    H281900   4.982   0.247   3.595  1.3004  1.7549  1.2659
20137TIP3   OH281901   2.613   5.471   3.446 -0.2527  0.3391  0.2602
20137TIP3    H181902   2.551   5.401   3.427  0.7271 -2.0656  4.6915
20137TIP3    H281903   2.692   5.426   3.476  1.7541  3.3745 -0.0056
20138TIP3   OH281904   3.090   1.362   6.189 -0.1352  0.7973 -0.0857
20138TIP3    H181905   3.156   1.419   6.229 -1.0450  2.2892 -0.6072
20138TIP3    H281906   3.028   1.344   6.260  0.0407  0.6236  0.0254
20139TIP3   OH281907   5.391   1.113   4.449  0.3122  0.4080  0.6011
20139TIP3    H181908   5.358   1.191   4.405  1.7189 -0.4032 -2.1054
20139TIP3    H281909   5.314   1.073   4.488 -1.2934  0.6250 -2.1052
20140TIP3   OH281910   0.721   1.622  13.051  0.6500 -0.1255  0.3099
20140TIP3    H181911   0.781   1.695  13.037  2.3417 -1.7676 -1.9016
20140TIP3    H281912   0.718   1.577  12.966  0.0606 -2.8361  1.6378
20141TIP3   OH281913   4.697   3.541   3.078 -0.2850  0.1341  0.2653
20141TIP3    H181914   4.782   3.534   3.035 -0.0752  1.3591  0.4387
20141TIP3    H281915   4.634   3.535   3.006 -0.0227 -0.0010  0.0439
20142TIP3   OH281916   1.337   5.648   1.378 -0.7399  0.2539  0.9754
20142TIP3    H181917   1.371   5.674   1.293 -3.7981 -0.5950 -0.6505
20142TIP3    H281918   1.293   5.726   1.411 -1.4901 -0.0363  0.6855
20143TIP3   OH281919   3.628   1.289  12.751  0.3312  0.1246 -0.5138
20143TIP3    H181920   3.683   1.213  12.769  0.3132 -0.1310 -1.4723
20143TIP3    H281921   3.660   1.356  12.811 -0.1272 -0.8326  0.8692
20144TIP3   OH281922   4.273   2.420  16.749  0.4231 -0.1762 -0.9789
20144TIP3    H181923   4.198   2.476  16.729  0.9674  1.0735  0.3389
20144TIP3    H281924   4.234   2.335  16.771 -0.6166  0.4375 -0.3633
20145TIP3   OH281925   3.427   1.275   3.625 -0.6139 -0.0607  0.3997
20145TIP3    H181926   3.460   1.204   3.571 -0.9834 -0.3648  0.5696
20145TIP3    H281927   3.467   1.354   3.588 -1.2238 -0.2051 -0.6185
20146TIP3   OH281928   3.304   3.479   0.985 -0.0530  0.1490  0.1944
20146TIP3    H181929   3.325   3.405   1.041 -0.2533  0.6465  0.9435
20146TIP3    H281930   3.209   3.475   0.972  0.0447 -0.1959 -0.4505
20147TIP3   OH281931   2.537   4.200  15.919  0.0275  0.0424  0.0137
20147TIP3    H181932   2.618   4.197  15.970 -0.4399 -0.0962  0.7624
20147TIP3    H281933   2.545   4.279  15.866  0.4806  0.2402  0.3706
20148TIP3   OH281934   6.677   3.412  14.008 -0.0386  0.4244 -0.3206
20148TIP3    H181935   6.721   3.378  13.930 -1.5597 -1.3888 -0.4600
20148TIP3    H281936   6.587   3.428  13.980 -0.5300  0.0679  0.9478
20149TIP3   OH281937   6.537   0.251   2.700  0.2177 -0.0488  0.1047
20149TIP3    H181938   6.585   0.262   2.618  1.2136 -0.0197  0.6736
20149TIP3    H281939   6.486   0.171   2.687 -1.2598  1.0490 -1.2912
20150TIP3   OH281940   2.706   4.689   3.846 -0.3534  0.4883 -0.2592
20150TIP3    H181941   2.743   4.697   3.934  0.8840  1.0066 -0.8063
20150TIP3    H281942   2.768   4.634   3.798 -1.4301 -0.4704 -0.6038
20151TIP3   OH281943   1.102   0.425   4.289 -0.3185  0.0185  0.1169
20151TIP3    H181944   1.183   0.375   4.280  0.8000  1.2195  2.6036
20151TIP3    H281945   1.037   0.361   4.318  0.1497 -0.6371 -0.2454
20152TIP3   OH281946   1.820   5.641  11.767  0.6422  0.2032  0.0701
20152TIP3    H181947   1.910   5.673  11.762  0.0627  1.7361 -2.0820
20152TIP3    H281948   1.767   5.715  11.738 -1.5147 -0.0657  2.9044
20153TIP3   OH281949   5.034   4.318   4.920 -0.3790  0.0350  0.1665
20153TIP3    H181950   5.018   4.231   4.955 -0.5731 -0.2645 -0.6520
20153TIP3    H281951   4.966   4.331   4.854  0.5099  0.2305 -0.7288
20154TIP3   OH281952   1.570   2.154  16.841 -0.3110 -0.0396 -0.0852
20154TIP3    H181953   1.509   2.084  16.867  0.5398 -0.8128 -0.1078
20154TIP3    H281954   1.570   2.151  16.745  0.0963 -0.3520 -0.0800
20155TIP3   OH281955   1.235   0.950   5.926  0.4998 -0.2549  0.7758
20155TIP3    H181956   1.161   0.974   5.981 -0.2823  1.0434 -0.7657
20155TIP3    H281957   1.281   0.881   5.975 -1.5780 -0.9285  1.8675
20156TIP3   OH281958   6.571   4.061  12.314 -0.0163 -0.3653 -0.1483
20156TIP3    H181959   6.639   4.105  12.263 -0.7208  0.3865 -0.4635
20156TIP3    H281960   6.593   4.079  12.405  1.1047 -1.4983 -0.1725
20157TIP3   OH281961   4.078   1.935   2.036  0.2435  0.7133 -0.0100
20157TIP3    H181962   4.048   1.947   2.126  0.6236  1.6299 -0.0032
20157TIP3    H281963   4.062   2.019   1.993  0.7155  0.5013 -0.6120
20158TIP3   OH281964   1.557   2.125   0.383 -0.3184  0.5538  0.6780
20158TIP3    H181965   1.539   2.175   0.304  0.0915 -0.9927 -0.4394
20158TIP3    H281966   1.470   2.104   0.418 -0.7158 -1.9947 -1.5254
20159TIP3   OH281967   0.518   6.278   0.123 -0.0825 -0.1755  0.1083
20159TIP3    H181968   0.462   6.201   0.120 -0.3033  0.0064 -0.8558
20159TIP3    H281969   0.607   6.244   0.129 -0.0427 -0.5897 -1.9315
20160TIP3   OH281970   5.567   0.254   0.403 -0.2881  0.1216  0.3016
20160TIP3    H181971   5.627   0.327   0.419 -1.2674  1.2217 -0.7700
20160TIP3    H281972   5.500   0.291   0.345 -1.5737 -1.2676  0.8308
20161TIP3   OH281973   4.511   4.465  13.316 -0.7082  0.1266  0.2684
20161TIP3    H181974   4.602   4.464  13.286 -0.6896 -0.5504  0.3300
20161TIP3    H281975   4.516   4.490  13.408 -0.4969 -0.7547  0.5129
20162TIP3   OH281976   2.794   5.936   0.122 -0.1174  0.2223 -0.3125
20162TIP3    H181977   2.883   5.924   0.091 -0.3083  0.9248 -1.1738
20162TIP3    H281978   2.769   6.023   0.090 -0.1410  1.2672  2.2712
20163TIP3   OH281979   2.972   0.242  13.053  0.7566 -0.1234  1.1055
20163TIP3    H181980   2.949   0.328  13.089  0.3311  0.1213  0.2760
20163TIP3    H281981   2.917   0.180  13.101  0.0524  0.2221  0.7535
20164TIP3   OH281982   5.235   2.430   0.310  0.3662 -0.4078  0.3924
20164TIP3    H181983   5.194   2.516   0.321  1.5217  0.2951 -0.4434
20164TIP3    H281984   5.290   2.420   0.388  0.4573 -0.2382  0.3527
20165TIP3   OH281985   0.156   1.982  13.355  0.0763  0.2308  0.5857
20165TIP3    H181986   0.103   1.935  13.419  0.0368  1.9101  1.8458
20165TIP3    H281987   0.162   1.922  13.281 -1.2856 -1.0971  1.4851
20166TIP3   OH281988   1.912   4.459  13.814  0.4128 -0.0513  0.5004
20166TIP3    H181989   1.861   4.511  13.753  0.7318 -0.9005 -0.5171
20166TIP3    H281990   1.863   4.377  13.823  0.6220 -0.1297  1.0047
20167TIP3   OH281991   4.092   2.543  12.936 -0.0371  0.2410  0.0942
20167TIP3    H181992   4.072   2.634  12.958 -0.4719  0.5137 -1.3096
20167TIP3    H281993   4.184   2.545  12.910 -0.3177  0.5110 -0.9463
20168TIP3   OH281994   6.002   4.196   3.075  0.2224 -0.2315  0.1276
20168TIP3    H181995   6.036   4.284   3.063 -1.2919  0.3404 -0.2052
20168TIP3    H281996   6.079   4.143   3.098  1.5165  0.7183 -1.7788
20169TIP3   OH281997   3.461   6.141  14.833  0.4412  0.3027 -0.0907
20169TIP3    H181998   3.553   6.159  14.852 -0.0705  1.4313  1.4995
20169TIP3    H281999   3.428   6.096  14.910 -0.5673  0.7692 -0.2318
20170TIP3   OH282000   1.616   3.773   2.340  0.0850 -0.1954 -0.0380
20170TIP3    H182001   1.693   3.764   2.284  0.1115 -0.2465  0.0061
20170TIP3    H282002   1.638   3.724   2.419  0.2985  0.4014  0.2781
20171TIP3   OH282003   2.258   0.525  15.303  0.2457  0.3356 -0.5708
20171TIP3    H182004   2.202   0.503  15.229 -1.4410  1.3091  0.3414
20171TIP3    H282005   2.207   0.498  15.380  1.3674  0.5794  0.2840
20172TIP3   OH282006   4.173   4.513  14.279  0.2747  0.2473 -0.0071
20172TIP3    H182007   4.142   4.479  14.196 -0.3107  1.4229 -0.2904
20172TIP3    H282008   4.191   4.435  14.332  1.8538 -0.5525 -1.6360
20173TIP3   OH282009   5.890   3.895   3.756  0.5646 -0.2545 -0.2266
20173TIP3    H182010   5.886   3.827   3.823 -0.8786  0.5095  0.5142
20173TIP3    H282011   5.923   3.972   3.802  2.2942 -0.4279 -1.0818
20174TIP3   OH282012   3.463   1.834  17.060  0.2514 -0.3608  0.4749
20174TIP3    H182013   3.405   1.909  17.048  0.6390 -0.0080  0.7788
20174TIP3    H282014   3.417   1.761  17.019  1.0417  0.5407 -2.1911
20175TIP3   OH282015   1.887   0.064   4.193  0.4949 -0.0376  0.1115
20175TIP3    H182016   1.832   0.096   4.265  1.5807 -1.2367  1.5305
20175TIP3    H282017   1.876   0.130   4.124  0.4535  1.8877  1.8470
20176TIP3   OH282018   6.520   3.145  12.565  0.0274  0.5581  0.0133
20176TIP3    H182019   6.438   3.096  12.556  0.5333 -0.0054 -2.3796
20176TIP3    H282020   6.494   3.237  12.554 -0.5376  0.6144  1.5681
20177TIP3   OH282021   2.759   1.942  14.402 -0.3796 -0.4412 -0.4359
20177TIP3    H182022   2.790   1.984  14.481 -0.9759  0.1765 -0.5184
20177TIP3    H282023   2.721   2.013  14.350  1.3613 -0.5620 -1.9800
20178TIP3   OH282024   4.641   5.780   6.559  0.1019  0.1653 -0.3125
20178TIP3    H182025   4.644   5.686   6.545 -1.4972 -0.1221  0.9477
20178TIP3    H282026   4.555   5.796   6.596  0.8188  1.9426  0.7430
20179TIP3   OH282027   3.230   5.304   4.904 -0.9220 -0.2658 -0.5044
20179TIP3    H182028   3.275   5.219   4.909 -1.7257 -0.6057  2.1078
20179TIP3    H282029   3.138   5.283   4.919 -1.2852  0.9716 -0.8813
20180TIP3   OH282030   4.027   1.214  16.724  0.0777  0.1842  0.2177
20180TIP3    H182031   4.079   1.259  16.658  1.1619 -0.2427  0.7516
20180TIP3    H282032   4.064   1.125  16.727 -0.6788 -0.1228  0.6098
20181TIP3   OH282033   1.832   3.413  14.281  0.0875 -0.7133 -0.4823
20181TIP3    H182034   1.902   3.479  14.285  0.0172 -0.7028  2.0443
20181TIP3    H282035   1.873   3.333  14.313 -0.7726 -0.9591  0.0293
20182TIP3   OH282036   2.111   4.052  15.768 -0.2039 -0.1331  0.4923
20182TIP3    H182037   2.034   3.995  15.765 -0.5897  0.4140 -0.1431
20182TIP3    H282038   2.176   4.008  15.713 -0.3882 -0.1207  0.2654
20183TIP3   OH282039   4.824   6.248  16.313  0.4971  0.0034  0.4621
20183TIP3    H182040   4.888   6.292  16.257  0.9044  1.6439  2.1331
20183TIP3    H282041   4.876   6.185  16.364  0.5042  0.1350  0.6181
20184TIP3   OH282042   0.508   3.428  12.411 -0.3753  0.1709 -0.4679
20184TIP3    H182043   0.603   3.422  12.415 -0.2214  1.0402 -2.1008
20184TIP3    H282044   0.478   3.337  12.415  0.5353 -0.1306 -0.2638
20185TIP3   OH282045   0.221   1.666  16.525 -0.4667  0.4106  0.1597
20185TIP3    H182046   0.221   1.682  16.431  1.0954  3.0105  0.5063
20185TIP3    H282047   0.292   1.603  16.539 -0.4615  0.3040 -0.3374
20186TIP3   OH282048   4.385   6.238   2.384 -0.1249  0.0867 -0.1166
20186TIP3    H182049   4.301   6.268   2.419  0.3784 -1.6815  2.8630
20186TIP3    H282050   4.416   6.312   2.331 -2.2575  1.8709  0.9680
20187TIP3   OH282051   5.966   5.879  11.356 -0.4763 -0.2269  0.0080
20187TIP3    H182052   6.005   5.875  11.268  0.5488  1.0807  0.3773
20187TIP3    H282053   6.040   5.889  11.415 -1.2943  2.1776  0.7471
20188TIP3   OH282054   4.420   1.171   1.156  0.0803  0.2025  0.6383
20188TIP3    H182055   4.399   1.078   1.156 -1.6873  0.4551 -2.6271
20188TIP3    H282056   4.492   1.179   1.093  0.0698  1.0886  0.7268
20189TIP3   OH282057   4.588   1.167  12.705 -0.0464  0.7041 -0.1282
20189TIP3    H182058   4.514   1.195  12.759 -0.6352  0.2235 -0.6742
20189TIP3    H282059   4.554   1.162  12.616  0.2641 -0.8135 -0.1966
20190TIP3   OH282060   3.087   3.314   4.180  0.3059 -0.0621  0.7745
20190TIP3    H182061   3.089   3.314   4.085  0.7752 -1.5301  0.7620
20190TIP3    H282062   3.021   3.380   4.203  0.8407  0.9649 -0.5218
20191TIP3   OH282063   1.609   2.556  15.832  0.2126 -0.0012 -0.3697
20191TIP3    H182064   1.695   2.574  15.869  0.0035  1.1601 -0.4196
20191TIP3    H282065   1.566   2.501  15.897  0.2830  1.0421  0.5905
20192TIP3   OH282066   0.695   0.271  16.079 -0.3862  0.1959 -0.4030
20192TIP3    H182067   0.665   0.355  16.043 -0.0663  0.6257  0.3006
20192TIP3    H282068   0.790   0.274  16.073 -0.3315  0.2083  0.2938
20193TIP3   OH282069   1.052   6.597   3.248 -0.3993  0.1992  0.0017
20193TIP3    H182070   1.014   6.669   3.298  2.0283  1.3926  0.3291
20193TIP3    H282071   1.086   6.537   3.314  1.1197  0.8242 -0.1576
20194TIP3   OH282072   6.199   2.272   1.908  0.7130  0.6892  1.0502
20194TIP3    H182073   6.168   2.192   1.866  0.5171  1.6637 -0.7838
20194TIP3    H282074   6.180   2.260   2.001  1.4282 -1.7059  0.9364
20195TIP3   OH282075   4.577   1.151   2.754 -0.2206  0.4765  0.1311
20195TIP3    H182076   4.566   1.234   2.708 -2.0340  0.1010 -0.1608
20195TIP3    H282077   4.550   1.085   2.691  0.8603 -0.3416  0.4874
20196TIP3   OH282078   0.861   0.848   5.946 -0.6745  0.3192  0.4487
20196TIP3    H182079   0.835   0.789   5.876 -1.9896  1.2795  0.1078
20196TIP3    H282080   0.944   0.811   5.978 -0.3660 -0.4808 -1.1706
20197TIP3   OH282081   4.856   6.248   0.889  0.2563  0.2782  0.4708
20197TIP3    H182082   4.892   6.186   0.826  1.0101  1.2260 -0.0630
20197TIP3    H282083   4.768   6.216   0.907  1.1116 -1.7457  1.3289
20198TIP3   OH282084   3.679   2.405   5.716  0.2156 -0.3628  0.0331
20198TIP3    H182085   3.765   2.378   5.683  1.1187  0.0359  1.9279
20198TIP3    H282086   3.657   2.338   5.781 -0.3220  0.1915  0.4286
20199TIP3   OH282087   2.968   0.846  14.030  0.8041 -0.1030  0.2533
20199TIP3    H182088   3.056   0.874  14.008  0.5459  0.2094 -0.4235
20199TIP3    H282089   2.955   0.874  14.120  1.2457  0.2200  0.2193
20200TIP3   OH282090   3.730   6.439   3.277 -0.0482 -0.4564  0.7037
20200TIP3    H182091   3.802   6.435   3.213  0.3453 -0.9899  1.1667
20200TIP3    H282092   3.717   6.532   3.293 -0.7421 -0.2648 -0.8071
20201TIP3   OH282093   1.276   5.478  16.700  0.7167 -0.1513  0.1918
20201TIP3    H182094   1.345   5.431  16.746  2.2152  1.9443  0.2348
20201TIP3    H282095   1.321   5.526  16.631 -0.7374  1.0261 -0.0075
20202TIP3   OH282096   4.837   1.987   5.125  0.2271 -0.2386 -0.3359
20202TIP3    H182097   4.764   2.007   5.066  0.3383  1.2306 -0.0077
20202TIP3    H282098   4.820   2.040   5.202  1.8058  0.3784 -0.3783
20203TIP3   OH282099   5.087   0.123  10.741  0.0875 -0.2249 -0.5044
20203TIP3    H182100   5.010   0.141  10.796  0.0744 -0.0167 -0.5892
20203TIP3    H282101   5.133   0.207  10.736  0.5815 -0.4637 -0.0582
20204TIP3   OH282102   1.698   3.926   4.952  0.0771  0.6961  0.1213
20204TIP3    H182103   1.734   3.906   5.038  0.1372  0.6740  0.0907
20204TIP3    H282104   1.627   3.989   4.970 -0.8949 -0.4211  0.3366
20205TIP3   OH282105   6.321   5.647  14.738  0.0148  0.1263  0.2988
20205TIP3    H182106   6.316   5.709  14.811 -0.5832  0.0423  0.3290
20205TIP3    H282107   6.413   5.650  14.711 -0.2241  1.8695 -0.4443
20206TIP3   OH282108   6.303   2.841  14.780  0.0756  0.0593 -0.2363
20206TIP3    H182109   6.354   2.771  14.740 -0.0494  0.0707 -0.4173
20206TIP3    H282110   6.227   2.796  14.817  0.0076  0.0952 -0.3311
20207TIP3   OH282111   0.283   1.653  12.183 -0.1515 -0.1401 -0.7603
20207TIP3    H182112   0.365   1.638  12.230 -1.5601 -0.1827  1.8666
20207TIP3    H282113   0.269   1.748  12.189 -0.0589 -0.0607 -1.6567
20208TIP3   OH282114   0.114   1.361  13.141  0.3662 -0.0644 -0.1586
20208TIP3    H182115   0.167   1.378  13.218  0.2330  0.5925 -0.2082
20208TIP3    H282116   0.146   1.423  13.075 -0.5463  0.4528 -0.1383
20209TIP3   OH282117   1.326   0.871   3.957  0.0580 -0.0360 -0.7516
20209TIP3    H182118   1.238   0.908   3.950 -0.0083  0.0196  0.2400
20209TIP3    H282119   1.380   0.925   3.899  0.0955  2.0442  1.1076
20210TIP3   OH282120   5.865   0.191  13.313  0.4972 -0.6517 -0.5844
20210TIP3    H182121   5.785   0.200  13.364  1.1395  1.4487  0.1493
20210TIP3    H282122   5.929   0.156  13.375  0.7600 -0.0217 -0.4959
20211TIP3   OH282123   4.109   6.005  11.768  0.2188  0.3004 -0.2889
20211TIP3    H182124   4.107   5.914  11.739  1.3094  0.4465 -0.8432
20211TIP3    H282125   4.104   6.057  11.688 -0.8252  0.7497  0.0468
20212TIP3   OH282126   2.222   5.863  13.855 -0.3276  0.1707  0.1084
20212TIP3    H182127   2.184   5.949  13.868 -1.3642 -0.0350 -1.3499
20212TIP3    H282128   2.278   5.849  13.932 -0.0372  2.1721  0.3037
20213TIP3   OH282129   2.442   2.926  17.178 -0.0148  0.5015 -0.7405
20213TIP3    H182130   2.484   2.840  17.181 -0.3440  0.3007 -1.4864
20213TIP3    H282131   2.498   2.983  17.230 -0.3518 -0.3981  0.6705
20214TIP3   OH282132   4.734   4.967   3.782 -0.3128 -0.0745 -0.2433
20214TIP3    H182133   4.714   5.016   3.862  0.2032  1.6846 -1.1442
20214TIP3    H282134   4.809   4.912   3.806  0.5098  1.2044  0.2394
20215TIP3   OH282135   1.245   2.526  11.852  0.3075  0.0433 -0.5567
20215TIP3    H182136   1.326   2.548  11.806  0.6132 -0.9654 -0.5345
20215TIP3    H282137   1.241   2.588  11.924  2.9611 -2.0372  1.5928
20216TIP3   OH282138   0.867   5.949  17.172 -0.7814  0.1515 -0.8869
20216TIP3    H182139   0.876   6.044  17.163  0.6779 -0.0925 -2.8450
20216TIP3    H282140   0.895   5.915  17.087 -0.9389 -2.0521 -0.1099
20217TIP3   OH282141   6.216   1.730   2.219  0.0013  0.4501  0.1601
20217TIP3    H182142   6.129   1.769   2.220 -1.0784 -1.7875 -0.1356
20217TIP3    H282143   6.229   1.698   2.309  0.0823 -0.0765 -0.0311
20218TIP3   OH282144   6.656   2.929   4.027  0.1957  0.9670 -0.4764
20218TIP3    H182145   6.745   2.963   4.016  0.0402  0.7894 -2.9244
20218TIP3    H282146   6.611   2.952   3.946 -1.7360  0.2353  0.3175
20219TIP3   OH282147   4.696   4.497   4.495 -0.4114  0.0197 -0.0287
20219TIP3    H182148   4.768   4.461   4.444  0.5827  0.5547  0.9670
20219TIP3    H282149   4.617   4.470   4.447  0.4807  1.1535 -2.2628
20220TIP3   OH282150   3.359   1.512   1.867  0.4906  0.4941  0.3078
20220TIP3    H182151   3.389   1.450   1.800  2.6435  1.3562  0.3938
20220TIP3    H282152   3.264   1.499   1.870  0.6089 -1.2649 -1.1857
20221TIP3   OH282153   1.907   6.474   2.598 -0.5658  0.5563  0.0869
20221TIP3    H182154   1.874   6.391   2.631 -1.5091  0.4373 -1.0883
20221TIP3    H282155   1.964   6.506   2.668  0.4299 -1.4267  0.2638
20222TIP3   OH282156   5.240   2.888   5.483 -0.2183 -0.0668 -0.3107
20222TIP3    H182157   5.233   2.807   5.433 -1.2070 -0.7592  0.8991
20222TIP3    H282158   5.188   2.873   5.562  1.1583  1.0336  0.8813
20223TIP3   OH282159   5.907   6.357   0.020  0.6811 -0.5370 -0.6208
20223TIP3    H182160   5.973   6.404   0.070  1.4349 -1.4310 -0.7369
20223TIP3    H282161   5.955   6.320  -0.055 -0.4774  1.0356 -2.2195
20224TIP3   OH282162   1.405   2.478  14.745 -0.2723 -0.0600 -0.4464
20224TIP3    H182163   1.408   2.554  14.804  1.0230  0.0249 -0.5929
20224TIP3    H282164   1.317   2.443  14.755 -0.9945  1.6294 -0.5765
20225TIP3   OH282165   1.240   1.482   3.432 -0.5672  0.5030  0.2263
20225TIP3    H182166   1.211   1.480   3.340  1.1306 -0.3594 -0.3283
20225TIP3    H282167   1.245   1.390   3.457  0.8593  0.6486  0.5419
20226TIP3   OH282168   2.003   3.631   5.815  0.5393  0.3619 -0.0519
20226TIP3    H182169   2.079   3.579   5.840  0.2752 -0.5251 -0.9917
20226TIP3    H282170   1.929   3.571   5.827  0.3047  0.1840 -1.9385
20227TIP3   OH282171   2.192   2.260   4.166  0.2476 -0.3337  0.1652
20227TIP3    H182172   2.157   2.196   4.227  0.5932 -0.8905 -0.2090
20227TIP3    H282173   2.220   2.334   4.220  0.7527 -0.9129  0.6903
20228TIP3   OH282174   6.584   2.545   2.528  0.3644  0.7152  0.6530
20228TIP3    H182175   6.510   2.603   2.512  0.4134  0.4873 -0.4995
20228TIP3    H282176   6.641   2.557   2.452  1.7441  1.2110  1.7118
20229TIP3   OH282177   3.743   4.634  10.532 -0.2146  0.2068 -0.2015
20229TIP3    H182178   3.711   4.705  10.477 -1.9465 -0.2351  0.1658
20229TIP3    H282179   3.693   4.643  10.613  0.3988 -0.7282  0.2958
20230TIP3   OH282180   5.480   5.959   2.085 -0.2451 -0.0478 -0.5403
20230TIP3    H182181   5.487   5.911   2.168  0.1272  0.3409 -0.3376
20230TIP3    H282182   5.470   5.891   2.019  0.5728 -0.4328 -0.2905
20231TIP3   OH282183   3.843   2.446  15.984  0.3044  0.2635  0.2209
20231TIP3    H182184   3.835   2.357  16.020 -1.7944  0.3066 -0.0039
20231TIP3    H282185   3.825   2.504  16.058  1.1388  0.4901  0.2474
20232TIP3   OH282186   0.367   4.885   4.835  0.5672  0.3663 -0.3317
20232TIP3    H182187   0.309   4.929   4.773 -0.2050 -0.5847 -0.3118
20232TIP3    H282188   0.451   4.879   4.790  0.4960  1.2411 -0.5902
20233TIP3   OH282189   5.468   0.015  16.076 -0.1034 -0.6543 -0.2584
20233TIP3    H182190   5.513   0.098  16.094 -1.0881 -0.2110  0.1962
20233TIP3    H282191   5.380   0.041  16.049 -0.3801 -1.5513 -0.2284
20234TIP3   OH282192   3.498   6.518   5.846 -0.0436 -0.6000  0.1018
20234TIP3    H182193   3.564   6.573   5.888  0.1572 -0.7337 -0.0380
20234TIP3    H282194   3.454   6.474   5.919  0.4609 -1.0116  0.1651
20235TIP3   OH282195   6.681   0.348  13.603 -0.1623 -0.4748  0.2734
20235TIP3    H182196   6.735   0.343  13.682 -0.6727  1.1398  0.7628
20235TIP3    H282197   6.639   0.262  13.597 -1.1108 -0.2372  2.5014
20236TIP3   OH282198   3.114   3.225  11.099 -0.0404 -0.1141  0.3373
20236TIP3    H182199   3.107   3.268  11.184  0.6867 -0.7203  0.7212
20236TIP3    H282200   3.136   3.295  11.038 -0.7224  0.3511  0.6227
20237TIP3   OH282201   4.001   0.698  16.936  0.0667 -0.0327  0.0342
20237TIP3    H182202   3.959   0.616  16.909  1.4080 -0.8093  0.1845
20237TIP3    H282203   4.034   0.680  17.024  1.6162  0.1635 -0.4762
20238TIP3   OH282204   4.504   6.814  14.037  0.3357  0.2318 -0.2186
20238TIP3    H182205   4.457   6.881  14.086 -1.2895 -0.8867 -0.1522
20238TIP3    H282206   4.446   6.793  13.963  0.7891 -1.0803 -0.2334
20239TIP3   OH282207   5.961   0.303   3.256 -0.0255 -0.5619 -0.0839
20239TIP3    H182208   6.040   0.319   3.308  0.3031  1.9784 -1.2197
20239TIP3    H282209   5.890   0.334   3.312  0.2115  1.0074 -0.6134
20240TIP3   OH282210   0.812   5.888   4.979 -0.0388 -0.5287  0.3448
20240TIP3    H182211   0.890   5.907   4.926  0.5394  1.0755  1.6801
20240TIP3    H282212   0.832   5.804   5.021  0.2082 -0.9839 -0.6555
20241TIP3   OH282213   4.130   4.475   0.105  0.4720  0.3760  0.6851
20241TIP3    H182214   4.106   4.471   0.197  1.0955  1.7980  0.9470
20241TIP3    H282215   4.047   4.468   0.057  0.2062 -0.9888  1.3087
20242TIP3   OH282216   4.574   5.582   1.270  0.1094  0.3417  0.5875
20242TIP3    H182217   4.479   5.575   1.270  0.1769 -1.9101 -0.9374
20242TIP3    H282218   4.594   5.632   1.191  0.1972  0.4851  0.7011
20243TIP3   OH282219   1.302   3.626  10.557 -0.0890 -0.2275 -0.2226
20243TIP3    H182220   1.229   3.679  10.591 -0.9660 -1.3938 -0.2195
20243TIP3    H282221   1.260   3.549  10.519  1.1423 -0.8411 -0.3931
20244TIP3   OH282222   4.549   0.000  17.249 -0.4354  0.1178 -0.6246
20244TIP3    H182223   4.457   0.020  17.265 -0.2873  0.6784 -0.4503
20244TIP3    H282224   4.562  -0.086  17.289 -0.7867  0.2162 -0.2919
20245TIP3   OH282225   6.207   2.384   2.499  0.1764  0.6080  0.4545
20245TIP3    H182226   6.128   2.438   2.505 -0.3024  0.4081 -2.5651
20245TIP3    H282227   6.252   2.417   2.422  3.0232  0.5833  1.9860
20246TIP3   OH282228   5.339   1.622  11.546 -0.4808  0.2894 -0.0498
20246TIP3    H182229   5.335   1.529  11.523  1.8335 -0.5998  2.5851
20246TIP3    H282230   5.317   1.668  11.465 -0.6448 -2.5306 -1.7294
20247TIP3   OH282231   3.317   4.136  14.011  0.0466 -0.1232 -0.0884
20247TIP3    H182232   3.403   4.096  13.999  0.7321  0.7052  1.7157
20247TIP3    H282233   3.331   4.229  13.995 -0.4806  0.0303  0.2922
20248TIP3   OH282234   3.307   0.001   5.700  0.4411 -0.1259  0.2659
20248TIP3    H182235   3.292  -0.088   5.670 -0.4913  0.3789 -0.8208
20248TIP3    H282236   3.229   0.022   5.753 -0.9778  1.1322 -2.1560
20249TIP3   OH282237   0.511   3.225   4.669 -0.5369 -0.1023 -0.2600
20249TIP3    H182238   0.483   3.274   4.592 -2.3154  2.6005  1.9102
20249TIP3    H282239   0.602   3.202   4.651 -0.3421  1.9738 -2.4510
20250TIP3   OH282240   4.430   5.393   3.696  0.5174 -0.1758  0.2578
20250TIP3    H182241   4.522   5.415   3.678  1.6459 -1.8340  3.1950
20250TIP3    H282242   4.402   5.459   3.760 -0.1468 -0.0530 -0.1503
20251TIP3   OH282243   4.608   5.192  11.676 -0.1275 -0.1341  0.5345
20251TIP3    H182244   4.621   5.222  11.586 -2.1713  2.0179  0.8546
20251TIP3    H282245   4.535   5.131  11.671  0.9394 -1.4685  0.5503
20252TIP3   OH282246   4.463   0.890   0.126  0.2030  0.4829  0.1516
20252TIP3    H182247   4.475   0.795   0.118 -0.5203  0.3424  0.6519
20252TIP3    H282248   4.371   0.900   0.151  0.4608  1.2716  0.8267
20253TIP3   OH282249   1.685   4.586  16.870  0.7589 -0.4461 -0.1975
20253TIP3    H182250   1.748   4.523  16.905  1.3861  0.5329  0.4941
20253TIP3    H282251   1.738   4.663  16.849 -0.3555  0.8995  1.6286
20254TIP3   OH282252   5.864   0.494  12.751 -0.4249 -0.3037 -0.6213
20254TIP3    H182253   5.873   0.436  12.827 -1.4189 -1.3536 -1.2825
20254TIP3    H282254   5.864   0.435  12.676 -1.3286  0.5712 -1.3269
20255TIP3   OH282255   4.295   6.066   4.694 -0.2853  0.5660 -0.6679
20255TIP3    H182256   4.277   6.044   4.786 -1.8535  1.2674 -0.7860
20255TIP3    H282257   4.334   6.154   4.698  0.8227  0.0928 -0.6078
20256TIP3   OH282258   4.789   0.679   1.942 -0.3854  0.2457  0.5384
20256TIP3    H182259   4.742   0.743   1.888 -0.8129 -0.2451  0.3196
20256TIP3    H282260   4.876   0.716   1.954 -1.1138  1.6575  1.7709
20257TIP3   OH282261   6.411   4.274   2.275 -0.0337  0.8827  0.2612
20257TIP3    H182262   6.352   4.199   2.280  2.8687 -1.7696 -1.3428
20257TIP3    H282263   6.470   4.263   2.349  1.6888  0.2494 -1.1206
20258TIP3   OH282264   6.273   3.451  15.432 -0.6154  0.4331  0.0115
20258TIP3    H182265   6.298   3.362  15.407 -2.2036  0.3613 -1.4231
20258TIP3    H282266   6.279   3.502  15.352 -0.5430  1.4498  0.6403
20259TIP3   OH282267   1.664   1.352  13.053 -0.4866  1.0121  0.1577
20259TIP3    H182268   1.601   1.282  13.032  2.4202 -1.6571 -0.3583
20259TIP3    H282269   1.682   1.393  12.969 -0.4733  0.7944  0.0519
20260TIP3   OH282270   6.277   0.120   3.972  0.0844 -0.0371 -0.2062
20260TIP3    H182271   6.260   0.028   3.995 -1.8924  0.2406 -0.4117
20260TIP3    H282272   6.250   0.170   4.049 -1.4003  0.5245 -1.0511
20261TIP3   OH282273   4.891   5.154   4.132  0.0696  0.7592 -0.2580
20261TIP3    H182274   4.978   5.155   4.172 -0.5869  2.0177  1.2132
20261TIP3    H282275   4.901   5.099   4.054  2.2587  1.1834 -0.3246
20262TIP3   OH282276   0.273   1.945  13.762 -0.7201 -0.5228 -0.0998
20262TIP3    H182277   0.270   1.897  13.679  0.7055 -0.0333 -0.4646
20262TIP3    H282278   0.322   1.887  13.821 -0.7511 -0.3808  0.0647
20263TIP3   OH282279   5.899   2.507   2.461 -0.5166  0.3245  0.3265
20263TIP3    H182280   5.876   2.441   2.395  0.5300  1.2814 -1.0762
20263TIP3    H282281   5.893   2.590   2.414  0.2646  1.0439  1.4399
20264TIP3   OH282282   4.459   0.914  16.220  0.0436 -0.2981 -0.1700
20264TIP3    H182283   4.402   0.873  16.155 -2.2488  0.6777  1.1186
20264TIP3    H282284   4.461   0.853  16.293  0.1964 -0.0828  0.0095
20265LIG     O182285   4.732   5.632  16.971 -1.1863  0.2021 -0.6872
20265LIG     O282286   4.999   5.959  16.784 -0.6599 -0.5025 -0.1690
20265LIG     N182287   5.069   5.738  16.750  0.1134  0.1033 -0.6547
20265LIG     N282288   4.954   5.427  16.899 -0.3794 -0.3156  0.3513
20265LIG     N382289   4.873   5.789  16.876  0.3761  0.4553 -0.2951
20265LIG     N482290   5.135   5.498  16.785  0.9367  0.0923 -0.4815
20265LIG     C182291   4.936   5.562  16.873 -0.2823 -0.0678  0.1381
20265LIG     C282292   5.046   5.602  16.795 -0.1021 -0.4384 -0.2362
20265LIG     C382293   4.839   5.658  16.914  0.0626  0.5021 -0.5996
20265LIG     C482294   4.986   5.835  16.805 -0.3862  0.1721 -0.8807
20265LIG     C582295   5.084   5.400  16.860  0.8435 -0.8343  0.1005
20265LIG     C682296   5.179   5.788  16.670 -0.5007 -0.3710  0.7887
20265LIG     C782297   4.868   5.356  16.985  0.5625 -0.1929 -0.8552
20265LIG     C882298   4.778   5.892  16.922 -0.0902  0.5975 -0.0759
20265LIG     H182299   5.124   5.299  16.869  0.5171 -1.0067 -0.3084
20265LIG     H282300   5.249   5.711  16.629 -0.2848  0.2972 -0.1517
20265LIG     H382301   5.241   5.868  16.715 -1.4212  1.8792 -1.6727
20265LIG     H482302   5.138   5.831  16.576 -0.8041  1.2360  1.6322
20265LIG     H582303   4.884   5.246  16.978 -0.7350 -0.2890 -3.1040
20265LIG     H682304   4.760   5.369  16.961  0.7482  0.5638 -1.2849
20265LIG     H782305   4.881   5.374  17.094 -2.9176 -2.3295  0.0830
20265LIG     H882306   4.794   5.926  17.026  0.9505  0.3756 -0.1536
20265LIG     H982307   4.673   5.855  16.919  0.8244 -2.4209  1.3376
20265LIG    H1082308   4.775   5.978  16.851  1.6845  0.3929 -0.4447
   6.82563   6.82563  17.32461
