;;
;; Generated by CHARMM-GUI (http://www.charmm-gui.org) v1.7
;;
;; psf2itp_mol.py
;;
;; Correspondance:
;; jul316@lehigh.edu or wonpil@lehigh.edu
;;
;; GROMACS topology file for LIG
;;


[ moleculetype ]
; name	nrexcl
LIG	     3

[ atoms ]
; nr	type	resnr	residu	atom	cgnr	charge	mass
     1      OG301      1      LIG     O1      1     -0.335    15.9994   ; qtot -0.335
     2      OG2D3      1      LIG     O2      2     -0.457    15.9994   ; qtot -0.792
     3      OG2D3      1      LIG     O3      3     -0.545    15.9994   ; qtot -1.337
     4      OG311      1      LIG     O4      4     -0.549    15.9994   ; qtot -1.886
     5      OG2D3      1      LIG     O5      5     -0.557    15.9994   ; qtot -2.443
     6      OG311      1      LIG     O6      6     -0.508    15.9994   ; qtot -2.951
     7      NG321      1      LIG      N      7     -0.936    14.0070   ; qtot -3.887
     8      CG311      1      LIG     C1      8     -0.055    12.0110   ; qtot -3.942
     9      CG311      1      LIG     C2      9      0.068    12.0110   ; qtot -3.874
    10      CG321      1      LIG     C3     10     -0.232    12.0110   ; qtot -4.106
    11      CG311      1      LIG     C4     11      0.160    12.0110   ; qtot -3.946
    12     CG2R61      1      LIG     C5     12      0.062    12.0110   ; qtot -3.884
    13      CG2O5      1      LIG     C6     13      0.410    12.0110   ; qtot -3.474
    14     CG2R61      1      LIG     C7     14      0.059    12.0110   ; qtot -3.415
    15      CG2O5      1      LIG     C8     15      0.450    12.0110   ; qtot -2.965
    16     CG2D1O      1      LIG     C9     16      0.259    12.0110   ; qtot -2.706
    17     CG2DC1      1      LIG    C10     17     -0.269    12.0110   ; qtot -2.975
    18     CG2R61      1      LIG    C11     18      0.000    12.0110   ; qtot -2.975
    19     CG2R61      1      LIG    C12     19     -0.005    12.0110   ; qtot -2.980
    20     CG2R61      1      LIG    C13     20      0.038    12.0110   ; qtot -2.942
    21     CG2R61      1      LIG    C14     21     -0.029    12.0110   ; qtot -2.971
    22      CG331      1      LIG    C15     22     -0.260    12.0110   ; qtot -3.231
    23      CG2O5      1      LIG    C16     23      0.502    12.0110   ; qtot -2.729
    24     CG2R61      1      LIG    C17     24      0.054    12.0110   ; qtot -2.675
    25     CG2R61      1      LIG    C18     25     -0.156    12.0110   ; qtot -2.831
    26     CG2R61      1      LIG    C19     26      0.056    12.0110   ; qtot -2.775
    27     CG2R61      1      LIG    C20     27     -0.108    12.0110   ; qtot -2.883
    28      CG331      1      LIG    C21     28     -0.230    12.0110   ; qtot -3.113
    29      CG331      1      LIG    C22     29      0.012    12.0110   ; qtot -3.101
    30      CG331      1      LIG    C23     30     -0.263    12.0110   ; qtot -3.364
    31       HGA1      1      LIG     H1     31      0.090     1.0080   ; qtot -3.274
    32       HGA1      1      LIG     H2     32      0.090     1.0080   ; qtot -3.184
    33       HGA2      1      LIG     H3     33      0.090     1.0080   ; qtot -3.094
    34       HGA2      1      LIG     H4     34      0.090     1.0080   ; qtot -3.004
    35       HGA1      1      LIG     H5     35      0.090     1.0080   ; qtot -2.914
    36     HGPAM2      1      LIG     H6     36      0.382     1.0080   ; qtot -2.532
    37     HGPAM2      1      LIG     H7     37      0.382     1.0080   ; qtot -2.150
    38       HGA3      1      LIG     H8     38      0.090     1.0080   ; qtot -2.060
    39       HGA3      1      LIG     H9     39      0.090     1.0080   ; qtot -1.970
    40       HGA3      1      LIG    H10     40      0.090     1.0080   ; qtot -1.880
    41      HGR61      1      LIG    H11     41      0.115     1.0080   ; qtot -1.765
    42       HGP1      1      LIG    H12     42      0.420     1.0080   ; qtot -1.345
    43      HGR61      1      LIG    H13     43      0.115     1.0080   ; qtot -1.230
    44       HGA3      1      LIG    H14     44      0.090     1.0080   ; qtot -1.140
    45       HGA3      1      LIG    H15     45      0.090     1.0080   ; qtot -1.050
    46       HGA3      1      LIG    H16     46      0.090     1.0080   ; qtot -0.960
    47       HGA3      1      LIG    H17     47      0.090     1.0080   ; qtot -0.870
    48       HGA3      1      LIG    H18     48      0.090     1.0080   ; qtot -0.780
    49       HGA3      1      LIG    H19     49      0.090     1.0080   ; qtot -0.690
    50       HGA3      1      LIG    H20     50      0.090     1.0080   ; qtot -0.600
    51       HGA3      1      LIG    H21     51      0.090     1.0080   ; qtot -0.510
    52       HGA3      1      LIG    H22     52      0.090     1.0080   ; qtot -0.420
    53       HGP1      1      LIG    H23     53      0.420     1.0080   ; qtot -0.000

[ bonds ]
; ai	aj	funct	b0	Kb
    1    16     1
    1    29     1
    2    13     1
    3    15     1
    4    19     1
    4    42     1
    5    23     1
    6    24     1
    6    53     1
    7    11     1
    7    36     1
    7    37     1
    8     9     1
    8    10     1
    8    11     1
    8    31     1
    9    13     1
    9    15     1
    9    32     1
   10    12     1
   10    33     1
   10    34     1
   11    16     1
   11    35     1
   12    14     1
   12    18     1
   13    14     1
   14    19     1
   15    17     1
   16    17     1
   17    23     1
   18    20     1
   18    22     1
   19    21     1
   20    21     1
   20    25     1
   21    24     1
   22    38     1
   22    39     1
   22    40     1
   23    28     1
   24    26     1
   25    27     1
   25    41     1
   26    27     1
   26    30     1
   27    43     1
   28    44     1
   28    45     1
   28    46     1
   29    47     1
   29    48     1
   29    49     1
   30    50     1
   30    51     1
   30    52     1

[ pairs ]
; ai	aj	funct	c6	c12
    1     7     1 
    1     8     1 
    1    15     1 
    1    23     1 
    1    35     1 
    2     8     1 
    2    12     1 
    2    15     1 
    2    19     1 
    2    32     1 
    3     8     1 
    3    13     1 
    3    16     1 
    3    23     1 
    3    32     1 
    4    12     1 
    4    13     1 
    4    20     1 
    4    24     1 
    5    15     1 
    5    16     1 
    5    44     1 
    5    45     1 
    5    46     1 
    6    19     1 
    6    20     1 
    6    27     1 
    6    30     1 
    7     9     1 
    7    10     1 
    7    17     1 
    7    31     1 
    8    14     1 
    8    17     1 
    8    18     1 
    8    36     1 
    8    37     1 
    9    12     1 
    9    16     1 
    9    19     1 
    9    23     1 
    9    33     1 
    9    34     1 
    9    35     1 
   10    13     1 
   10    15     1 
   10    16     1 
   10    19     1 
   10    20     1 
   10    22     1 
   10    32     1 
   10    35     1 
   11    12     1 
   11    13     1 
   11    15     1 
   11    23     1 
   11    29     1 
   11    32     1 
   11    33     1 
   11    34     1 
   12    21     1 
   12    25     1 
   12    31     1 
   12    38     1 
   12    39     1 
   12    40     1 
   13    17     1 
   13    18     1 
   13    21     1 
   13    31     1 
   14    15     1 
   14    20     1 
   14    22     1 
   14    24     1 
   14    32     1 
   14    33     1 
   14    34     1 
   14    42     1 
   15    28     1 
   15    31     1 
   16    28     1 
   16    31     1 
   16    36     1 
   16    37     1 
   16    47     1 
   16    48     1 
   16    49     1 
   17    29     1 
   17    32     1 
   17    35     1 
   17    44     1 
   17    45     1 
   17    46     1 
   18    19     1 
   18    24     1 
   18    27     1 
   18    33     1 
   18    34     1 
   18    41     1 
   19    25     1 
   19    26     1 
   20    26     1 
   20    38     1 
   20    39     1 
   20    40     1 
   20    43     1 
   21    22     1 
   21    27     1 
   21    30     1 
   21    41     1 
   21    42     1 
   21    53     1 
   22    25     1 
   24    25     1 
   24    43     1 
   24    50     1 
   24    51     1 
   24    52     1 
   25    30     1 
   26    41     1 
   26    53     1 
   27    50     1 
   27    51     1 
   27    52     1 
   30    43     1 
   31    32     1 
   31    33     1 
   31    34     1 
   31    35     1 
   35    36     1 
   35    37     1 
   41    43     1 

[ angles ] 
; ai	aj	ak	funct	th0	cth	S0	Kub
   16     1    29     5
   19     4    42     5
   24     6    53     5
   11     7    36     5
   11     7    37     5
   36     7    37     5
    9     8    10     5
    9     8    11     5
    9     8    31     5
   10     8    11     5
   10     8    31     5
   11     8    31     5
    8     9    13     5
    8     9    15     5
    8     9    32     5
   13     9    15     5
   13     9    32     5
   15     9    32     5
    8    10    12     5
    8    10    33     5
    8    10    34     5
   12    10    33     5
   12    10    34     5
   33    10    34     5
    7    11     8     5
    7    11    16     5
    7    11    35     5
    8    11    16     5
    8    11    35     5
   16    11    35     5
   10    12    14     5
   10    12    18     5
   14    12    18     5
    2    13     9     5
    2    13    14     5
    9    13    14     5
   12    14    13     5
   12    14    19     5
   13    14    19     5
    3    15     9     5
    3    15    17     5
    9    15    17     5
    1    16    11     5
    1    16    17     5
   11    16    17     5
   15    17    16     5
   15    17    23     5
   16    17    23     5
   12    18    20     5
   12    18    22     5
   20    18    22     5
    4    19    14     5
    4    19    21     5
   14    19    21     5
   18    20    21     5
   18    20    25     5
   21    20    25     5
   19    21    20     5
   19    21    24     5
   20    21    24     5
   18    22    38     5
   18    22    39     5
   18    22    40     5
   38    22    39     5
   38    22    40     5
   39    22    40     5
    5    23    17     5
    5    23    28     5
   17    23    28     5
    6    24    21     5
    6    24    26     5
   21    24    26     5
   20    25    27     5
   20    25    41     5
   27    25    41     5
   24    26    27     5
   24    26    30     5
   27    26    30     5
   25    27    26     5
   25    27    43     5
   26    27    43     5
   23    28    44     5
   23    28    45     5
   23    28    46     5
   44    28    45     5
   44    28    46     5
   45    28    46     5
    1    29    47     5
    1    29    48     5
    1    29    49     5
   47    29    48     5
   47    29    49     5
   48    29    49     5
   26    30    50     5
   26    30    51     5
   26    30    52     5
   50    30    51     5
   50    30    52     5
   51    30    52     5

[ dihedrals ]
; ai	aj	ak	al	funct	phi0	cp	mult
   16     1    29    47     9
   16     1    29    48     9
   16     1    29    49     9
   10     8     9    13     9
   10     8     9    15     9
   10     8     9    32     9
   11     8     9    13     9
   11     8     9    15     9
   11     8     9    32     9
   31     8     9    32     9
    9     8    10    12     9
    9     8    10    33     9
    9     8    10    34     9
   11     8    10    12     9
   11     8    10    33     9
   11     8    10    34     9
   31     8    10    33     9
   31     8    10    34     9
    9     8    11    16     9
    9     8    11    35     9
   10     8    11    16     9
   10     8    11    35     9
   31     8    11    35     9
   13     9     8    31     9
   15     9     8    31     9
    8     9    13    14     9
    8     9    15    17     9
   13     9    15    17     9
   12    10     8    31     9
    8    10    12    14     9
    8    10    12    18     9
    8    11     7    36     9
    8    11     7    37     9
   16    11     7    36     9
   16    11     7    37     9
   35    11     7    36     9
   35    11     7    37     9
    7    11     8     9     9
    7    11     8    10     9
    7    11     8    31     9
   16    11     8    31     9
    7    11    16    17     9
    8    11    16    17     9
   14    12    10    33     9
   14    12    10    34     9
   18    12    10    33     9
   18    12    10    34     9
   10    12    14    13     9
   10    12    14    19     9
   18    12    14    19     9
   10    12    18    20     9
   10    12    18    22     9
   14    12    18    20     9
   14    12    18    22     9
    2    13     9     8     9
    2    13     9    15     9
    2    13     9    32     9
   14    13     9    15     9
   14    13     9    32     9
    2    13    14    12     9
    2    13    14    19     9
    9    13    14    12     9
    9    13    14    19     9
   13    14    12    18     9
   12    14    19    21     9
   13    14    19    21     9
    3    15     9     8     9
    3    15     9    13     9
    3    15     9    32     9
   17    15     9    32     9
    3    15    17    16     9
    3    15    17    23     9
    9    15    17    16     9
    9    15    17    23     9
   11    16     1    29     9
   17    16     1    29     9
    1    16    11     7     9
    1    16    11     8     9
    1    16    11    35     9
   17    16    11    35     9
    1    16    17    15     9
    1    16    17    23     9
   11    16    17    15     9
   11    16    17    23     9
   15    17    23    28     9
   16    17    23    28     9
   12    18    20    21     9
   12    18    20    25     9
   22    18    20    25     9
   12    18    22    38     9
   12    18    22    39     9
   12    18    22    40     9
   20    18    22    38     9
   20    18    22    39     9
   20    18    22    40     9
   14    19     4    42     9
   21    19     4    42     9
    4    19    14    12     9
    4    19    14    13     9
    4    19    21    20     9
    4    19    21    24     9
   14    19    21    20     9
   14    19    21    24     9
   21    20    18    22     9
   18    20    21    19     9
   18    20    21    24     9
   18    20    25    27     9
   18    20    25    41     9
   21    20    25    27     9
   21    20    25    41     9
   19    21    20    25     9
   24    21    20    25     9
   19    21    24    26     9
   20    21    24    26     9
    5    23    17    15     9
    5    23    17    16     9
    5    23    28    44     9
    5    23    28    45     9
    5    23    28    46     9
   17    23    28    44     9
   17    23    28    45     9
   17    23    28    46     9
   21    24     6    53     9
   26    24     6    53     9
    6    24    21    19     9
    6    24    21    20     9
    6    24    26    27     9
    6    24    26    30     9
   21    24    26    27     9
   21    24    26    30     9
   20    25    27    26     9
   20    25    27    43     9
   41    25    27    43     9
   24    26    27    25     9
   24    26    27    43     9
   30    26    27    43     9
   24    26    30    50     9
   24    26    30    51     9
   24    26    30    52     9
   27    26    30    50     9
   27    26    30    51     9
   27    26    30    52     9
   26    27    25    41     9
   25    27    26    30     9

[ dihedrals ]
; ai	aj	ak	al	funct	q0	cq
   13    14     9     2     2
   15    17     9     3     2
   23    17    28     5     2
