;;
;; Generated by CHARMM-GUI (http://www.charmm-gui.org) v1.7
;;
;; psf2itp_mol.py
;;
;; Correspondance:
;; jul316@lehigh.edu or wonpil@lehigh.edu
;;
;; GROMACS topology file for LIG
;;


[ moleculetype ]
; name	nrexcl
LIG	     3

[ atoms ]
; nr	type	resnr	residu	atom	cgnr	charge	mass
     1      SG311      1      LIG      S      1     -0.246    32.0600   ; qtot -0.246
     2       FGA3      1      LIG     F1      2     -0.177    18.9980   ; qtot -0.423
     3       FGA3      1      LIG     F2      3     -0.177    18.9980   ; qtot -0.600
     4       FGA3      1      LIG     F3      4     -0.177    18.9980   ; qtot -0.777
     5      NG301      1      LIG     N1      5     -0.740    14.0070   ; qtot -1.517
     6      NG301      1      LIG     N2      6     -0.661    14.0070   ; qtot -2.178
     7      NG301      1      LIG     N3      7     -0.440    14.0070   ; qtot -2.618
     8      NG2S3      1      LIG     N4      8     -0.743    14.0070   ; qtot -3.361
     9      CG321      1      LIG     C1      9      0.066    12.0110   ; qtot -3.295
    10      CG321      1      LIG     C2     10      0.066    12.0110   ; qtot -3.229
    11      CG321      1      LIG     C3     11      0.068    12.0110   ; qtot -3.161
    12      CG321      1      LIG     C4     12      0.064    12.0110   ; qtot -3.097
    13      CG321      1      LIG     C5     13      0.064    12.0110   ; qtot -3.033
    14      CG321      1      LIG     C6     14     -0.178    12.0110   ; qtot -3.211
    15      CG321      1      LIG     C7     15      0.042    12.0110   ; qtot -3.169
    16      CG331      1      LIG     C8     16     -0.097    12.0110   ; qtot -3.266
    17     CG2R61      1      LIG     C9     17      0.194    12.0110   ; qtot -3.072
    18     CG2R61      1      LIG    C10     18      0.229    12.0110   ; qtot -2.843
    19     CG2R61      1      LIG    C11     19      0.099    12.0110   ; qtot -2.744
    20     CG2R61      1      LIG    C12     20      0.046    12.0110   ; qtot -2.698
    21     CG2R61      1      LIG    C13     21      0.069    12.0110   ; qtot -2.629
    22     CG2R61      1      LIG    C14     22     -0.201    12.0110   ; qtot -2.830
    23     CG2R61      1      LIG    C15     23     -0.034    12.0110   ; qtot -2.864
    24     CG2R61      1      LIG    C16     24     -0.009    12.0110   ; qtot -2.873
    25     CG2R61      1      LIG    C17     25     -0.325    12.0110   ; qtot -3.198
    26     CG2R61      1      LIG    C18     26     -0.108    12.0110   ; qtot -3.306
    27     CG2R61      1      LIG    C19     27     -0.099    12.0110   ; qtot -3.405
    28     CG2R61      1      LIG    C20     28     -0.116    12.0110   ; qtot -3.521
    29      CG302      1      LIG    C21     29      0.589    12.0110   ; qtot -2.932
    30       HGA2      1      LIG     H1     30      0.090     1.0080   ; qtot -2.842
    31       HGA2      1      LIG     H2     31      0.090     1.0080   ; qtot -2.752
    32       HGA2      1      LIG     H3     32      0.090     1.0080   ; qtot -2.662
    33       HGA2      1      LIG     H4     33      0.090     1.0080   ; qtot -2.572
    34       HGA2      1      LIG     H5     34      0.090     1.0080   ; qtot -2.482
    35       HGA2      1      LIG     H6     35      0.090     1.0080   ; qtot -2.392
    36       HGA2      1      LIG     H7     36      0.090     1.0080   ; qtot -2.302
    37       HGA2      1      LIG     H8     37      0.090     1.0080   ; qtot -2.212
    38       HGA2      1      LIG     H9     38      0.090     1.0080   ; qtot -2.122
    39       HGA2      1      LIG    H10     39      0.090     1.0080   ; qtot -2.032
    40       HGA2      1      LIG    H11     40      0.090     1.0080   ; qtot -1.942
    41       HGA2      1      LIG    H12     41      0.090     1.0080   ; qtot -1.852
    42       HGA2      1      LIG    H13     42      0.090     1.0080   ; qtot -1.762
    43       HGA2      1      LIG    H14     43      0.090     1.0080   ; qtot -1.672
    44       HGA3      1      LIG    H15     44      0.090     1.0080   ; qtot -1.582
    45       HGA3      1      LIG    H16     45      0.090     1.0080   ; qtot -1.492
    46       HGA3      1      LIG    H17     46      0.090     1.0080   ; qtot -1.402
    47      HGR61      1      LIG    H18     47      0.115     1.0080   ; qtot -1.287
    48      HGR61      1      LIG    H19     48      0.118     1.0080   ; qtot -1.169
    49      HGR61      1      LIG    H20     49      0.118     1.0080   ; qtot -1.051
    50      HGR61      1      LIG    H21     50      0.115     1.0080   ; qtot -0.936
    51      HGR61      1      LIG    H22     51      0.115     1.0080   ; qtot -0.821
    52      HGR61      1      LIG    H23     52      0.115     1.0080   ; qtot -0.706
    53       HGP4      1      LIG    H24     53      0.353     1.0080   ; qtot -0.353
    54       HGP4      1      LIG    H25     54      0.353     1.0080   ; qtot -0.000

[ bonds ]
; ai	aj	funct	b0	Kb
    1    19     1
    1    20     1
    2    29     1
    3    29     1
    4    29     1
    5     9     1
    5    10     1
    5    11     1
    6    12     1
    6    13     1
    6    16     1
    7    15     1
    7    17     1
    7    18     1
    8    21     1
    8    53     1
    8    54     1
    9    12     1
    9    30     1
    9    31     1
   10    13     1
   10    32     1
   10    33     1
   11    14     1
   11    34     1
   11    35     1
   12    36     1
   12    37     1
   13    38     1
   13    39     1
   14    15     1
   14    40     1
   14    41     1
   15    42     1
   15    43     1
   16    44     1
   16    45     1
   16    46     1
   17    19     1
   17    21     1
   18    20     1
   18    22     1
   19    23     1
   20    26     1
   21    24     1
   22    27     1
   22    47     1
   23    25     1
   23    48     1
   24    25     1
   24    49     1
   25    29     1
   26    28     1
   26    50     1
   27    28     1
   27    51     1
   28    52     1

[ pairs ]
; ai	aj	funct	c6	c12
    1     7     1 
    1    21     1 
    1    22     1 
    1    25     1 
    1    28     1 
    1    48     1 
    1    50     1 
    2    23     1 
    2    24     1 
    3    23     1 
    3    24     1 
    4    23     1 
    4    24     1 
    5     6     1 
    5    15     1 
    5    36     1 
    5    37     1 
    5    38     1 
    5    39     1 
    5    40     1 
    5    41     1 
    6    30     1 
    6    31     1 
    6    32     1 
    6    33     1 
    7     8     1 
    7    11     1 
    7    23     1 
    7    24     1 
    7    26     1 
    7    27     1 
    7    40     1 
    7    41     1 
    7    47     1 
    8    19     1 
    8    25     1 
    8    49     1 
    9    13     1 
    9    14     1 
    9    16     1 
    9    32     1 
    9    33     1 
    9    34     1 
    9    35     1 
   10    12     1 
   10    14     1 
   10    16     1 
   10    30     1 
   10    31     1 
   10    34     1 
   10    35     1 
   11    12     1 
   11    13     1 
   11    30     1 
   11    31     1 
   11    32     1 
   11    33     1 
   11    42     1 
   11    43     1 
   12    38     1 
   12    39     1 
   12    44     1 
   12    45     1 
   12    46     1 
   13    36     1 
   13    37     1 
   13    44     1 
   13    45     1 
   13    46     1 
   14    17     1 
   14    18     1 
   15    19     1 
   15    20     1 
   15    21     1 
   15    22     1 
   15    34     1 
   15    35     1 
   16    36     1 
   16    37     1 
   16    38     1 
   16    39     1 
   17    20     1 
   17    22     1 
   17    25     1 
   17    42     1 
   17    43     1 
   17    48     1 
   17    49     1 
   17    53     1 
   17    54     1 
   18    19     1 
   18    21     1 
   18    28     1 
   18    42     1 
   18    43     1 
   18    50     1 
   18    51     1 
   19    24     1 
   19    26     1 
   19    29     1 
   20    23     1 
   20    27     1 
   20    47     1 
   20    52     1 
   21    23     1 
   21    29     1 
   22    26     1 
   22    52     1 
   23    49     1 
   24    48     1 
   24    53     1 
   24    54     1 
   26    51     1 
   27    50     1 
   28    47     1 
   29    48     1 
   29    49     1 
   30    36     1 
   30    37     1 
   31    36     1 
   31    37     1 
   32    38     1 
   32    39     1 
   33    38     1 
   33    39     1 
   34    40     1 
   34    41     1 
   35    40     1 
   35    41     1 
   40    42     1 
   40    43     1 
   41    42     1 
   41    43     1 
   47    51     1 
   50    52     1 
   51    52     1 

[ angles ] 
; ai	aj	ak	funct	th0	cth	S0	Kub
   19     1    20     5
    9     5    10     5
    9     5    11     5
   10     5    11     5
   12     6    13     5
   12     6    16     5
   13     6    16     5
   15     7    17     5
   15     7    18     5
   17     7    18     5
   21     8    53     5
   21     8    54     5
   53     8    54     5
    5     9    12     5
    5     9    30     5
    5     9    31     5
   12     9    30     5
   12     9    31     5
   30     9    31     5
    5    10    13     5
    5    10    32     5
    5    10    33     5
   13    10    32     5
   13    10    33     5
   32    10    33     5
    5    11    14     5
    5    11    34     5
    5    11    35     5
   14    11    34     5
   14    11    35     5
   34    11    35     5
    6    12     9     5
    6    12    36     5
    6    12    37     5
    9    12    36     5
    9    12    37     5
   36    12    37     5
    6    13    10     5
    6    13    38     5
    6    13    39     5
   10    13    38     5
   10    13    39     5
   38    13    39     5
   11    14    15     5
   11    14    40     5
   11    14    41     5
   15    14    40     5
   15    14    41     5
   40    14    41     5
    7    15    14     5
    7    15    42     5
    7    15    43     5
   14    15    42     5
   14    15    43     5
   42    15    43     5
    6    16    44     5
    6    16    45     5
    6    16    46     5
   44    16    45     5
   44    16    46     5
   45    16    46     5
    7    17    19     5
    7    17    21     5
   19    17    21     5
    7    18    20     5
    7    18    22     5
   20    18    22     5
    1    19    17     5
    1    19    23     5
   17    19    23     5
    1    20    18     5
    1    20    26     5
   18    20    26     5
    8    21    17     5
    8    21    24     5
   17    21    24     5
   18    22    27     5
   18    22    47     5
   27    22    47     5
   19    23    25     5
   19    23    48     5
   25    23    48     5
   21    24    25     5
   21    24    49     5
   25    24    49     5
   23    25    24     5
   23    25    29     5
   24    25    29     5
   20    26    28     5
   20    26    50     5
   28    26    50     5
   22    27    28     5
   22    27    51     5
   28    27    51     5
   26    28    27     5
   26    28    52     5
   27    28    52     5
    2    29     3     5
    2    29     4     5
    2    29    25     5
    3    29     4     5
    3    29    25     5
    4    29    25     5

[ dihedrals ]
; ai	aj	ak	al	funct	phi0	cp	mult
   20     1    19    23     9
   19     1    20    26     9
   10     5     9    12     9
   10     5     9    30     9
   10     5     9    31     9
   11     5     9    12     9
   11     5     9    30     9
   11     5     9    31     9
    9     5    10    13     9
    9     5    10    32     9
    9     5    10    33     9
   11     5    10    13     9
   11     5    10    32     9
   11     5    10    33     9
    9     5    11    14     9
    9     5    11    34     9
    9     5    11    35     9
   10     5    11    14     9
   10     5    11    34     9
   10     5    11    35     9
   13     6    12    36     9
   13     6    12    37     9
   16     6    12    36     9
   16     6    12    37     9
   12     6    13    38     9
   12     6    13    39     9
   16     6    13    38     9
   16     6    13    39     9
   12     6    16    44     9
   12     6    16    45     9
   12     6    16    46     9
   13     6    16    44     9
   13     6    16    45     9
   13     6    16    46     9
   17     7    15    42     9
   17     7    15    43     9
   18     7    15    42     9
   18     7    15    43     9
   15     7    17    19     9
   15     7    17    21     9
   18     7    17    19     9
   18     7    17    21     9
   15     7    18    20     9
   15     7    18    22     9
   17     7    18    20     9
   17     7    18    22     9
    5     9    12     6     9
    5     9    12    36     9
    5     9    12    37     9
   30     9    12    36     9
   30     9    12    37     9
   31     9    12    36     9
   31     9    12    37     9
    5    10    13     6     9
    5    10    13    38     9
    5    10    13    39     9
   32    10    13    38     9
   32    10    13    39     9
   33    10    13    38     9
   33    10    13    39     9
    5    11    14    15     9
    5    11    14    40     9
    5    11    14    41     9
   34    11    14    40     9
   34    11    14    41     9
   35    11    14    40     9
   35    11    14    41     9
    9    12     6    13     9
    9    12     6    16     9
    6    12     9    30     9
    6    12     9    31     9
   10    13     6    12     9
   10    13     6    16     9
    6    13    10    32     9
    6    13    10    33     9
   15    14    11    34     9
   15    14    11    35     9
   11    14    15    42     9
   11    14    15    43     9
   40    14    15    42     9
   40    14    15    43     9
   41    14    15    42     9
   41    14    15    43     9
   14    15     7    17     9
   14    15     7    18     9
    7    15    14    11     9
    7    15    14    40     9
    7    15    14    41     9
    7    17    19    23     9
   21    17    19    23     9
    7    17    21     8     9
    7    17    21    24     9
   19    17    21    24     9
    7    18    20    26     9
   22    18    20    26     9
    7    18    22    27     9
    7    18    22    47     9
   20    18    22    27     9
   20    18    22    47     9
   17    19     1    20     9
    1    19    17     7     9
    1    19    17    21     9
    1    19    23    25     9
    1    19    23    48     9
   17    19    23    25     9
   17    19    23    48     9
   18    20     1    19     9
    1    20    18     7     9
    1    20    18    22     9
    1    20    26    28     9
    1    20    26    50     9
   18    20    26    28     9
   18    20    26    50     9
   17    21     8    53     9
   17    21     8    54     9
   24    21     8    53     9
   24    21     8    54     9
    8    21    17    19     9
    8    21    24    25     9
    8    21    24    49     9
   17    21    24    25     9
   17    21    24    49     9
   18    22    27    28     9
   18    22    27    51     9
   47    22    27    51     9
   19    23    25    24     9
   19    23    25    29     9
   21    24    25    23     9
   21    24    25    29     9
   24    25    23    48     9
   29    25    23    48     9
   23    25    24    49     9
   29    25    24    49     9
   20    26    28    27     9
   20    26    28    52     9
   50    26    28    52     9
   28    27    22    47     9
   22    27    28    26     9
   22    27    28    52     9
   51    27    28    52     9
   27    28    26    50     9
   26    28    27    51     9
    2    29    25    23     9
    2    29    25    24     9
    3    29    25    23     9
    3    29    25    24     9
    4    29    25    23     9
    4    29    25    24     9

[ dihedrals ]
; ai	aj	ak	al	funct	q0	cq
    8    54    53    21     2
