;;
;; Generated by CHARMM-GUI (http://www.charmm-gui.org) v1.7
;;
;; psf2itp_mol.py
;;
;; Correspondance:
;; jul316@lehigh.edu or wonpil@lehigh.edu
;;
;; GROMACS topology file for LIG
;;


[ moleculetype ]
; name	nrexcl
LIG	     3

[ atoms ]
; nr	type	resnr	residu	atom	cgnr	charge	mass
     1      SG311      1      LIG      S      1      0.070    32.0600   ; qtot  0.070
     2     OG2R50      1      LIG     O1      2     -0.258    15.9994   ; qtot -0.188
     3      OG2N1      1      LIG     O2      3     -0.311    15.9994   ; qtot -0.499
     4      OG2N1      1      LIG     O3      4     -0.311    15.9994   ; qtot -0.810
     5      NG301      1      LIG     N1      5     -0.589    14.0070   ; qtot -1.399
     6      NG311      1      LIG     N2      6     -0.508    14.0070   ; qtot -1.907
     7     NG2R62      1      LIG     N3      7     -0.476    14.0070   ; qtot -2.383
     8      NG2O1      1      LIG     N4      8      0.375    14.0070   ; qtot -2.008
     9     NG2R62      1      LIG     N5      9     -0.389    14.0070   ; qtot -2.397
    10      CG321      1      LIG     C1     10      0.024    12.0110   ; qtot -2.373
    11     CG2R51      1      LIG     C2     11      0.246    12.0110   ; qtot -2.127
    12     CG2R51      1      LIG     C3     12      0.123    12.0110   ; qtot -2.004
    13      CG321      1      LIG     C4     13     -0.214    12.0110   ; qtot -2.218
    14     CG2R51      1      LIG     C5     14     -0.241    12.0110   ; qtot -2.459
    15      CG321      1      LIG     C6     15     -0.089    12.0110   ; qtot -2.548
    16     CG2R51      1      LIG     C7     16     -0.310    12.0110   ; qtot -2.858
    17      CG321      1      LIG     C8     17      0.056    12.0110   ; qtot -2.802
    18      CG331      1      LIG     C9     18     -0.102    12.0110   ; qtot -2.904
    19      CG331      1      LIG    C10     19     -0.102    12.0110   ; qtot -3.006
    20     CG2R64      1      LIG    C11     20      0.327    12.0110   ; qtot -2.679
    21     CG2R61      1      LIG    C12     21      0.398    12.0110   ; qtot -2.281
    22     CG2R61      1      LIG    C13     22     -0.220    12.0110   ; qtot -2.501
    23     CG2R61      1      LIG    C14     23      0.303    12.0110   ; qtot -2.198
    24       HGA2      1      LIG     H1     24      0.090     1.0080   ; qtot -2.108
    25       HGA2      1      LIG     H2     25      0.090     1.0080   ; qtot -2.018
    26       HGA2      1      LIG     H3     26      0.090     1.0080   ; qtot -1.928
    27       HGA2      1      LIG     H4     27      0.090     1.0080   ; qtot -1.838
    28      HGR51      1      LIG     H5     28      0.175     1.0080   ; qtot -1.663
    29       HGA2      1      LIG     H6     29      0.090     1.0080   ; qtot -1.573
    30       HGA2      1      LIG     H7     30      0.090     1.0080   ; qtot -1.483
    31      HGR51      1      LIG     H8     31      0.175     1.0080   ; qtot -1.308
    32       HGA2      1      LIG     H9     32      0.090     1.0080   ; qtot -1.218
    33       HGA2      1      LIG    H10     33      0.090     1.0080   ; qtot -1.128
    34       HGA3      1      LIG    H11     34      0.090     1.0080   ; qtot -1.038
    35       HGA3      1      LIG    H12     35      0.090     1.0080   ; qtot -0.948
    36       HGA3      1      LIG    H13     36      0.090     1.0080   ; qtot -0.858
    37       HGA3      1      LIG    H14     37      0.090     1.0080   ; qtot -0.768
    38       HGA3      1      LIG    H15     38      0.090     1.0080   ; qtot -0.678
    39       HGA3      1      LIG    H16     39      0.090     1.0080   ; qtot -0.588
    40     HGPAM1      1      LIG    H17     40      0.336     1.0080   ; qtot -0.252
    41      HGR61      1      LIG    H18     41      0.166     1.0080   ; qtot -0.086
    42      HGR62      1      LIG    H19     42      0.086     1.0080   ; qtot -0.000

[ bonds ]
; ai	aj	funct	b0	Kb
    1    13     1
    1    15     1
    2    11     1
    2    12     1
    3     8     1
    4     8     1
    5    10     1
    5    18     1
    5    19     1
    6    17     1
    6    20     1
    6    40     1
    7     9     1
    7    20     1
    8    21     1
    9    23     1
   10    11     1
   10    24     1
   10    25     1
   11    14     1
   12    13     1
   12    16     1
   13    26     1
   13    27     1
   14    16     1
   14    28     1
   15    17     1
   15    29     1
   15    30     1
   16    31     1
   17    32     1
   17    33     1
   18    34     1
   18    35     1
   18    36     1
   19    37     1
   19    38     1
   19    39     1
   20    21     1
   21    22     1
   22    23     1
   22    41     1
   23    42     1

[ pairs ]
; ai	aj	funct	c6	c12
    1     2     1 
    1     6     1 
    1    16     1 
    1    32     1 
    1    33     1 
    2     5     1 
    2    24     1 
    2    25     1 
    2    26     1 
    2    27     1 
    2    28     1 
    2    31     1 
    3    20     1 
    3    22     1 
    4    20     1 
    4    22     1 
    5    14     1 
    6     8     1 
    6     9     1 
    6    22     1 
    6    29     1 
    6    30     1 
    7     8     1 
    7    17     1 
    7    22     1 
    7    40     1 
    7    42     1 
    8    23     1 
    8    41     1 
    9    21     1 
    9    41     1 
   10    12     1 
   10    16     1 
   10    28     1 
   10    34     1 
   10    35     1 
   10    36     1 
   10    37     1 
   10    38     1 
   10    39     1 
   11    13     1 
   11    18     1 
   11    19     1 
   11    31     1 
   12    15     1 
   12    28     1 
   13    14     1 
   13    17     1 
   13    29     1 
   13    30     1 
   13    31     1 
   14    24     1 
   14    25     1 
   15    20     1 
   15    26     1 
   15    27     1 
   15    40     1 
   16    26     1 
   16    27     1 
   17    21     1 
   18    24     1 
   18    25     1 
   18    37     1 
   18    38     1 
   18    39     1 
   19    24     1 
   19    25     1 
   19    34     1 
   19    35     1 
   19    36     1 
   20    23     1 
   20    32     1 
   20    33     1 
   20    41     1 
   21    40     1 
   21    42     1 
   28    31     1 
   29    32     1 
   29    33     1 
   30    32     1 
   30    33     1 
   32    40     1 
   33    40     1 
   41    42     1 

[ angles ] 
; ai	aj	ak	funct	th0	cth	S0	Kub
   13     1    15     5
   11     2    12     5
   10     5    18     5
   10     5    19     5
   18     5    19     5
   17     6    20     5
   17     6    40     5
   20     6    40     5
    9     7    20     5
    3     8     4     5
    3     8    21     5
    4     8    21     5
    7     9    23     5
    5    10    11     5
    5    10    24     5
    5    10    25     5
   11    10    24     5
   11    10    25     5
   24    10    25     5
    2    11    10     5
    2    11    14     5
   10    11    14     5
    2    12    13     5
    2    12    16     5
   13    12    16     5
    1    13    12     5
    1    13    26     5
    1    13    27     5
   12    13    26     5
   12    13    27     5
   26    13    27     5
   11    14    16     5
   11    14    28     5
   16    14    28     5
    1    15    17     5
    1    15    29     5
    1    15    30     5
   17    15    29     5
   17    15    30     5
   29    15    30     5
   12    16    14     5
   12    16    31     5
   14    16    31     5
    6    17    15     5
    6    17    32     5
    6    17    33     5
   15    17    32     5
   15    17    33     5
   32    17    33     5
    5    18    34     5
    5    18    35     5
    5    18    36     5
   34    18    35     5
   34    18    36     5
   35    18    36     5
    5    19    37     5
    5    19    38     5
    5    19    39     5
   37    19    38     5
   37    19    39     5
   38    19    39     5
    6    20     7     5
    6    20    21     5
    7    20    21     5
    8    21    20     5
    8    21    22     5
   20    21    22     5
   21    22    23     5
   21    22    41     5
   23    22    41     5
    9    23    22     5
    9    23    42     5
   22    23    42     5

[ dihedrals ]
; ai	aj	ak	al	funct	phi0	cp	mult
   15     1    13    26     9
   15     1    13    27     9
   13     1    15    17     9
   13     1    15    29     9
   13     1    15    30     9
   12     2    11    14     9
   11     2    12    13     9
   11     2    12    16     9
   18     5    10    24     9
   18     5    10    25     9
   19     5    10    24     9
   19     5    10    25     9
   10     5    18    34     9
   10     5    18    35     9
   10     5    18    36     9
   19     5    18    34     9
   19     5    18    35     9
   19     5    18    36     9
   10     5    19    37     9
   10     5    19    38     9
   10     5    19    39     9
   18     5    19    37     9
   18     5    19    38     9
   18     5    19    39     9
   20     6    17    32     9
   20     6    17    33     9
   17     6    20    21     9
   20     7     9    23     9
    9     7    20    21     9
    3     8    21    20     9
    3     8    21    22     9
    4     8    21    20     9
    4     8    21    22     9
    7     9    23    22     9
    7     9    23    42     9
   11    10     5    18     9
   11    10     5    19     9
    5    10    11    14     9
   10    11     2    12     9
    2    11    10     5     9
    2    11    10    24     9
    2    11    10    25     9
   14    11    10    24     9
   14    11    10    25     9
    2    11    14    16     9
    2    11    14    28     9
   10    11    14    16     9
   10    11    14    28     9
    2    12    13    26     9
    2    12    13    27     9
   16    12    13    26     9
   16    12    13    27     9
    2    12    16    14     9
    2    12    16    31     9
   13    12    16    14     9
   13    12    16    31     9
   12    13     1    15     9
    1    13    12     2     9
    1    13    12    16     9
   11    14    16    12     9
   11    14    16    31     9
   28    14    16    31     9
    1    15    17     6     9
    1    15    17    32     9
    1    15    17    33     9
   29    15    17    32     9
   29    15    17    33     9
   30    15    17    32     9
   30    15    17    33     9
   12    16    14    28     9
   15    17     6    20     9
   15    17     6    40     9
   32    17     6    40     9
   33    17     6    40     9
    6    17    15    29     9
    6    17    15    30     9
    7    20     6    17     9
    7    20     6    40     9
   21    20     6    40     9
    6    20     7     9     9
    6    20    21     8     9
    6    20    21    22     9
    7    20    21     8     9
    7    20    21    22     9
    8    21    22    23     9
    8    21    22    41     9
   20    21    22    23     9
   20    21    22    41     9
   21    22    23    42     9
   41    22    23    42     9
    9    23    22    21     9
    9    23    22    41     9

[ dihedrals ]
; ai	aj	ak	al	funct	q0	cq
   20    21     7     6     2
